G2P-PAMAM in water
22940
    1aaa     C1    1   2.331   6.120   1.348 -0.2227 -0.1183 -0.0390
    1aaa     H1    2   2.401   6.070   1.281  1.6717  2.4245 -0.1172
    1aaa     H2    3   2.280   6.050   1.415  1.1320  1.3093  2.6776
    1aaa     C2    4   2.237   6.202   1.252 -0.2672 -0.2127 -0.1222
    1aaa     H3    5   2.204   6.297   1.297  0.1768  0.8200 -1.8654
    1aaa     H4    6   2.299   6.236   1.168  0.6295  1.4248  1.1519
    1aaa     N1    7   2.120   6.117   1.215  0.3105 -0.4960 -0.4243
    1aaa     N2    8   2.404   6.214   1.434 -0.1638 -0.5139  0.7435
    1aaa     C3    9   2.316   6.272   1.540 -0.5459 -0.2051  0.0974
    1aaa     H5   10   2.212   6.282   1.505 -0.4004 -1.4876 -0.7637
    1aaa     H6   11   2.350   6.374   1.562 -0.3125 -0.0700 -0.8645
    1aaa     C4   12   2.480   6.321   1.365  0.5833  1.0106  0.5592
    1aaa     H7   13   2.420   6.394   1.310  1.1617  1.1974  0.1716
    1aaa     H8   14   2.532   6.373   1.447 -1.6028  2.5712  1.0382
    1aaa     C5   15   2.141   5.978   1.168 -0.1698 -0.0812  1.1944
    1aaa     H9   16   2.193   5.924   1.248  1.2925  3.6555  2.9935
    1aaa    H10   17   2.049   5.923   1.147 -1.4644  2.4514 -0.2431
    1aaa     C6   18   2.023   6.104   1.328  0.5990  0.0019 -0.0951
    1aaa    H11   19   2.072   6.061   1.416 -0.4217 -0.5075  0.2478
    1aaa    H12   20   1.944   6.031   1.308  1.6583 -2.3783  3.4281
    1aaa     C7   21   2.238   5.982   1.048  0.2010  0.4249 -1.0989
    1aaa    H13   22   2.233   6.084   1.010 -0.2231  0.9525  0.2759
    1aaa    H14   23   2.339   5.948   1.073  0.0034 -0.4899 -1.5008
    1aaa     C8   24   1.937   6.228   1.358  0.2810  0.3932  0.1020
    1aaa    H15   25   1.998   6.319   1.365 -0.7168  1.2395 -1.5367
    1aaa    H16   26   1.869   6.240   1.272  0.1353  0.4803  0.2297
    1aaa     C9   27   2.597   6.276   1.282  0.0908  0.1498 -0.5650
    1aaa    H17   28   2.644   6.193   1.335 -1.4301 -0.2473  0.2180
    1aaa    H18   29   2.557   6.235   1.188 -0.4621 -2.6392  0.7862
    1aaa    C10   30   2.308   6.181   1.665  0.2247  0.5467 -0.3312
    1aaa    H19   31   2.278   6.083   1.627 -0.7156  0.2461  1.1526
    1aaa    H20   32   2.399   6.163   1.724 -0.7431 -2.9495  0.3182
    1aaa    C11   33   2.703   6.374   1.258  0.5435 -0.3064  0.3155
    1aaa    C12   34   2.198   6.229   1.756  0.6931  0.1031 -0.8430
    1aaa    C13   35   2.177   5.887   0.946  0.5838  0.6183  0.7008
    1aaa    C14   36   1.859   6.210   1.482  0.0647  0.2641  0.1660
    1aaa     O1   37   2.776   6.417   1.345 -0.3587  0.7910 -0.1551
    1aaa     O2   38   2.236   5.789   0.908  0.3063 -0.3841 -0.0417
    1aaa     O3   39   1.843   6.098   1.532  0.2004 -0.3692 -0.1139
    1aaa     O4   40   2.181   6.346   1.785  0.8860  0.1667 -0.5488
    2bbb     C1   41   2.790   6.541   0.929  0.7144  0.6781  0.3234
    2bbb     H1   42   2.820   6.453   0.871 -0.4497 -1.2515  2.4976
    2bbb     H2   43   2.853   6.628   0.906  1.6646 -0.2641 -0.7783
    2bbb     C2   44   2.807   6.516   1.077  0.1752  0.1653  0.2035
    2bbb     H3   45   2.908   6.476   1.096  0.5675  1.2665  0.5178
    2bbb     H4   46   2.801   6.610   1.133  1.6565  0.3568  0.0757
    2bbb     N1   47   2.650   6.574   0.886 -0.0782  0.1706 -0.2497
    2bbb     C3   48   2.637   6.544   0.744 -0.0770 -0.3732 -0.4600
    2bbb     H5   49   2.624   6.436   0.729 -1.0960 -0.1767 -1.1217
    2bbb     H6   50   2.724   6.583   0.690  1.3587 -0.6910  1.5507
    2bbb     C4   51   2.611   6.705   0.929 -0.9760  0.4730  0.4343
    2bbb     H7   52   2.507   6.720   0.898 -1.1934 -2.2307 -0.3661
    2bbb     H8   53   2.616   6.701   1.039  2.7322  1.2667  0.3958
    2bbb     C5   54   2.697   6.821   0.883 -0.5348 -0.0087  0.5350
    2bbb     H9   55   2.792   6.832   0.937  0.6248 -1.7042 -1.0277
    2bbb    H10   56   2.721   6.814   0.776 -1.2872  1.4254  0.2521
    2bbb     C6   57   2.513   6.594   0.684 -0.5798 -0.3950 -1.0011
    2bbb    H11   58   2.433   6.554   0.747  2.0813  0.3012  3.2539
    2bbb    H12   59   2.517   6.704   0.684  2.7728 -0.2713  2.7199
    2bbb     C7   60   2.611   6.940   0.908  0.4195 -0.1059  0.6153
    2bbb     C8   61   2.489   6.550   0.545 -0.2172  0.0844 -0.2985
    2bbb     O1   62   2.564   6.980   1.013  0.3935  0.4959  0.5227
    2bbb     O2   63   2.577   6.498   0.475 -0.0006  0.6412 -0.4015
    2bbb     N4   64   2.701   6.420   1.131  0.0696 -0.8362  0.1535
    2bbb    H21   65   2.641   6.373   1.065  0.2585 -0.8962  0.0225
    3bbb     C1   66   1.957   6.159   1.984  0.2050  0.1441  0.1904
    3bbb     H1   67   2.032   6.225   2.030 -0.4764 -0.3698  2.1575
    3bbb     H2   68   1.982   6.055   2.009  0.5182 -0.2520 -1.6282
    3bbb     C2   69   1.966   6.174   1.829  0.6114  0.9144 -0.2822
    3bbb     H3   70   1.902   6.109   1.768  0.1960 -0.3352  1.4032
    3bbb     H4   71   1.934   6.275   1.802 -0.7569  1.0701  1.7137
    3bbb     N1   72   1.826   6.194   2.036 -0.2321  0.0623 -0.3636
    3bbb     C3   73   1.834   6.194   2.184 -0.4160 -0.0321  0.3918
    3bbb     H5   74   1.882   6.102   2.219  0.2890 -0.5156 -1.6860
    3bbb     H6   75   1.731   6.202   2.223 -1.1687 -0.7560 -1.3480
    3bbb     C4   76   1.724   6.110   1.987 -0.0556  0.4331 -0.3666
    3bbb     H7   77   1.736   6.083   1.881 -3.7134 -0.2806 -0.7233
    3bbb     H8   78   1.717   6.013   2.037  0.0456 -0.4569 -1.9963
    3bbb     C5   79   1.595   6.190   2.006 -0.8731  0.2819 -0.4010
    3bbb     H9   80   1.557   6.197   2.109  0.3567  0.7224  0.0375
    3bbb    H10   81   1.600   6.295   1.975  0.0015  1.2961  2.7540
    3bbb     C6   82   1.898   6.316   2.242  0.0654 -0.1793 -0.1090
    3bbb    H11   83   2.004   6.291   2.235 -0.5115 -3.2621  0.7585
    3bbb    H12   84   1.874   6.405   2.182 -1.1090 -1.1521 -1.1324
    3bbb     C7   85   1.479   6.121   1.938  0.8417  0.6797 -0.2776
    3bbb     C8   86   1.859   6.326   2.378  0.2289 -0.6864  0.2956
    3bbb     O1   87   1.481   6.001   1.900 -0.2537 -0.6173 -0.3173
    3bbb     O2   88   1.916   6.262   2.466 -0.0913 -0.1793  0.0941
    3bbb     N4   89   2.100   6.139   1.787 -0.2101  0.0399  0.9229
    3bbb    H21   90   2.117   6.040   1.772 -1.0788  0.3672 -4.0713
    4bbb     C1   91   1.881   5.886   0.705 -0.1509  0.3346 -0.4308
    4bbb     H1   92   1.798   5.865   0.773 -1.6807 -1.0154 -2.5956
    4bbb     H2   93   1.863   5.842   0.606 -0.5335  3.3555 -1.8465
    4bbb     C2   94   2.009   5.829   0.761  0.8204  0.1486  0.7703
    4bbb     H3   95   2.002   5.722   0.785 -0.7379  0.4332  1.7442
    4bbb     H4   96   2.077   5.842   0.675 -0.7009  0.2258 -0.4735
    4bbb     N1   97   1.886   6.037   0.690  0.6337 -0.6454  0.0467
    4bbb     C3   98   1.779   6.109   0.762  0.1548 -0.2522 -0.0331
    4bbb     H5   99   1.679   6.067   0.745  0.3260 -0.3794 -0.7634
    4bbb     H6  100   1.773   6.209   0.717  1.7862 -0.7916 -1.5926
    4bbb     C4  101   1.901   6.072   0.551 -0.2714 -0.3028 -0.1066
    4bbb     H7  102   1.965   5.998   0.502 -0.3816  1.0630 -2.5333
    4bbb     H8  103   1.810   6.065   0.491 -0.3005 -0.2207 -0.0732
    4bbb     C5  104   1.954   6.214   0.537 -0.5585  0.6230 -0.8011
    4bbb     H9  105   1.986   6.234   0.434  0.0258  2.0107 -0.3703
    4bbb    H10  106   1.887   6.298   0.560  0.2632  1.0631  0.0255
    4bbb     C6  107   1.812   6.105   0.911 -0.5372 -0.2443  0.3863
    4bbb    H11  108   1.783   6.009   0.956  2.2651 -1.7525 -0.7731
    4bbb    H12  109   1.918   6.125   0.931  0.0783 -1.5734 -1.3091
    4bbb     C7  110   2.079   6.230   0.616  0.2651  0.6649  0.3914
    4bbb     C8  111   1.733   6.212   0.984 -0.4886 -0.3118 -0.2804
    4bbb     O1  112   2.074   6.295   0.715  0.4046  0.0124  0.0060
    4bbb     O2  113   1.781   6.318   1.023  0.0915  0.1407  0.2303
    4bbb     N4  114   2.060   5.913   0.876  0.1200  0.0661 -0.7684
    4bbb    H21  115   2.009   5.998   0.898  4.5307  2.0721  3.5913
    5bbb     C1  116   1.649   6.479   1.671 -0.4182 -0.0762 -0.6117
    5bbb     H1  117   1.590   6.473   1.764  1.5742 -3.1177  0.6434
    5bbb     H2  118   1.587   6.508   1.586 -0.9520 -0.8958 -0.5209
    5bbb     C2  119   1.699   6.337   1.645  0.0870 -0.0553  0.3172
    5bbb     H3  120   1.746   6.312   1.741  0.6694 -1.3691 -0.2911
    5bbb     H4  121   1.614   6.268   1.637  0.7174 -1.0174  1.5674
    5bbb     N1  122   1.762   6.571   1.688  0.0714 -1.0387 -0.3592
    5bbb     C3  123   1.809   6.581   1.824  0.5426  0.3196 -0.0623
    5bbb     H5  124   1.773   6.496   1.883 -0.1915 -0.3301 -1.4116
    5bbb     H6  125   1.761   6.664   1.878  0.6402  0.3367 -0.0010
    5bbb     C4  126   1.722   6.706   1.637  0.4652 -0.1328  0.0216
    5bbb     H7  127   1.615   6.720   1.658  0.2342 -0.0539 -1.1136
    5bbb     H8  128   1.787   6.786   1.675  0.3691  0.3562 -0.8166
    5bbb     C5  129   1.732   6.715   1.486 -0.0039 -0.0636  0.1017
    5bbb     H9  130   1.642   6.688   1.429 -0.4810 -1.5803  1.4937
    5bbb    H10  131   1.736   6.821   1.460  0.0135  0.1558  0.9775
    5bbb     C6  132   1.957   6.605   1.820  0.3092  0.0061 -0.3263
    5bbb    H11  133   2.009   6.518   1.779  0.1509  0.2660 -1.0868
    5bbb    H12  134   1.986   6.688   1.755  1.2808  0.7665  1.0420
    5bbb     C7  135   1.854   6.648   1.431  0.3992 -0.2782  0.1959
    5bbb     C8  136   2.010   6.653   1.952 -0.0179  0.9699 -0.4798
    5bbb     O1  137   1.845   6.552   1.357 -0.6752  0.3234  0.0800
    5bbb     O2  138   1.957   6.741   2.025  0.0560 -0.3623  0.1274
    5bbb     N4  139   1.803   6.326   1.533  0.4337 -0.0053  0.1591
    5bbb    H21  140   1.826   6.415   1.489 -0.4010  0.0590 -0.1697
    6bbb     C1  141   2.582   7.224   0.646  0.0149  0.4261  0.0067
    6bbb     H1  142   2.678   7.269   0.676 -0.0304 -0.3283  1.3993
    6bbb     H2  143   2.519   7.308   0.616  2.7033  2.4428 -0.3628
    6bbb     C2  144   2.539   7.141   0.771  0.1130 -0.9171 -0.3745
    6bbb     H3  145   2.562   7.199   0.861  3.5392 -0.5760 -1.3193
    6bbb     H4  146   2.430   7.139   0.768 -0.0627  2.3637  0.1037
    6bbb     N1  147   2.597   7.129   0.534 -0.9969  0.4322 -0.2560
    6bbb     C3  148   2.471   7.142   0.459 -0.0997 -0.3307  0.2275
    6bbb     H5  149   2.467   7.240   0.409 -1.2835 -0.4979 -0.0251
    6bbb     H6  150   2.389   7.137   0.532  1.1399 -1.3082  1.5990
    6bbb     C4  151   2.721   7.139   0.457 -1.0216  0.2031 -0.2386
    6bbb     H7  152   2.707   7.068   0.374 -2.4779  1.2165 -0.9084
    6bbb     H8  153   2.741   7.243   0.427 -2.2354  0.2047 -1.1078
    6bbb     C5  154   2.844   7.104   0.547  0.1349 -0.0481 -0.1961
    6bbb     H9  155   2.854   7.173   0.632  0.6313  0.9579 -1.0483
    6bbb    H10  156   2.828   7.009   0.600  1.4925  0.0759  0.4742
    6bbb     C6  157   2.450   7.028   0.362  0.0269  0.5890  0.2327
    6bbb    H11  158   2.516   7.035   0.274  0.2345 -2.1679  0.0525
    6bbb    H12  159   2.480   6.931   0.405  0.7676 -0.5245 -2.5032
    6bbb     C7  160   2.969   7.102   0.460  0.3339 -0.7067 -0.0996
    6bbb     C8  161   2.312   7.008   0.310 -0.2292 -0.7538  0.2740
    6bbb     O1  162   2.978   7.025   0.367 -0.3857  0.4537 -0.2599
    6bbb     O2  163   2.215   7.068   0.357 -0.0096 -0.0168 -0.1863
    6bbb     N4  164   2.594   7.008   0.789  0.3140  0.6952  0.0780
    6bbb    H21  165   2.633   6.965   0.705 -0.2881 -0.4587  0.3604
    7bbb     C1  166   2.163   6.558   0.354  0.7064 -0.4123 -0.5370
    7bbb     H1  167   2.138   6.663   0.374  0.8389 -0.6957  1.2988
    7bbb     H2  168   2.113   6.497   0.430  1.3985 -1.7035 -1.0905
    7bbb     C2  169   2.313   6.549   0.371  0.3701 -0.2618  0.7548
    7bbb     H3  170   2.335   6.445   0.344 -2.6473 -0.3728 -1.7735
    7bbb     H4  171   2.372   6.608   0.300  1.1783 -2.9282 -0.9471
    7bbb     N1  172   2.103   6.512   0.228 -0.2104  0.2391  0.2201
    7bbb     C3  173   1.956   6.513   0.234 -0.2759  0.3679  0.1894
    7bbb     H5  174   1.914   6.452   0.314 -1.6955 -0.0433 -0.8371
    7bbb     H6  175   1.924   6.465   0.141  0.0292  1.6786 -0.6237
    7bbb     C4  176   2.140   6.369   0.196  0.5094  0.1030  0.3640
    7bbb     H7  177   2.238   6.347   0.241  1.6128 -0.3586 -2.1322
    7bbb     H8  178   2.072   6.290   0.228 -1.1685  0.3192 -2.3895
    7bbb     C5  179   2.162   6.358   0.050  0.5265  0.1580 -0.5474
    7bbb     H9  180   2.069   6.379  -0.004 -0.4117 -1.3075  0.4215
    7bbb    H10  181   2.238   6.434   0.026  1.0523 -0.3885 -0.6454
    7bbb     C6  182   1.905   6.655   0.220  0.5087 -0.0159 -0.0715
    7bbb    H11  183   1.916   6.710   0.315  0.1725  0.5948 -0.3803
    7bbb    H12  184   1.958   6.707   0.139  1.4083 -0.7324  0.0429
    7bbb     C7  185   2.217   6.230   0.017 -0.5610 -0.3170 -0.1238
    7bbb     C8  186   1.757   6.640   0.204  0.0831  0.2814  0.2790
    7bbb     O1  187   2.143   6.132   0.005 -0.7984 -0.3985  0.1720
    7bbb     O2  188   1.688   6.582   0.286  0.1069  0.3950  0.1567
    7bbb     N4  189   2.361   6.584   0.504 -0.1629 -0.3836  0.1734
    7bbb    H21  190   2.307   6.637   0.571  0.9526  2.1360 -0.7766
    8bbb     C1  191   1.158   6.076   1.888  0.1466  0.1389 -0.3885
    8bbb     H1  192   1.128   6.129   1.979 -0.8049 -1.1271  0.0621
    8bbb     H2  193   1.201   5.981   1.920 -0.3732  0.7298  2.3591
    8bbb     C2  194   1.258   6.175   1.831  0.0480 -0.3651 -0.1202
    8bbb     H3  195   1.297   6.155   1.731 -1.6307 -2.0541 -0.4987
    8bbb     H4  196   1.194   6.264   1.819  2.6010  1.6700  0.3720
    8bbb     N1  197   1.045   6.049   1.802 -0.4533 -0.0690 -0.0373
    8bbb     C3  198   1.084   5.979   1.687 -0.3767  0.6499  0.3268
    8bbb     H5  199   1.169   6.028   1.638  0.2970 -1.3753 -0.6155
    8bbb     H6  200   0.994   5.982   1.624  0.3528  1.0929 -0.7196
    8bbb     C4  201   0.939   5.994   1.884  0.3701 -0.2223  0.1825
    8bbb     H7  202   0.971   5.897   1.923  0.5218 -0.4199 -0.4226
    8bbb     H8  203   0.909   6.066   1.961 -0.5137 -0.2627 -0.1139
    8bbb     C5  204   0.812   5.978   1.805  0.5028  0.4193  0.1945
    8bbb     H9  205   0.781   6.079   1.774  1.1237  0.9473  1.2389
    8bbb    H10  206   0.813   5.918   1.713 -0.1643 -0.8196  0.9761
    8bbb     C6  207   1.123   5.839   1.700  0.0274 -0.0601 -0.9222
    8bbb    H11  208   1.202   5.829   1.776  0.3382  1.8926 -0.9426
    8bbb    H12  209   1.036   5.780   1.731  2.1856 -2.9874  0.1355
    8bbb     C7  210   0.700   5.920   1.898 -0.2271 -0.7174 -0.4362
    8bbb     C8  211   1.159   5.785   1.568  0.2674 -0.5641 -0.0096
    8bbb     O1  212   0.727   5.873   2.007  0.0324 -0.2625  0.3119
    8bbb     O2  213   1.073   5.784   1.478 -0.6885 -0.0839  0.1411
    8bbb     N4  214   1.368   6.206   1.922 -0.0188  0.4424 -0.2425
    8bbb    H21  215   1.380   6.293   1.972  1.6386  0.9003 -1.3684
    9bbb     C1  216   1.601   6.352   2.586  0.4359 -0.1161  0.5116
    9bbb     H1  217   1.621   6.358   2.693  1.3769 -1.5904  0.4404
    9bbb     H2  218   1.631   6.250   2.560  0.5837  0.0996 -0.1958
    9bbb     C2  219   1.697   6.455   2.526 -0.4233 -0.4883  0.4105
    9bbb     H3  220   1.649   6.551   2.504  0.0843 -0.5251 -0.9456
    9bbb     H4  221   1.776   6.485   2.595 -2.6738  1.6948  2.2253
    9bbb     N1  222   1.455   6.370   2.541 -0.2800 -0.0483 -0.4175
    9bbb     C3  223   1.379   6.275   2.619 -0.3963 -0.4322 -0.2883
    9bbb     H5  224   1.435   6.183   2.642  0.4439  0.0848 -0.2246
    9bbb     H6  225   1.294   6.241   2.558 -1.9184 -1.5489  2.3070
    9bbb     C4  226   1.434   6.344   2.401 -0.3591  0.2031  0.0331
    9bbb     H7  227   1.516   6.371   2.332  1.5037  0.1365  2.1162
    9bbb     H8  228   1.438   6.237   2.378  1.3295  0.5924 -1.8681
    9bbb     C5  229   1.315   6.432   2.370 -0.1945  0.2610  0.0879
    9bbb     H9  230   1.227   6.392   2.421 -0.0346 -1.8559 -1.2000
    9bbb    H10  231   1.337   6.532   2.410 -0.0270  0.0530  0.5286
    9bbb     C6  232   1.327   6.355   2.732  0.3258 -0.4242 -0.3010
    9bbb    H11  233   1.410   6.387   2.795  1.0886  2.0872 -2.4074
    9bbb    H12  234   1.276   6.445   2.696 -0.6737  0.6469  3.2918
    9bbb     C7  235   1.289   6.443   2.222 -0.5971  0.7333  0.1493
    9bbb     C8  236   1.221   6.268   2.799 -0.8677 -0.0814  0.1520
    9bbb     O1  237   1.374   6.457   2.139 -0.3818 -0.2708 -0.1257
    9bbb     O2  238   1.238   6.149   2.807  0.4458 -0.1347  0.0145
    9bbb     N4  239   1.755   6.413   2.397 -0.5177  0.5319  0.7756
    9bbb    H21  240   1.730   6.468   2.315 -1.6579 -1.2439 -0.1378
   10bbb     C1  241   2.462   6.172   0.547  0.0717  0.5526 -0.3524
   10bbb     H1  242   2.540   6.180   0.624 -1.3096 -0.1618  1.1635
   10bbb     H2  243   2.473   6.232   0.456  0.1362  2.5027  0.8842
   10bbb     C2  244   2.333   6.210   0.625  0.6357 -0.1693 -0.4952
   10bbb     H3  245   2.335   6.167   0.726  0.5403  0.8723 -0.0476
   10bbb     H4  246   2.323   6.317   0.646  1.6812  0.5281 -3.1348
   10bbb     N1  247   2.442   6.024   0.523 -0.4359  0.0774  0.2288
   10bbb     C3  248   2.496   5.973   0.396  0.5404  0.3224  0.0989
   10bbb     H5  249   2.495   5.864   0.399  0.5905  0.1289 -3.0231
   10bbb     H6  250   2.601   6.004   0.389  1.3615 -2.1304  0.5880
   10bbb     C4  251   2.488   5.937   0.636 -0.5155 -0.3119  0.9367
   10bbb     H7  252   2.452   5.982   0.730  0.2055  1.2123  0.5137
   10bbb     H8  253   2.428   5.845   0.628  0.0349 -0.6213  0.2708
   10bbb     C5  254   2.640   5.920   0.639  0.3120  0.4382  0.1917
   10bbb     H9  255   2.675   5.858   0.556  1.2209  1.2519 -0.0481
   10bbb    H10  256   2.694   6.015   0.633  0.4155  0.4322  0.9299
   10bbb     C6  257   2.409   6.015   0.274  0.3709  0.6107 -0.1761
   10bbb    H11  258   2.385   6.122   0.274  0.2191  0.7071  3.8710
   10bbb    H12  259   2.464   5.993   0.181  0.2850  4.1623 -1.2282
   10bbb     C7  260   2.679   5.853   0.770  0.2439 -0.8661  0.1717
   10bbb     C8  261   2.265   5.961   0.283  0.4531  0.4161  0.7802
   10bbb     O1  262   2.601   5.768   0.806  0.1186 -0.0178  0.8047
   10bbb     O2  263   2.171   6.024   0.325 -0.1286  0.1729  0.3626
   10bbb     N4  264   2.199   6.187   0.560  0.2210  0.1677 -0.1950
   10bbb    H21  265   2.202   6.138   0.472 -0.1619  1.5922 -1.0388
   11bbb     C1  266   1.362   6.224   1.096  0.8257 -0.4527 -0.3838
   11bbb     H1  267   1.295   6.306   1.125  0.4703 -0.4575 -1.1843
   11bbb     H2  268   1.373   6.153   1.179  0.7617  0.5185  0.4832
   11bbb     C2  269   1.511   6.280   1.075  0.6441  0.4637 -0.0055
   11bbb     H3  270   1.516   6.366   1.007  1.0560 -0.5071 -1.2525
   11bbb     H4  271   1.546   6.295   1.177 -2.8813 -1.0121  1.5850
   11bbb     N1  272   1.315   6.156   0.974 -0.6102 -0.2036  0.1125
   11bbb     C3  273   1.188   6.084   0.986  0.6013  0.1456  0.2919
   11bbb     H5  274   1.145   6.068   0.887  0.7518  2.2347 -0.1513
   11bbb     H6  275   1.117   6.147   1.040 -0.0806  0.4196 -0.8856
   11bbb     C4  276   1.306   6.245   0.852  0.0943 -0.3622 -0.0727
   11bbb     H7  277   1.200   6.263   0.832  0.2882  0.4730 -0.3769
   11bbb     H8  278   1.366   6.337   0.856  1.0604 -0.9997  0.6351
   11bbb     C5  279   1.358   6.157   0.735  0.7038 -0.4108 -0.0047
   11bbb     H9  280   1.467   6.154   0.721  0.6968  0.4241 -0.3118
   11bbb    H10  281   1.322   6.054   0.733  0.0131 -0.2087  1.0667
   11bbb     C6  282   1.204   5.951   1.054  0.3197 -0.2397 -0.1336
   11bbb    H11  283   1.262   5.881   0.992 -0.4095 -0.4088 -0.6391
   11bbb    H12  284   1.252   5.976   1.149 -0.1040  0.0897 -0.0043
   11bbb     C7  285   1.307   6.220   0.609  0.2805  0.1807 -0.6323
   11bbb     C8  286   1.066   5.885   1.076 -0.8611 -0.7662 -0.0896
   11bbb     O1  287   1.377   6.277   0.536  0.1118  0.0776  0.2917
   11bbb     O2  288   1.011   5.814   0.994 -0.3516 -0.2057  0.0309
   11bbb     N4  289   1.603   6.182   1.013 -0.2727  0.0660  0.0926
   11bbb    H21  290   1.585   6.082   1.015  0.6486 -0.0940  1.7719
   12bbb     C1  291   2.215   6.704   1.535 -0.1735 -0.0927 -1.0035
   12bbb     H1  292   2.305   6.647   1.510 -0.6514 -1.2891 -0.1276
   12bbb     H2  293   2.192   6.684   1.641 -2.1231 -0.8038 -1.5098
   12bbb     C2  294   2.098   6.640   1.453 -0.4822  0.5144 -0.7523
   12bbb     H3  295   2.115   6.651   1.345 -3.1854  0.7351 -1.2239
   12bbb     H4  296   2.093   6.532   1.475  0.4819  0.8679  1.5084
   12bbb     N1  297   2.228   6.848   1.529 -0.5753 -0.2703 -0.0618
   12bbb     C3  298   2.322   6.901   1.628 -0.0972 -1.0800 -0.2528
   12bbb     H5  299   2.337   7.009   1.610  0.9971 -1.3607 -1.1776
   12bbb     H6  300   2.420   6.855   1.614  1.7920  2.7661 -0.9211
   12bbb     C4  301   2.268   6.886   1.392  0.0476  0.1351 -0.1085
   12bbb     H7  302   2.374   6.914   1.388 -0.4896  2.2650 -0.6604
   12bbb     H8  303   2.266   6.793   1.334 -0.0554 -2.5579  3.8174
   12bbb     C5  304   2.162   6.980   1.348 -0.2571  0.1128 -0.0674
   12bbb     H9  305   2.069   6.922   1.352  0.8543 -1.6886  0.5498
   12bbb    H10  306   2.159   7.059   1.424  0.0277 -0.3543  0.4388
   12bbb     C6  307   2.265   6.887   1.769  0.5148 -0.4213 -0.4642
   12bbb    H11  308   2.156   6.888   1.770  0.4918 -1.6425 -0.7466
   12bbb    H12  309   2.286   6.787   1.808 -1.4312 -0.5435  0.3909
   12bbb     C7  310   2.181   7.033   1.204  0.0318 -0.2875 -0.3301
   12bbb     C8  311   2.325   6.986   1.870  0.6223  0.4426 -0.9335
   12bbb     O1  312   2.291   7.037   1.153 -0.2001  0.1791 -0.8745
   12bbb     O2  313   2.442   6.997   1.886  0.5310  0.3834 -0.2593
   12bbb     N4  314   1.965   6.696   1.482  0.2869 -1.0889  0.2317
   12bbb    H21  315   1.946   6.764   1.554 -2.2599 -1.0306 -0.3949
   13bbb     C1  316   2.362   6.618   2.067  0.1927 -0.3352 -0.1211
   13bbb     H1  317   2.425   6.655   2.149 -1.6743  0.2287  1.1210
   13bbb     H2  318   2.387   6.683   1.982  1.3247  0.2294  0.6266
   13bbb     C2  319   2.210   6.637   2.099 -0.3243  0.1604  0.7302
   13bbb     H3  320   2.185   6.578   2.188  0.2540 -0.6324  0.3752
   13bbb     H4  321   2.188   6.744   2.116  0.7794  0.7813 -1.3390
   13bbb     N1  322   2.394   6.481   2.021  0.2155 -0.4873  0.6193
   13bbb     C3  323   2.390   6.390   2.138  0.3881 -0.6741  0.7715
   13bbb     H5  324   2.303   6.405   2.202  0.5056  0.8506  0.6315
   13bbb     H6  325   2.480   6.394   2.202  1.2106 -1.8336 -0.2713
   13bbb     C4  326   2.522   6.484   1.946 -0.3777 -0.0250  0.3206
   13bbb     H7  327   2.591   6.563   1.978 -0.1294 -0.0943 -0.0386
   13bbb     H8  328   2.568   6.385   1.950  0.5423  0.3143 -1.2415
   13bbb     C5  329   2.489   6.514   1.796 -0.3158 -0.4552 -0.3648
   13bbb     H9  330   2.403   6.457   1.759 -1.2058 -0.6297  1.8461
   13bbb    H10  331   2.470   6.619   1.771 -0.4731 -0.9109 -2.3489
   13bbb     C6  332   2.380   6.249   2.099 -0.1911 -0.6716  0.1597
   13bbb    H11  333   2.275   6.245   2.066 -0.4293  0.5792  0.7047
   13bbb    H12  334   2.445   6.231   2.013 -0.1505  1.0539 -0.2067
   13bbb     C7  335   2.609   6.476   1.713  0.4574 -0.7943  0.4647
   13bbb     C8  336   2.403   6.149   2.203  1.1412 -0.5633 -0.1583
   13bbb     O1  337   2.634   6.359   1.703 -0.6380 -0.1941 -0.0159
   13bbb     O2  338   2.334   6.159   2.302  0.4117 -0.2207 -0.3972
   13bbb     N4  339   2.126   6.596   1.988 -0.3444 -0.1432 -0.2617
   13bbb    H21  340   2.145   6.506   1.946 -1.5664 -0.5908  0.0909
   14ccc     N1  341   3.065   7.200   0.493 -0.4591 -0.2955  0.0989
   14ccc     H4  342   3.038   7.253   0.575 -0.0279 -1.5413  1.0869
   14ccc     C3  343   3.169   7.250   0.407  0.8152  0.1212 -0.1335
   14ccc     C4  344   3.231   7.374   0.472 -0.2514  0.0069 -0.5432
   14ccc     H5  345   3.132   7.270   0.305 -2.7763  2.0824  1.3609
   14ccc     H6  346   3.246   7.172   0.404  0.7198 -0.0642  1.4894
   14ccc     H7  347   3.160   7.447   0.511 -0.0196 -0.0953  0.0824
   14ccc     H8  348   3.288   7.350   0.562  0.8140 -1.1582 -1.5066
   14ccc     N2  349   3.312   7.468   0.382 -0.9306  0.7987 -0.2436
   14ccc     H9  350   3.260   7.525   0.313  0.6453  1.2406 -1.1121
   14ccc    H10  351   3.383   7.526   0.429 -1.2887  1.9896 -1.1140
   14ccc    H11  352   3.368   7.414   0.314  0.7960  2.9097 -0.5915
   15ccc     N1  353   2.309   6.915   0.205 -0.5859  0.2086 -0.3824
   15ccc     H4  354   2.394   6.863   0.189  1.2110  2.1491  2.0344
   15ccc     C3  355   2.183   6.876   0.147 -0.5034 -0.0620  0.1352
   15ccc     C4  356   2.150   6.969   0.025  0.2260 -0.1934  0.4006
   15ccc     H5  357   2.108   6.891   0.226  1.3043  0.7697  1.7667
   15ccc     H6  358   2.178   6.769   0.123  1.5969 -0.2285  0.3074
   15ccc     H7  359   2.048   6.942  -0.000 -0.8187  2.1117  1.8475
   15ccc     H8  360   2.149   7.072   0.060 -2.6068 -0.5686  1.6126
   15ccc     N2  361   2.246   6.953  -0.102 -0.1626 -0.1679  0.3627
   15ccc     H9  362   2.196   6.994  -0.182 -1.0401 -3.0978 -0.7024
   15ccc    H10  363   2.337   7.001  -0.094 -0.8320  0.8467  3.9460
   15ccc    H11  364   2.252   6.852  -0.121 -0.5848 -0.2352  0.5692
   16ccc     N1  365   2.347   6.231  -0.029  0.5404 -0.7252 -0.8591
   16ccc     H4  366   2.399   6.315  -0.007  1.9580 -1.8985  0.5612
   16ccc     C3  367   2.409   6.128  -0.115  0.6823  0.2806 -0.1045
   16ccc     C4  368   2.345   6.093  -0.248  0.5477 -0.2519 -0.3901
   16ccc     H5  369   2.413   6.036  -0.055 -1.6030  0.6760  0.7356
   16ccc     H6  370   2.514   6.151  -0.137  0.1832  2.5800 -0.3627
   16ccc     H7  371   2.365   6.172  -0.321  1.9281 -0.0185  0.2036
   16ccc     H8  372   2.403   6.010  -0.289  2.7217  0.0729  1.8386
   16ccc     N2  373   2.197   6.059  -0.248  0.1064  0.7841  0.6377
   16ccc     H9  374   2.143   6.146  -0.257  0.2963  0.9086  0.6832
   16ccc    H10  375   2.181   6.000  -0.331 -0.8546 -0.0571  1.3984
   16ccc    H11  376   2.165   6.007  -0.165 -0.0423 -1.6778 -0.8697
   17ccc     N1  377   1.698   6.690   0.088  0.0400  0.0696  0.0130
   17ccc     H4  378   1.763   6.736   0.025  0.2167 -0.2761 -0.0617
   17ccc     C3  379   1.550   6.693   0.063  0.0937  0.0842 -0.6219
   17ccc     C4  380   1.502   6.736  -0.077  0.4627 -0.0601  0.0987
   17ccc     H5  381   1.513   6.775   0.125 -0.1353 -0.5794  0.1311
   17ccc     H6  382   1.502   6.597   0.085 -0.2600 -0.1978 -2.4278
   17ccc     H7  383   1.552   6.668  -0.146 -1.8460 -0.6358 -1.1036
   17ccc     H8  384   1.395   6.719  -0.088  0.1766  0.3462  1.8692
   17ccc     N2  385   1.538   6.884  -0.110  0.4325  0.4029 -0.3262
   17ccc     H9  386   1.479   6.957  -0.066 -0.1005 -0.8498  1.1257
   17ccc    H10  387   1.637   6.888  -0.083  0.1101  0.2624  0.9462
   17ccc    H11  388   1.540   6.912  -0.209  0.2889 -0.2820 -0.5269
   18ccc     N1  389   0.566   5.926   1.859  0.1141 -0.0039 -0.3335
   18ccc     H4  390   0.555   5.981   1.775  1.0443  1.9642  0.7405
   18ccc     C3  391   0.458   5.858   1.937 -0.0938 -0.3751 -0.3618
   18ccc     C4  392   0.407   5.738   1.856 -0.1480  0.2909 -0.1960
   18ccc     H5  393   0.381   5.935   1.952 -1.1893 -1.8237  2.0829
   18ccc     H6  394   0.486   5.824   2.038 -1.0639  1.8020  0.7210
   18ccc     H7  395   0.337   5.688   1.923 -0.8494  2.4532  0.7916
   18ccc     H8  396   0.363   5.772   1.762  0.0814  0.7581 -0.1372
   18ccc     N2  397   0.507   5.641   1.809  0.3043  0.1732  0.0208
   18ccc     H9  398   0.450   5.565   1.769 -1.6163  0.0866  2.6349
   18ccc    H10  399   0.563   5.685   1.735 -0.4673 -0.8357 -1.2046
   18ccc    H11  400   0.566   5.611   1.888  0.4990 -0.1866 -0.2541
   19ccc     N1  401   1.285   5.747   1.553 -0.1466 -0.2670  0.0500
   19ccc     H4  402   1.342   5.764   1.635 -0.4061  0.0196  0.1741
   19ccc     C3  403   1.342   5.678   1.442 -0.5985  0.1792  0.9837
   19ccc     C4  404   1.482   5.606   1.467 -0.3349 -0.1547  0.0990
   19ccc     H5  405   1.354   5.739   1.351  1.5194 -0.2071  0.9364
   19ccc     H6  406   1.272   5.600   1.407  0.1625 -0.1842  0.2134
   19ccc     H7  407   1.538   5.582   1.377 -1.1104  0.4170 -0.5433
   19ccc     H8  408   1.542   5.675   1.526  0.9955 -0.6704 -0.6198
   19ccc     N2  409   1.480   5.479   1.547 -0.3799  0.0142  0.2947
   19ccc     H9  410   1.435   5.489   1.639 -0.3296  1.6846  0.1639
   19ccc    H10  411   1.420   5.415   1.494  0.8227 -0.9229 -0.0031
   19ccc    H11  412   1.570   5.429   1.558 -0.5832 -0.3430  0.3750
   20ccc     N1  413   1.155   6.427   2.197  0.7106 -0.1058 -0.0474
   20ccc     H4  414   1.101   6.401   2.278  1.7299  0.2241  0.7682
   20ccc     C3  415   1.099   6.433   2.060  0.6202  0.7605 -0.4336
   20ccc     C4  416   0.991   6.542   2.046  0.1590  0.1182 -0.5008
   20ccc     H5  417   1.044   6.338   2.052  0.5545  0.8617 -1.2802
   20ccc     H6  418   1.167   6.431   1.975 -0.7316 -0.4760 -1.5414
   20ccc     H7  419   1.052   6.631   2.058 -0.0003  0.1813 -0.1481
   20ccc     H8  420   0.939   6.532   1.950 -1.7193  2.4942  0.1675
   20ccc     N2  421   0.875   6.541   2.150 -0.0493  0.1877 -0.1677
   20ccc     H9  422   0.826   6.451   2.143  0.4868 -0.1783  0.6139
   20ccc    H10  423   0.905   6.557   2.247  0.7505  0.0963 -0.3963
   20ccc    H11  424   0.803   6.608   2.120 -0.5462 -0.5595 -0.6872
   21ccc     N1  425   1.113   6.330   2.866  0.2801  0.6435  0.1959
   21ccc     H4  426   1.118   6.431   2.874  2.7266  0.4598  2.8405
   21ccc     C3  427   1.059   6.261   2.975  0.0812  0.1052 -0.4468
   21ccc     C4  428   0.929   6.326   3.026 -0.2746 -0.2926 -0.9477
   21ccc     H5  429   1.139   6.236   3.046 -0.4942 -3.2115 -0.7714
   21ccc     H6  430   1.032   6.162   2.936  0.0321 -0.2867  0.5512
   21ccc     H7  431   0.937   6.435   3.018  2.6313 -0.0212  2.7338
   21ccc     H8  432   0.847   6.288   2.966 -0.6910 -0.6723 -0.1367
   21ccc     N2  433   0.910   6.304   3.178 -0.5013 -0.4216  0.1143
   21ccc     H9  434   0.818   6.341   3.206 -0.7826 -0.4379 -0.7592
   21ccc    H10  435   0.905   6.202   3.191 -0.2052 -0.3213  1.0942
   21ccc    H11  436   0.991   6.340   3.232 -1.3405 -0.3240  1.3507
   22ccc     N1  437   2.794   5.880   0.827 -0.4676  0.4149  0.2492
   22ccc     H4  438   2.858   5.940   0.777  1.2466 -2.0011 -0.6200
   22ccc     C3  439   2.850   5.801   0.940 -0.3583  0.0924 -0.5569
   22ccc     C4  440   2.959   5.879   1.018  0.3071 -0.2016 -0.3243
   22ccc     H5  441   2.902   5.715   0.896  0.2852  0.4607 -0.5213
   22ccc     H6  442   2.778   5.753   1.008  0.7956  0.3321  0.8612
   22ccc     H7  443   2.997   5.816   1.099  3.4696  0.2552 -1.3112
   22ccc     H8  444   3.046   5.898   0.955  0.7737  0.8780  0.6073
   22ccc     N2  445   2.894   6.007   1.072 -0.1911  0.0596  0.2013
   22ccc     H9  446   2.904   6.093   1.016 -1.1055 -0.4833 -0.8303
   22ccc    H10  447   2.792   5.997   1.078 -0.3087  1.4672  1.0977
   22ccc    H11  448   2.924   6.023   1.169 -1.0022 -0.2633  0.5146
   23ccc     N1  449   2.249   5.834   0.231 -0.5682 -0.0353 -0.6488
   23ccc     H4  450   2.332   5.788   0.195  0.9477  2.4734 -0.5933
   23ccc     C3  451   2.129   5.749   0.230 -0.4201 -0.3706 -0.7472
   23ccc     C4  452   2.040   5.775   0.107 -0.5179 -0.4778 -0.0867
   23ccc     H5  453   2.058   5.771   0.310 -0.7438  0.9713 -1.3721
   23ccc     H6  454   2.161   5.645   0.243  3.0628  0.5261 -1.0968
   23ccc     H7  455   2.097   5.760   0.015 -0.0644 -0.0215  0.1151
   23ccc     H8  456   1.959   5.702   0.104  0.0001 -1.0878  0.4526
   23ccc     N2  457   1.978   5.912   0.096  0.4801 -0.7745  0.0284
   23ccc     H9  458   1.915   5.915   0.015  1.2007 -0.4950 -0.5340
   23ccc    H10  459   1.917   5.938   0.175  0.0800  0.6390 -0.7041
   23ccc    H11  460   2.053   5.982   0.085 -0.4865  0.0146 -2.0611
   24ccc     N1  461   1.178   6.204   0.584 -0.3359 -0.0008 -0.7363
   24ccc     H4  462   1.126   6.130   0.630 -1.9320 -0.6239 -3.3319
   24ccc     C3  463   1.113   6.261   0.463  0.4557  0.4164 -0.4593
   24ccc     C4  464   1.120   6.162   0.340 -0.3365 -0.4955  0.1567
   24ccc     H5  465   1.165   6.353   0.433  0.8150  0.2844 -0.2427
   24ccc     H6  466   1.011   6.294   0.487  0.5720  1.6050 -1.4761
   24ccc     H7  467   1.057   6.208   0.263  0.8670  1.0867  0.0618
   24ccc     H8  468   1.223   6.153   0.305 -0.7559 -2.0301 -0.7484
   24ccc     N2  469   1.069   6.019   0.372  0.2437  0.0513  0.0056
   24ccc     H9  470   1.099   5.957   0.295  0.5637  1.5828 -1.1420
   24ccc    H10  471   1.119   5.975   0.451  0.5760 -0.5448 -0.5308
   24ccc    H11  472   0.967   6.011   0.380  0.1307  2.0456  1.1677
   25ccc     N1  473   1.003   5.927   1.191  0.6253 -0.2221 -0.0704
   25ccc     H4  474   1.058   5.988   1.251  0.2748 -1.2025  1.2884
   25ccc     C3  475   0.874   5.870   1.251  0.3740 -0.8706  0.1864
   25ccc     C4  476   0.816   5.976   1.348 -0.0865 -0.4684 -1.0011
   25ccc     H5  477   0.891   5.769   1.289  0.3022 -1.8058 -2.1123
   25ccc     H6  478   0.814   5.853   1.161 -0.5432 -1.1923  0.8395
   25ccc     H7  479   0.880   5.985   1.435  0.0908 -0.2161 -1.1559
   25ccc     H8  480   0.804   6.072   1.298  1.7195  0.1943 -0.2398
   25ccc     N2  481   0.675   5.943   1.386 -0.1375  0.0806 -0.3609
   25ccc     H9  482   0.619   5.939   1.300  2.1142 -0.8597 -1.8994
   25ccc    H10  483   0.667   5.847   1.424 -4.4596 -0.0860 -1.1713
   25ccc    H11  484   0.644   6.012   1.455 -0.8699 -1.2018  0.6394
   26ccc     N1  485   2.065   7.062   1.142  1.3414  0.0112 -0.8691
   26ccc     H4  486   1.988   7.065   1.209  0.9464 -1.4834 -1.2055
   26ccc     C3  487   2.048   7.101   1.000  0.1093 -0.9971  0.5621
   26ccc     C4  488   1.907   7.079   0.957  0.1472 -0.3037  0.7918
   26ccc     H5  489   2.103   7.035   0.932 -2.5150 -3.6218  0.7494
   26ccc     H6  490   2.071   7.208   0.997  2.7349 -1.5121 -0.4846
   26ccc     H7  491   1.888   6.972   0.949  1.2673 -0.5623  1.3713
   26ccc     H8  492   1.836   7.125   1.026 -1.5448 -1.5979 -0.0184
   26ccc     N2  493   1.884   7.135   0.824 -0.3173 -0.8054 -0.2695
   26ccc     H9  494   1.874   7.237   0.831  2.7715 -0.2899 -1.7034
   26ccc    H10  495   1.959   7.121   0.755  1.1142 -2.3228  1.5029
   26ccc    H11  496   1.793   7.106   0.784 -0.4507  1.0859 -1.4402
   27ccc     N1  497   2.227   7.038   1.955 -0.3295  0.3969 -0.0015
   27ccc     H4  498   2.135   7.036   1.913  0.1697 -0.2809 -1.1367
   27ccc     C3  499   2.257   7.073   2.093  0.3003 -0.0156  0.0172
   27ccc     C4  500   2.130   7.117   2.176  0.3349  0.3211  0.1934
   27ccc     H5  501   2.327   7.156   2.078  1.3981 -1.1273 -1.1744
   27ccc     H6  502   2.308   6.989   2.141  2.1046  0.2624 -1.3226
   27ccc     H7  503   2.160   7.153   2.274 -1.0497  2.0158  0.0261
   27ccc     H8  504   2.100   7.197   2.109  2.2693 -0.7696 -2.1322
   27ccc     N2  505   2.024   7.012   2.197 -0.4974  0.6791 -0.6004
   27ccc     H9  506   1.950   7.057   2.252  0.2128  2.1331 -0.7729
   27ccc    H10  507   1.989   6.983   2.104  1.0562  0.1292 -1.0510
   27ccc    H11  508   2.057   6.931   2.251 -2.3179 -1.0020 -1.8893
   28ccc     N1  509   2.681   6.583   1.661 -0.0728  0.2223  0.0929
   28ccc     H4  510   2.643   6.674   1.683  1.1895  1.7622 -3.4637
   28ccc     C3  511   2.819   6.567   1.609  0.4777 -0.3776  0.2772
   28ccc     C4  512   2.867   6.691   1.533 -0.0833  0.0527 -0.6015
   28ccc     H5  513   2.833   6.475   1.551 -4.0710 -1.3590  0.3428
   28ccc     H6  514   2.890   6.562   1.692  0.6188  0.7087  0.2380
   28ccc     H7  515   2.813   6.781   1.564 -0.9467 -0.0023 -1.8376
   28ccc     H8  516   2.975   6.698   1.540 -0.1554  2.1766 -0.7399
   28ccc     N2  517   2.828   6.681   1.390  0.1523  0.1054 -0.0591
   28ccc     H9  518   2.886   6.745   1.334  1.3945  0.6687  1.7792
   28ccc    H10  519   2.842   6.584   1.358 -1.9706 -0.7378  1.3692
   28ccc    H11  520   2.727   6.690   1.373  0.2447 -0.1409 -0.7835
   29ccc     N1  521   2.500   6.056   2.177  0.4131 -0.3462 -0.4181
   29ccc     H4  522   2.554   6.079   2.095 -1.5148  1.8208 -1.1994
   29ccc     C3  523   2.497   5.924   2.242 -0.4832  0.0591 -0.3261
   29ccc     C4  524   2.582   5.923   2.370  0.1687 -0.2125 -0.3127
   29ccc     H5  525   2.546   5.850   2.178  0.7611 -0.5810  1.2835
   29ccc     H6  526   2.397   5.885   2.266  0.1668 -0.6338  1.4701
   29ccc     H7  527   2.532   5.985   2.445  0.5979 -0.5344  0.2452
   29ccc     H8  528   2.597   5.819   2.399 -1.6502 -0.2755  0.5356
   29ccc     N2  529   2.723   5.966   2.345  1.4299 -0.6422 -0.4072
   29ccc     H9  530   2.775   5.906   2.280  1.9808  0.3136 -0.8697
   29ccc    H10  531   2.724   6.055   2.293 -0.3160 -1.5992 -2.2088
   29ccc    H11  532   2.765   5.975   2.439 -1.1228  0.3062  0.7429
   30SOL     OW  533   4.526   2.558   6.031  0.1304  0.0831 -0.3550
   30SOL    HW1  534   4.514   2.490   5.964 -1.6139  0.0502 -0.0567
   30SOL    HW2  535   4.559   2.510   6.108  2.5580  0.1803 -1.2397
   31SOL     OW  536   2.897   4.940   4.188  0.0534 -0.7329 -0.6542
   31SOL    HW1  537   2.914   4.884   4.112 -1.8861 -1.6373 -0.4865
   31SOL    HW2  538   2.922   4.887   4.264  0.7627 -0.3129 -0.5778
   32SOL     OW  539   0.385   3.610   0.144  0.2185  0.8166 -0.0113
   32SOL    HW1  540   0.455   3.676   0.143  0.2083  0.8203 -0.9194
   32SOL    HW2  541   0.393   3.565   0.060  0.1726 -0.2950  0.5724
   33SOL     OW  542   0.498   2.960   5.515  0.0384 -0.2955 -0.0994
   33SOL    HW1  543   0.560   2.918   5.574  0.9995  2.4350  0.9817
   33SOL    HW2  544   0.413   2.926   5.541  0.7008 -1.0641  1.1560
   34SOL     OW  545   3.192   5.770   1.371  0.1395 -1.1053 -0.1147
   34SOL    HW1  546   3.178   5.839   1.306  1.6688 -0.7552 -0.0996
   34SOL    HW2  547   3.129   5.790   1.440  0.2493  0.0070 -0.3151
   35SOL     OW  548   2.451   5.279   1.094  0.4220  0.2970 -0.3630
   35SOL    HW1  549   2.535   5.299   1.135  0.0764 -0.0837  0.5613
   35SOL    HW2  550   2.386   5.304   1.160 -0.1213 -1.0867 -0.3489
   36SOL     OW  551   3.853   5.738   3.934 -0.4071 -0.1376  0.3145
   36SOL    HW1  552   3.877   5.648   3.956 -1.0546  0.3104  3.3778
   36SOL    HW2  553   3.927   5.790   3.966 -0.4775  0.4948 -0.5262
   37SOL     OW  554   4.419   6.130   0.086 -0.3823 -0.1013 -0.1560
   37SOL    HW1  555   4.465   6.149   0.168 -0.7930  0.5630 -0.0659
   37SOL    HW2  556   4.374   6.212   0.065  1.6839  0.6067 -2.3655
   38SOL     OW  557   4.912   1.591   5.749  0.0935 -0.3132  0.3530
   38SOL    HW1  558   4.959   1.516   5.713  0.3968  0.4523 -0.9045
   38SOL    HW2  559   4.899   1.569   5.841 -0.0031 -1.9818 -0.0298
   39SOL     OW  560   5.081   1.414   0.251 -0.0240 -0.0689  0.2377
   39SOL    HW1  561   5.055   1.481   0.314 -0.9904 -0.5713  0.4038
   39SOL    HW2  562   5.147   1.456   0.196 -1.4536  1.4279 -0.4126
   40SOL     OW  563   4.924   2.852   0.403 -0.0395  0.2017  0.6445
   40SOL    HW1  564   4.921   2.815   0.315 -0.7637  0.5359  0.5220
   40SOL    HW2  565   4.833   2.851   0.433 -0.2401  2.5547  0.3259
   41SOL     OW  566   4.339   5.071   4.824  0.3653 -0.1757 -0.0104
   41SOL    HW1  567   4.332   4.977   4.842  0.6494 -0.2979 -0.5190
   41SOL    HW2  568   4.430   5.084   4.800  0.2781  0.1973 -0.1501
   42SOL     OW  569   1.507   1.518   2.320  0.5171 -0.4873  0.0237
   42SOL    HW1  570   1.426   1.481   2.357  0.9241 -1.1849  0.2347
   42SOL    HW2  571   1.576   1.490   2.380  1.0499 -0.7573 -0.7040
   43SOL     OW  572   1.551   5.719   5.098  0.2236 -0.6155 -0.2547
   43SOL    HW1  573   1.590   5.719   5.010  0.7569  4.4121 -0.2664
   43SOL    HW2  574   1.457   5.721   5.082  0.1225 -3.0667 -0.4538
   44SOL     OW  575   0.861   0.427   0.120 -0.7896  0.2413 -0.3284
   44SOL    HW1  576   0.877   0.515   0.086  0.2211  0.8773  1.6538
   44SOL    HW2  577   0.774   0.432   0.158 -0.8887  0.2791 -0.5596
   45SOL     OW  578   1.214   5.840   4.736  0.3491  0.4367  0.4281
   45SOL    HW1  579   1.179   5.865   4.651  2.7846 -0.6103 -0.9663
   45SOL    HW2  580   1.285   5.903   4.752  0.6751 -0.0965  1.1256
   46SOL     OW  581   0.293   4.598   1.918 -0.4778 -0.1387 -0.0034
   46SOL    HW1  582   0.244   4.595   1.837  0.0117  1.2995 -0.3901
   46SOL    HW2  583   0.382   4.571   1.894  0.5256  3.2384 -0.7323
   47SOL     OW  584   2.604   2.345   1.911 -0.2767  0.5678 -0.0724
   47SOL    HW1  585   2.518   2.329   1.951 -0.7843  0.0618 -1.3275
   47SOL    HW2  586   2.634   2.259   1.882  1.0047  0.6224  0.9825
   48SOL     OW  587   3.853   0.356   4.471 -0.0393 -0.3461 -0.2880
   48SOL    HW1  588   3.873   0.322   4.559 -1.2733  0.5458  0.3633
   48SOL    HW2  589   3.861   0.279   4.414 -0.2289 -1.1654  0.7559
   49SOL     OW  590   4.756   2.538   5.227  0.6983  0.1161  0.0792
   49SOL    HW1  591   4.831   2.507   5.176  0.9510 -1.0985  1.1509
   49SOL    HW2  592   4.755   2.632   5.212  0.5339 -0.2072 -2.4542
   50SOL     OW  593   2.444   1.155   3.705  0.7494 -0.4550  0.0141
   50SOL    HW1  594   2.444   1.063   3.678  0.4831 -0.3090 -0.5130
   50SOL    HW2  595   2.419   1.203   3.625  0.3164  0.0286  0.4308
   51SOL     OW  596   0.838   0.284   4.616  0.4675 -0.1064 -0.6581
   51SOL    HW1  597   0.888   0.356   4.654  0.5254  0.3759 -1.6132
   51SOL    HW2  598   0.795   0.242   4.691 -0.3991  1.5666 -0.1869
   52SOL     OW  599   2.791   3.351   4.801 -0.0650  0.3948 -0.2456
   52SOL    HW1  600   2.814   3.444   4.795  0.9051  0.1376 -0.7163
   52SOL    HW2  601   2.764   3.327   4.712  2.3211 -0.4129 -0.8078
   53SOL     OW  602   0.649   3.047   1.870 -0.3089 -0.0091  0.4605
   53SOL    HW1  603   0.708   2.975   1.848 -0.7243 -0.1146 -0.3306
   53SOL    HW2  604   0.640   3.041   1.965  3.4662  1.9748  1.1623
   54SOL     OW  605   3.930   5.935   3.138 -0.0407 -0.2657 -0.1394
   54SOL    HW1  606   3.995   5.866   3.123  2.1295  1.7385 -0.4337
   54SOL    HW2  607   3.854   5.888   3.174  1.8851 -2.6056  1.2110
   55SOL     OW  608   4.989   2.869   2.195  0.0223 -0.1513 -0.2408
   55SOL    HW1  609   5.081   2.844   2.190  0.1965  0.3869  0.2191
   55SOL    HW2  610   4.984   2.930   2.268 -0.3873  1.1897 -1.3396
   56SOL     OW  611   5.586   3.078   3.034  0.1665  0.2324  0.7320
   56SOL    HW1  612   5.531   3.133   2.979 -0.4087 -0.8255  0.2296
   56SOL    HW2  613   5.674   3.112   3.022 -0.2454  1.4012  0.8803
   57SOL     OW  614   1.096   2.040   5.967  0.7919  0.2689 -0.7210
   57SOL    HW1  615   1.117   2.123   6.010  0.2835  0.3038 -0.5355
   57SOL    HW2  616   1.147   1.975   6.016  2.4183  0.6363 -1.8302
   58SOL     OW  617   5.545   1.788   6.016  0.3150  0.3129  0.1644
   58SOL    HW1  618   5.483   1.848   6.060  2.7649  2.6990  0.6394
   58SOL    HW2  619   5.567   1.833   5.934  0.0578 -1.4111 -0.8896
   59SOL     OW  620   1.316   3.694   2.487 -0.0697 -0.4371  0.4833
   59SOL    HW1  621   1.238   3.737   2.520 -0.0661  0.0878 -0.1650
   59SOL    HW2  622   1.283   3.625   2.429 -0.0761 -1.3463  1.5460
   60SOL     OW  623   0.469   2.906   4.961 -0.1067  0.1293 -0.1037
   60SOL    HW1  624   0.450   2.817   4.929  0.5709 -0.9957  2.3877
   60SOL    HW2  625   0.565   2.909   4.966 -0.1640  0.6645  0.7127
   61SOL     OW  626   2.396   5.354   1.776 -0.2354 -0.4635  0.3105
   61SOL    HW1  627   2.302   5.357   1.757 -0.1944 -2.1646 -0.3122
   61SOL    HW2  628   2.401   5.341   1.871 -0.6107  0.1181  0.4121
   62SOL     OW  629   5.397   3.028   5.592  0.1832 -0.4262 -0.7283
   62SOL    HW1  630   5.378   3.118   5.619 -0.5685 -0.5970 -0.6543
   62SOL    HW2  631   5.446   3.037   5.510  1.5549  0.0741  0.1183
   63SOL     OW  632   6.033   1.561   5.294  0.0208  0.3157 -0.5620
   63SOL    HW1  633   6.097   1.497   5.265  1.2762  0.1502  2.2371
   63SOL    HW2  634   6.061   1.643   5.253  1.0707 -0.0776 -0.6611
   64SOL     OW  635   1.685   0.570   5.085  0.0368  0.6843 -0.0489
   64SOL    HW1  636   1.723   0.644   5.039  0.6351  0.7344  0.5069
   64SOL    HW2  637   1.661   0.508   5.016 -2.2277  2.1566 -0.6835
   65SOL     OW  638   5.043   0.261   5.385  0.2379 -0.5984 -0.1941
   65SOL    HW1  639   5.011   0.225   5.468 -0.8712  2.4318  0.8113
   65SOL    HW2  640   4.967   0.306   5.348  1.5325  0.7780 -1.2754
   66SOL     OW  641   1.678   5.537   0.773 -0.0686  0.0949  0.1464
   66SOL    HW1  642   1.664   5.627   0.744 -0.9148  0.3780  1.3524
   66SOL    HW2  643   1.607   5.487   0.731  1.5834 -0.4456 -2.1928
   67SOL     OW  644   2.066   2.608   0.759 -0.0290  0.1202 -0.1759
   67SOL    HW1  645   2.050   2.674   0.692 -0.5736 -0.5223 -0.6892
   67SOL    HW2  646   2.051   2.525   0.715  0.7590 -0.3583  0.4318
   68SOL     OW  647   0.610   3.657   2.161  0.0640  0.3756 -0.5605
   68SOL    HW1  648   0.624   3.563   2.165  1.9053  0.5554 -1.6355
   68SOL    HW2  649   0.570   3.672   2.075  1.3237  0.7058 -1.1102
   69SOL     OW  650   5.410   5.467   4.056 -0.7205 -0.4718  0.2839
   69SOL    HW1  651   5.450   5.545   4.094 -3.2933 -0.3811  3.1926
   69SOL    HW2  652   5.386   5.493   3.967 -1.7444  2.2062  1.2585
   70SOL     OW  653   0.956   0.866   2.332 -0.2659  0.2295 -0.0783
   70SOL    HW1  654   0.929   0.957   2.317  0.5494  0.5981  0.5859
   70SOL    HW2  655   0.875   0.820   2.355 -0.6314  0.8626 -0.0838
   71SOL     OW  656   3.600   4.284   0.264 -0.2537 -0.6616  0.0893
   71SOL    HW1  657   3.580   4.321   0.350  1.3021 -0.5542  0.4277
   71SOL    HW2  658   3.569   4.193   0.270 -0.3569 -0.5907  0.6881
   72SOL     OW  659   1.272   1.205   1.168  0.3370 -0.4300 -0.1247
   72SOL    HW1  660   1.337   1.193   1.237  0.0714  3.2075  0.9206
   72SOL    HW2  661   1.323   1.217   1.088  1.0357  1.7787  0.5862
   73SOL     OW  662   0.389   2.492   3.552 -0.6041  0.1220 -0.5826
   73SOL    HW1  663   0.337   2.540   3.617 -0.4588 -0.6722  0.1445
   73SOL    HW2  664   0.331   2.421   3.524 -0.1226 -0.4555 -0.1590
   74SOL     OW  665   5.210   3.784   0.939 -0.0427  0.5745 -0.6491
   74SOL    HW1  666   5.201   3.842   1.014  0.8849  0.3461 -0.3464
   74SOL    HW2  667   5.122   3.750   0.923  0.3711 -3.7631  3.8438
   75SOL     OW  668   4.815   4.098   1.893  0.7809 -0.1694  0.1853
   75SOL    HW1  669   4.803   4.155   1.817 -1.5222 -0.5138  0.1959
   75SOL    HW2  670   4.909   4.080   1.895  1.0748  0.7392 -1.9188
   76SOL     OW  671   4.829   0.034   3.007  0.3108  0.2806 -0.0017
   76SOL    HW1  672   4.890  -0.034   2.978  0.9342  1.4473 -1.5740
   76SOL    HW2  673   4.795   0.001   3.090  0.5655 -1.9438 -0.6990
   77SOL     OW  674   4.021   4.862   2.985 -0.4681  0.2277  0.7763
   77SOL    HW1  675   4.112   4.889   2.992  0.0368 -1.6123  2.0547
   77SOL    HW2  676   4.007   4.847   2.892  0.3389  1.1371  0.4987
   78SOL     OW  677   3.424   4.561   5.191  0.7495  0.1714 -0.5331
   78SOL    HW1  678   3.450   4.531   5.278  3.3898 -2.8720 -2.1681
   78SOL    HW2  679   3.491   4.625   5.167  2.1025 -1.5658 -1.5748
   79SOL     OW  680   1.730   0.225   0.007 -0.1021  0.7722 -0.8170
   79SOL    HW1  681   1.715   0.140   0.048  0.6965  0.5899 -0.8814
   79SOL    HW2  682   1.649   0.244  -0.041 -0.4828  0.2991 -0.3642
   80SOL     OW  683   2.892   2.526   0.106 -0.6524  0.6029  0.4555
   80SOL    HW1  684   2.827   2.459   0.084  1.9879 -1.5587 -1.4135
   80SOL    HW2  685   2.840   2.601   0.134 -3.8538 -1.6545  1.1468
   81SOL     OW  686   2.916   5.271   1.986  0.3995 -0.0586  0.3352
   81SOL    HW1  687   2.885   5.314   2.066 -1.0459 -0.1749 -0.1399
   81SOL    HW2  688   2.911   5.178   2.005  0.6422 -0.0770  0.3131
   82SOL     OW  689   4.840   4.897   2.625 -0.3354 -0.5294 -0.4456
   82SOL    HW1  690   4.928   4.917   2.657 -1.6780  2.0042  2.1314
   82SOL    HW2  691   4.829   4.954   2.549  0.5087 -1.4947 -1.3137
   83SOL     OW  692   4.156   1.571   5.662  0.1580  0.3555  0.2289
   83SOL    HW1  693   4.147   1.508   5.591  0.7655 -0.7558  1.0963
   83SOL    HW2  694   4.210   1.642   5.626 -0.2627  0.2286 -0.6580
   84SOL     OW  695   1.746   5.451   2.899 -0.2773 -0.2952 -0.0406
   84SOL    HW1  696   1.669   5.475   2.951 -1.3346 -1.2562 -1.1010
   84SOL    HW2  697   1.788   5.382   2.950  0.1253  0.4979  0.7320
   85SOL     OW  698   0.606   0.846   6.018  0.4389  0.5346  0.1611
   85SOL    HW1  699   0.598   0.843   5.923 -1.1030  1.0237  0.2525
   85SOL    HW2  700   0.538   0.907   6.046 -0.1775 -0.7802  1.6728
   86SOL     OW  701   3.074   0.122   2.361  0.0935  0.3804  0.8644
   86SOL    HW1  702   3.042   0.203   2.399 -0.4811  2.0492 -2.6958
   86SOL    HW2  703   3.164   0.141   2.333 -0.4415  0.2945 -1.0786
   87SOL     OW  704   5.500   4.341   3.125  0.2413  0.1147  0.0849
   87SOL    HW1  705   5.441   4.389   3.181 -0.2220 -0.8226  0.4248
   87SOL    HW2  706   5.538   4.407   3.067 -0.1893  0.9059  0.6907
   88SOL     OW  707   3.430   5.510   3.472  0.0330 -0.5915 -0.4603
   88SOL    HW1  708   3.500   5.445   3.465  0.7142  0.1794 -0.9115
   88SOL    HW2  709   3.446   5.555   3.554  1.0001  0.6167 -1.2698
   89SOL     OW  710   0.977   2.412   0.187 -0.1237  0.5063 -0.4422
   89SOL    HW1  711   0.944   2.349   0.251 -0.5549  1.0012 -0.1673
   89SOL    HW2  712   1.055   2.449   0.228  0.2218  0.0389 -0.6730
   90SOL     OW  713   0.921   4.794   5.340  0.1173  0.5441 -0.1504
   90SOL    HW1  714   0.855   4.774   5.407 -0.6615 -0.6349 -1.2341
   90SOL    HW2  715   0.879   4.774   5.257  1.9773 -0.6478 -0.8677
   91SOL     OW  716   4.462   5.044   2.743 -0.4336  0.2111  0.4589
   91SOL    HW1  717   4.456   5.112   2.810 -2.0871 -0.6629  1.2671
   91SOL    HW2  718   4.505   4.971   2.787  0.3021  0.3158 -0.0660
   92SOL     OW  719   4.065   2.689   0.391  0.1025 -0.1944 -0.2819
   92SOL    HW1  720   4.080   2.748   0.465  0.4995  1.2505 -1.4709
   92SOL    HW2  721   4.152   2.660   0.366 -0.1524 -2.5147  1.1715
   93SOL     OW  722   4.187   0.420   0.453 -0.1767 -0.2300 -0.2075
   93SOL    HW1  723   4.251   0.373   0.400 -0.4917 -0.2766 -0.5479
   93SOL    HW2  724   4.217   0.407   0.543 -0.5983 -1.6402 -0.2332
   94SOL     OW  725   4.527   5.672   5.794 -0.0709 -0.4913  0.0578
   94SOL    HW1  726   4.538   5.745   5.734  0.4441 -1.1008 -0.6086
   94SOL    HW2  727   4.517   5.713   5.880  1.4511  0.3448 -0.1211
   95SOL     OW  728   4.991   0.456   4.637 -0.3612  0.2859  0.1364
   95SOL    HW1  729   5.072   0.496   4.606 -1.6432 -0.1732 -4.5146
   95SOL    HW2  730   5.017   0.368   4.666  0.9698  0.6484  0.1134
   96SOL     OW  731   1.828   1.702   0.220 -0.1369  0.5405 -0.4517
   96SOL    HW1  732   1.735   1.715   0.200 -0.1168 -0.1763 -1.0382
   96SOL    HW2  733   1.850   1.774   0.280 -1.1422  0.5390 -0.0671
   97SOL     OW  734   0.921   0.222   5.170  0.2377  0.3640 -0.4222
   97SOL    HW1  735   1.006   0.204   5.209 -0.9875 -1.3443  1.6400
   97SOL    HW2  736   0.907   0.316   5.185  1.0412  0.3132  0.7642
   98SOL     OW  737   0.161   4.348   0.313 -0.3778 -0.1645 -0.2260
   98SOL    HW1  738   0.209   4.394   0.381  1.4155  1.0858 -2.2000
   98SOL    HW2  739   0.113   4.416   0.266 -0.0782 -0.6957 -1.3512
   99SOL     OW  740   3.707   0.996   4.241 -0.3546 -0.4086  0.1244
   99SOL    HW1  741   3.676   1.043   4.164  1.4714 -0.4990 -0.7183
   99SOL    HW2  742   3.723   1.065   4.306 -1.6812 -0.3121  0.3638
  100SOL     OW  743   2.653   1.858   5.479  0.3130  0.5204 -0.0118
  100SOL    HW1  744   2.660   1.800   5.555  1.4174  1.5740  0.7412
  100SOL    HW2  745   2.725   1.831   5.422 -0.3763 -0.1196 -0.5932
  101SOL     OW  746   2.525   1.325   0.041 -0.1099 -0.4086 -0.2289
  101SOL    HW1  747   2.588   1.396   0.053 -2.1740  1.7512 -1.3240
  101SOL    HW2  748   2.467   1.330   0.117 -1.5660  0.6069 -1.3386
  102SOL     OW  749   4.072   3.778   1.342 -0.0345  0.2235 -0.4223
  102SOL    HW1  750   4.022   3.719   1.397  0.3385  1.4367  1.3063
  102SOL    HW2  751   4.095   3.726   1.265  0.7779 -2.0815  1.2675
  103SOL     OW  752   0.162   0.704   1.906  0.4574  0.1942 -0.2522
  103SOL    HW1  753   0.195   0.774   1.963  0.6207  0.4601 -0.6763
  103SOL    HW2  754   0.108   0.650   1.964 -1.9732  2.2128 -0.5082
  104SOL     OW  755   2.143   6.082   4.851  0.1003 -0.5764 -0.4215
  104SOL    HW1  756   2.154   6.159   4.795  0.2124 -0.4283 -0.1932
  104SOL    HW2  757   2.216   6.024   4.827  0.2346 -0.4484 -0.3213
  105SOL     OW  758   0.935   2.177   4.013  0.1304 -0.5932  0.0954
  105SOL    HW1  759   0.888   2.109   4.060 -2.6747 -0.0916 -1.7749
  105SOL    HW2  760   0.985   2.130   3.946  0.8959 -0.9827  0.9081
  106SOL     OW  761   2.448   3.598   3.407  0.2296 -0.1017 -0.0084
  106SOL    HW1  762   2.535   3.593   3.366  1.0225  0.0292  1.5940
  106SOL    HW2  763   2.457   3.550   3.489 -0.5555  1.8669  1.2852
  107SOL     OW  764   5.224   5.226   4.557 -1.2338 -0.0721  0.2561
  107SOL    HW1  765   5.276   5.224   4.637  0.5397 -0.4396 -0.8369
  107SOL    HW2  766   5.213   5.134   4.532 -0.8068  0.0594 -0.4760
  108SOL     OW  767   1.845   0.271   4.479  0.6597 -0.3363  0.1696
  108SOL    HW1  768   1.850   0.260   4.574 -2.4347 -4.4802  0.1049
  108SOL    HW2  769   1.919   0.220   4.445  0.8537 -0.1361  0.2824
  109SOL     OW  770   2.238   4.265   3.943 -0.0532  0.4145 -0.4217
  109SOL    HW1  771   2.230   4.337   3.880  0.9865 -0.0205 -1.0762
  109SOL    HW2  772   2.302   4.206   3.904  0.0015 -0.2783  0.6689
  110SOL     OW  773   3.819   0.364   5.558 -0.2579  0.4880  0.2209
  110SOL    HW1  774   3.844   0.342   5.468  0.3351 -2.9598  1.0860
  110SOL    HW2  775   3.728   0.335   5.565 -0.1281  0.2239  0.8573
  111SOL     OW  776   5.381   0.977   1.890  0.4626  0.2324 -0.2691
  111SOL    HW1  777   5.342   0.893   1.914 -0.0182  0.4079 -0.4139
  111SOL    HW2  778   5.369   0.983   1.796 -0.4173  0.9081 -0.1253
  112SOL     OW  779   4.011   3.939   4.421  0.3966  0.3701  0.4571
  112SOL    HW1  780   3.982   3.848   4.427 -0.5714  0.6743  0.5020
  112SOL    HW2  781   4.060   3.955   4.502 -0.5324  0.2740  1.0420
  113SOL     OW  782   0.096   5.760   3.081  0.1229  0.4017 -0.2381
  113SOL    HW1  783   0.130   5.711   3.156  1.7605  0.7131 -0.7494
  113SOL    HW2  784   0.045   5.696   3.031  0.3859 -0.2068  0.2643
  114SOL     OW  785   2.790   2.625   5.533 -0.0114 -0.4465 -0.3015
  114SOL    HW1  786   2.870   2.573   5.544  0.2201 -0.0054  0.1209
  114SOL    HW2  787   2.720   2.565   5.559  0.4148  0.1258  2.4862
  115SOL     OW  788   2.136   1.552   1.443  0.0095  0.6846  0.2663
  115SOL    HW1  789   2.060   1.546   1.385  0.6421 -4.0968 -0.5006
  115SOL    HW2  790   2.209   1.574   1.385 -0.1938  1.5198  0.3186
  116SOL     OW  791   1.370   5.186   4.790 -0.3251  0.3864  0.1049
  116SOL    HW1  792   1.327   5.175   4.875  1.1938 -0.0692  0.8393
  116SOL    HW2  793   1.313   5.139   4.729 -0.9598 -0.0768  1.0210
  117SOL     OW  794   4.978   3.854   6.042  0.2436 -0.0365  0.4771
  117SOL    HW1  795   4.987   3.806   6.124  4.2844  0.0291  0.2628
  117SOL    HW2  796   4.952   3.943   6.068  0.6415 -0.2409  1.6011
  118SOL     OW  797   4.772   2.924   3.007 -0.1547  0.0766 -0.6263
  118SOL    HW1  798   4.782   2.877   2.924 -0.8210  0.6386 -1.0306
  118SOL    HW2  799   4.799   3.014   2.987  2.4977 -0.3969  0.4930
  119SOL     OW  800   5.258   4.859   0.397 -0.0275 -0.5579  0.7360
  119SOL    HW1  801   5.280   4.883   0.487 -1.8920  2.0537  0.5918
  119SOL    HW2  802   5.168   4.827   0.402 -0.2467 -0.1229 -0.2348
  120SOL     OW  803   5.044   0.313   2.315  0.0434 -0.2180  0.3969
  120SOL    HW1  804   4.968   0.315   2.373  1.3480  0.3656  2.1805
  120SOL    HW2  805   5.039   0.395   2.265 -0.4313 -0.1303  0.5856
  121SOL     OW  806   0.064   4.306   5.258  0.0443  0.2845 -0.4532
  121SOL    HW1  807   0.071   4.229   5.315 -1.8100  0.3852 -0.0360
  121SOL    HW2  808   0.151   4.346   5.262  0.1890 -0.0976  1.7577
  122SOL     OW  809   3.464   1.450   3.498  0.1429 -0.0646 -0.0966
  122SOL    HW1  810   3.475   1.357   3.478 -0.4248 -0.6126  1.9088
  122SOL    HW2  811   3.542   1.474   3.547 -0.1794  0.2362  0.2786
  123SOL     OW  812   3.524   3.432   1.374 -1.1072 -0.1528  0.2321
  123SOL    HW1  813   3.528   3.367   1.304 -0.7259 -0.3826  0.4605
  123SOL    HW2  814   3.611   3.428   1.415 -1.3307 -0.0394  0.7278
  124SOL     OW  815   5.075   2.880   1.674  0.0624  0.3165  0.0563
  124SOL    HW1  816   5.055   2.820   1.603  1.6606 -0.5678  0.3292
  124SOL    HW2  817   5.116   2.956   1.632 -1.0689  0.8304 -0.1763
  125SOL     OW  818   4.883   0.286   1.526  0.2915 -0.8076  0.5267
  125SOL    HW1  819   4.971   0.291   1.488  0.0822  0.0667  0.1353
  125SOL    HW2  820   4.898   0.266   1.619  1.0089  1.1551  0.8759
  126SOL     OW  821   4.460   5.952   2.754  0.1377 -0.2851  0.9601
  126SOL    HW1  822   4.525   6.021   2.740 -1.3749  1.2012  0.9148
  126SOL    HW2  823   4.455   5.907   2.669  1.2793 -0.6055  1.0467
  127SOL     OW  824   2.080   4.785   3.747 -0.3696 -0.3802  0.1432
  127SOL    HW1  825   2.040   4.799   3.833 -0.8577  0.8822 -0.2664
  127SOL    HW2  826   2.084   4.872   3.708  2.8369 -0.4189  0.1666
  128SOL     OW  827   2.427   5.687   3.834  0.0336  0.3004  0.0192
  128SOL    HW1  828   2.471   5.661   3.915  0.4086  0.2223 -0.2079
  128SOL    HW2  829   2.498   5.705   3.773 -0.2486 -0.7262 -0.6421
  129SOL     OW  830   5.306   4.669   0.669 -0.4809  0.1730 -0.1162
  129SOL    HW1  831   5.221   4.655   0.628  0.1243 -1.6230 -0.8241
  129SOL    HW2  832   5.370   4.642   0.603  0.5806 -0.4669  1.1237
  130SOL     OW  833   5.410   0.747   5.089  0.0509 -0.0427  0.3343
  130SOL    HW1  834   5.357   0.690   5.033  1.4458 -0.6494 -0.4174
  130SOL    HW2  835   5.495   0.703   5.094 -0.2152 -0.4660  3.6228
  131SOL     OW  836   3.130   1.898   1.192 -0.3938 -0.7300  0.4727
  131SOL    HW1  837   3.220   1.891   1.159 -0.0483 -0.2232  1.2706
  131SOL    HW2  838   3.077   1.851   1.128  0.4101 -0.8125 -0.1443
  132SOL     OW  839   2.580   6.048   3.397  0.5402 -0.4823  0.4386
  132SOL    HW1  840   2.548   6.042   3.307 -0.7090  0.2340  0.7980
  132SOL    HW2  841   2.657   6.105   3.391  0.7443 -0.8231 -0.2374
  133SOL     OW  842   6.093   3.523   3.124 -0.0489  0.0894 -0.3862
  133SOL    HW1  843   6.041   3.484   3.195 -1.0035  2.0783  0.1069
  133SOL    HW2  844   6.150   3.585   3.169  1.5827 -0.8445 -1.1057
  134SOL     OW  845   3.688   5.576   2.726  0.4844  0.0591 -0.0165
  134SOL    HW1  846   3.611   5.598   2.779  1.9829  0.5590  2.0740
  134SOL    HW2  847   3.759   5.626   2.765  2.0464 -0.9781 -1.3994
  135SOL     OW  848   5.365   2.425   5.081 -0.1524 -0.2063 -0.4610
  135SOL    HW1  849   5.304   2.422   5.006  0.4057 -0.0170 -0.9269
  135SOL    HW2  850   5.368   2.334   5.112 -3.2040  0.2619  1.6681
  136SOL     OW  851   1.632   4.706   2.107  0.2734  0.6295  0.2627
  136SOL    HW1  852   1.689   4.719   2.182 -1.0262  1.9097  1.0767
  136SOL    HW2  853   1.604   4.794   2.082 -0.9233  0.0751 -0.4456
  137SOL     OW  854   3.197   0.276   4.741  0.1605 -0.7061 -0.5150
  137SOL    HW1  855   3.290   0.259   4.757 -0.3915 -2.7071  1.0903
  137SOL    HW2  856   3.170   0.332   4.814  0.0850 -0.2518 -0.8930
  138SOL     OW  857   2.801   0.712   5.444  0.0955  0.3524 -0.7838
  138SOL    HW1  858   2.761   0.792   5.409  1.0256  0.6372 -1.2389
  138SOL    HW2  859   2.841   0.739   5.526  1.1343  0.5745 -1.3416
  139SOL     OW  860   0.877   3.002   5.748  0.3658 -0.1192 -0.4495
  139SOL    HW1  861   0.861   3.079   5.802  1.6433 -0.7704  0.9253
  139SOL    HW2  862   0.973   2.995   5.743  0.3347 -2.4061  0.6929
  140SOL     OW  863   3.590   4.418   5.881  0.0071  0.1462  0.0366
  140SOL    HW1  864   3.500   4.390   5.866 -0.1951  0.0880  1.2488
  140SOL    HW2  865   3.608   4.395   5.973  0.4006  2.4104  0.5940
  141SOL     OW  866   5.571   0.187   2.394 -0.3090  0.0815  0.2921
  141SOL    HW1  867   5.496   0.180   2.453  0.2670  0.8196  1.1444
  141SOL    HW2  868   5.538   0.235   2.319 -1.1233 -1.1083 -0.1286
  142SOL     OW  869   0.432   2.649   4.799 -0.0736 -0.1746 -0.6552
  142SOL    HW1  870   0.490   2.674   4.727 -0.3008 -2.8103 -1.9024
  142SOL    HW2  871   0.349   2.627   4.756 -0.4943 -0.9483  0.5040
  143SOL     OW  872   1.206   3.588   5.005 -0.0798 -0.0106 -0.2932
  143SOL    HW1  873   1.238   3.623   5.088  1.4996 -2.0490  0.0326
  143SOL    HW2  874   1.189   3.666   4.952  0.5754  1.2969  1.3066
  144SOL     OW  875   4.316   1.096   4.768  0.1394  0.1946  0.1799
  144SOL    HW1  876   4.298   1.162   4.835 -0.3982  0.7675 -0.5107
  144SOL    HW2  877   4.251   1.113   4.699  0.8939 -0.1669 -0.6377
  145SOL     OW  878   3.735   3.084   1.213  0.0838  0.5154 -0.0993
  145SOL    HW1  879   3.763   3.158   1.159 -0.0039  0.4110 -0.2909
  145SOL    HW2  880   3.640   3.093   1.219  0.1188  0.6733  0.2581
  146SOL     OW  881   0.857   5.348   3.151 -0.1890  0.1385  0.2360
  146SOL    HW1  882   0.837   5.257   3.173  4.0301 -0.8749  0.6487
  146SOL    HW2  883   0.889   5.345   3.061 -0.5000  1.3662  0.0559
  147SOL     OW  884   1.467   2.906   2.572  0.0084 -0.1922 -0.0111
  147SOL    HW1  885   1.383   2.953   2.579 -0.0673 -0.2608 -0.4503
  147SOL    HW2  886   1.481   2.869   2.660 -0.0770  0.4014  0.2547
  148SOL     OW  887   3.660   3.918   0.886 -0.1714  0.2499 -0.8685
  148SOL    HW1  888   3.691   4.000   0.926  1.2014 -0.5768 -0.1557
  148SOL    HW2  889   3.685   3.925   0.794 -0.3401  0.7585 -0.8784
  149SOL     OW  890   5.740   2.468   0.080  0.4008  0.2011  0.1095
  149SOL    HW1  891   5.749   2.373   0.078  0.5128  0.2020  0.4247
  149SOL    HW2  892   5.784   2.498   0.001  2.3640  0.1280  1.1106
  150SOL     OW  893   4.753   1.517   4.836  0.0602 -0.2014 -0.3341
  150SOL    HW1  894   4.786   1.441   4.885  1.1374  0.1714 -0.4606
  150SOL    HW2  895   4.829   1.551   4.790 -0.0948  1.7819  0.7905
  151SOL     OW  896   4.901   4.073   3.414 -0.1335 -0.2223  0.1463
  151SOL    HW1  897   4.985   4.063   3.459  1.0383 -0.2465 -1.9291
  151SOL    HW2  898   4.869   3.984   3.402  0.7242 -0.3844 -1.1075
  152SOL     OW  899   4.437   2.888   2.932 -0.2387  0.3802 -0.1508
  152SOL    HW1  900   4.431   2.978   2.901 -0.2748  1.4081  2.6018
  152SOL    HW2  901   4.493   2.893   3.009  2.5092 -2.5143 -1.7502
  153SOL     OW  902   5.146   1.691   3.956 -0.3511  0.0299  0.3285
  153SOL    HW1  903   5.089   1.711   3.882 -0.8328 -1.2014  0.3323
  153SOL    HW2  904   5.148   1.595   3.959 -0.0810  0.0568  1.7159
  154SOL     OW  905   2.437   4.691   2.158 -0.0199 -0.1453 -0.1660
  154SOL    HW1  906   2.349   4.677   2.193  0.3459 -1.8243  0.1515
  154SOL    HW2  907   2.487   4.614   2.186  2.1198  1.6785  1.4225
  155SOL     OW  908   3.699   2.466   2.863  0.0941 -0.0691  0.7195
  155SOL    HW1  909   3.747   2.393   2.902  0.2455  0.1815  1.0075
  155SOL    HW2  910   3.708   2.537   2.926  2.0795  1.0079 -0.6586
  156SOL     OW  911   5.950   5.849   5.780  0.2539 -0.0634 -0.2663
  156SOL    HW1  912   5.858   5.824   5.786  0.4384 -0.4956  1.1135
  156SOL    HW2  913   5.991   5.807   5.856  1.4190  0.8376 -0.3731
  157SOL     OW  914   3.714   5.614   4.301 -0.0063  0.2855 -0.2966
  157SOL    HW1  915   3.694   5.570   4.218 -0.0580 -0.6605  0.1917
  157SOL    HW2  916   3.720   5.542   4.364 -0.3793  1.0191  0.5955
  158SOL     OW  917   5.952   0.826   1.346 -0.0617  0.1035  0.1489
  158SOL    HW1  918   5.952   0.918   1.374 -0.6197 -0.2937  1.5521
  158SOL    HW2  919   6.035   0.815   1.301  0.3117  1.1418  0.5436
  159SOL     OW  920   2.297   0.541   3.562 -0.4138  0.5161  0.5347
  159SOL    HW1  921   2.229   0.509   3.621 -1.6347 -0.8494 -1.4902
  159SOL    HW2  922   2.278   0.635   3.552 -1.4261  0.3409  0.7234
  160SOL     OW  923   1.960   2.499   1.866 -0.0371 -0.0770  0.8603
  160SOL    HW1  924   1.980   2.578   1.917  1.8479 -0.7141  1.1741
  160SOL    HW2  925   1.873   2.516   1.830 -0.1212  1.7006  1.7631
  161SOL     OW  926   3.350   0.310   1.044 -0.4044  0.4382  0.3328
  161SOL    HW1  927   3.301   0.299   1.125 -1.2124  1.5731  0.0237
  161SOL    HW2  928   3.433   0.349   1.071 -0.5595  0.5572  0.6464
  162SOL     OW  929   1.001   5.277   3.741  0.0356  0.2961  0.5012
  162SOL    HW1  930   1.071   5.221   3.707 -0.2384 -0.2849  0.8893
  162SOL    HW2  931   0.996   5.349   3.677  1.3663  0.6590  0.7682
  163SOL     OW  932   2.969   5.563   2.344 -0.1095 -0.1898 -0.1990
  163SOL    HW1  933   3.048   5.538   2.297  0.8546  1.2496  0.5967
  163SOL    HW2  934   2.971   5.512   2.425  0.5039  0.5076  0.2386
  164SOL     OW  935   2.165   2.984   5.160 -0.3470  0.0393 -0.5166
  164SOL    HW1  936   2.160   3.021   5.248 -0.5238  0.1308 -0.5645
  164SOL    HW2  937   2.140   2.892   5.171 -0.2754  0.0265 -0.4572
  165SOL     OW  938   0.842   5.630   1.905 -0.5477 -0.8132  0.5963
  165SOL    HW1  939   0.831   5.720   1.936  0.4546 -0.4973  0.0856
  165SOL    HW2  940   0.788   5.577   1.964 -2.7134  0.3112 -0.2566
  166SOL     OW  941   5.337   4.680   4.754  0.4918 -0.1933  0.4523
  166SOL    HW1  942   5.284   4.616   4.800  0.8605  0.1912  1.4237
  166SOL    HW2  943   5.397   4.628   4.700 -0.4350 -0.6333 -0.1901
  167SOL     OW  944   2.674   5.784   3.602  0.2145  0.7234 -0.1085
  167SOL    HW1  945   2.710   5.870   3.621 -2.0923  1.2177  2.7206
  167SOL    HW2  946   2.587   5.801   3.568 -0.8493 -0.3892  1.8544
  168SOL     OW  947   3.906   5.660   2.842 -0.1683  0.7739  0.3912
  168SOL    HW1  948   3.930   5.569   2.824 -0.4034  0.8662 -0.4162
  168SOL    HW2  949   3.977   5.711   2.804 -1.4326  1.0373 -1.7664
  169SOL     OW  950   4.565   0.427   1.212 -0.1497  0.5042  0.3187
  169SOL    HW1  951   4.545   0.397   1.123 -1.7833 -1.3908  1.2492
  169SOL    HW2  952   4.607   0.352   1.254 -0.2902  1.0403  1.4426
  170SOL     OW  953   4.290   3.643   0.131  0.0518 -0.0323 -0.4201
  170SOL    HW1  954   4.210   3.621   0.179 -0.1140  0.4137 -0.4878
  170SOL    HW2  955   4.258   3.677   0.047  0.2751  1.1773 -0.0265
  171SOL     OW  956   5.368   2.642   3.526 -0.0428 -0.2309 -0.3233
  171SOL    HW1  957   5.356   2.586   3.602 -1.7875 -0.5524 -0.7943
  171SOL    HW2  958   5.419   2.588   3.465  1.4603  0.0694  0.6070
  172SOL     OW  959   5.305   1.921   2.332  0.5282 -0.3842  0.2262
  172SOL    HW1  960   5.361   1.900   2.407 -2.0401 -2.2336  1.7635
  172SOL    HW2  961   5.317   1.847   2.272 -0.8255 -1.2379  0.9598
  173SOL     OW  962   1.864   4.327   5.445 -0.5673 -0.1438 -0.3584
  173SOL    HW1  963   1.934   4.352   5.384 -0.3771  0.5719  0.1417
  173SOL    HW2  964   1.869   4.232   5.449 -0.0273 -0.1438 -0.8060
  174SOL     OW  965   5.836   0.241   0.994 -0.6121  0.2910  0.2397
  174SOL    HW1  966   5.765   0.206   1.048 -1.2046 -0.0315 -0.7105
  174SOL    HW2  967   5.812   0.215   0.905  0.0207  1.3435 -0.2480
  175SOL     OW  968   0.754   5.126   4.788  1.1615  0.0327 -0.2094
  175SOL    HW1  969   0.730   5.110   4.697 -1.2782  1.3013  0.1272
  175SOL    HW2  970   0.699   5.066   4.838 -0.5593  2.1252  0.5517
  176SOL     OW  971   5.865   3.286   3.264 -0.2676  0.7377 -0.1145
  176SOL    HW1  972   5.797   3.351   3.247  0.2019  1.4140  0.5109
  176SOL    HW2  973   5.848   3.216   3.202 -0.1162  1.9618 -1.6018
  177SOL     OW  974   4.209   3.758   6.026 -0.2738  0.2969  0.6915
  177SOL    HW1  975   4.201   3.671   5.987  1.1419  1.2156 -1.9102
  177SOL    HW2  976   4.125   3.800   6.010 -0.4606 -0.0816  0.6587
  178SOL     OW  977   6.101   0.861   4.346  0.1273  0.2675  0.1276
  178SOL    HW1  978   6.049   0.826   4.419  0.0012  0.5646  0.1825
  178SOL    HW2  979   6.054   0.835   4.268  0.5554 -0.5344  0.1211
  179SOL     OW  980   4.567   2.285   0.354  0.6634 -0.0662 -0.6071
  179SOL    HW1  981   4.617   2.218   0.399 -2.9281 -1.5587  1.5637
  179SOL    HW2  982   4.536   2.343   0.423 -0.3745  0.9584 -1.8686
  180SOL     OW  983   5.352   4.919   2.017  0.5774 -0.1102  0.3861
  180SOL    HW1  984   5.301   4.861   2.073 -0.5103 -2.7303 -2.9905
  180SOL    HW2  985   5.287   4.973   1.973  1.0099 -0.7211 -1.0580
  181SOL     OW  986   0.965   4.003   6.085  0.0809 -0.0367 -0.1251
  181SOL    HW1  987   0.949   3.953   6.165  1.3949  0.5892  0.5535
  181SOL    HW2  988   1.011   3.943   6.028  0.3335 -0.0753  0.1158
  182SOL     OW  989   1.614   2.519   4.471 -0.3562  0.3639 -0.5275
  182SOL    HW1  990   1.640   2.593   4.526 -0.5545  0.3686 -0.4421
  182SOL    HW2  991   1.697   2.479   4.445 -0.2730 -0.0149  0.2914
  183SOL     OW  992   1.771   5.679   5.810 -0.7250 -0.0065  0.2840
  183SOL    HW1  993   1.827   5.703   5.737 -1.6182  1.2006 -0.0430
  183SOL    HW2  994   1.782   5.584   5.819  1.7128  0.2401  0.5723
  184SOL     OW  995   6.092   1.003   1.925 -0.5680  0.1211  0.0054
  184SOL    HW1  996   6.086   0.936   1.992 -0.0676 -0.1561 -0.2199
  184SOL    HW2  997   6.103   0.954   1.843 -0.6553  0.4649 -0.2152
  185SOL     OW  998   2.390   4.851   2.844  1.2117 -1.0585  0.3850
  185SOL    HW1  999   2.367   4.760   2.823 -0.8250 -0.8128  1.3368
  185SOL    HW2 1000   2.361   4.863   2.934  0.5289  0.8240 -0.0414
  186SOL     OW 1001   5.355   3.071   4.824 -0.0675  0.0630 -0.3134
  186SOL    HW1 1002   5.300   3.144   4.855  1.0938  0.4484  0.9903
  186SOL    HW2 1003   5.413   3.111   4.760 -0.3098 -0.0122 -0.5799
  187SOL     OW 1004   2.153   4.064   0.164  0.2497 -0.0491  0.6715
  187SOL    HW1 1005   2.172   4.078   0.256  0.8609  3.1500  0.1730
  187SOL    HW2 1006   2.237   4.043   0.125  0.3352  0.4321  0.5863
  188SOL     OW 1007   0.251   2.962   3.612  0.3049  0.1553 -0.1580
  188SOL    HW1 1008   0.267   2.867   3.606  0.9644  0.2247  0.3603
  188SOL    HW2 1009   0.269   2.983   3.704 -1.4240  0.5085  0.1336
  189SOL     OW 1010   4.181   2.831   0.834 -1.1052  0.0800  0.3606
  189SOL    HW1 1011   4.155   2.902   0.891 -2.7672 -0.3488  0.1706
  189SOL    HW2 1012   4.196   2.757   0.892  1.1334  0.6516  0.6173
  190SOL     OW 1013   5.395   3.987   1.197 -0.4760 -0.1336 -0.8128
  190SOL    HW1 1014   5.353   3.997   1.282 -0.6562 -1.3023 -0.7554
  190SOL    HW2 1015   5.400   4.076   1.162  2.1970  0.8441  1.6476
  191SOL     OW 1016   3.566   4.796   2.724 -0.3438 -0.4232  0.1338
  191SOL    HW1 1017   3.541   4.797   2.632 -0.4430  1.9431  0.1182
  191SOL    HW2 1018   3.508   4.861   2.765  1.0316  0.0191  1.4687
  192SOL     OW 1019   0.428   5.598   3.023  0.3986  0.3768  0.1550
  192SOL    HW1 1020   0.450   5.595   3.115  0.5888 -0.2988  0.0879
  192SOL    HW2 1021   0.454   5.686   2.995 -2.7610  1.9038  1.5141
  193SOL     OW 1022   6.086   5.928   4.023 -0.2801  0.0219 -0.3957
  193SOL    HW1 1023   5.999   5.953   4.055  0.5157  0.5474  1.4798
  193SOL    HW2 1024   6.120   5.868   4.089  0.7540 -0.2288 -1.1380
  194SOL     OW 1025   2.462   5.659   2.710  0.0088 -0.1993 -0.3561
  194SOL    HW1 1026   2.370   5.674   2.689 -0.5623  0.1780  2.0524
  194SOL    HW2 1027   2.465   5.661   2.806  2.0786 -2.9460 -0.2460
  195SOL     OW 1028   0.766   5.225   1.902 -0.0098  0.1452  0.0121
  195SOL    HW1 1029   0.856   5.214   1.934 -0.1625 -1.3275  0.0070
  195SOL    HW2 1030   0.712   5.218   1.980 -0.1718  0.1464 -0.1010
  196SOL     OW 1031   6.009   2.623   0.870 -0.2370  0.1847  0.1252
  196SOL    HW1 1032   6.032   2.568   0.796 -1.7262 -0.2435 -0.0488
  196SOL    HW2 1033   6.081   2.611   0.933  1.3386  1.0042 -1.4333
  197SOL     OW 1034   1.659   5.684   3.161  0.6670 -0.0355  0.5835
  197SOL    HW1 1035   1.722   5.710   3.093  1.9585  1.6197  2.2938
  197SOL    HW2 1036   1.707   5.621   3.215 -0.3406 -1.3150  0.0383
  198SOL     OW 1037   3.591   5.371   0.324  0.6414  0.5480  0.3823
  198SOL    HW1 1038   3.664   5.430   0.342 -0.9647  2.4087  1.1661
  198SOL    HW2 1039   3.602   5.300   0.388  0.4050  2.1306  2.2954
  199SOL     OW 1040   3.740   4.685   4.738  0.4247 -0.2182 -0.0109
  199SOL    HW1 1041   3.710   4.755   4.680  0.1958 -0.0233  0.3398
  199SOL    HW2 1042   3.749   4.609   4.680 -0.5863 -0.2398 -0.1590
  200SOL     OW 1043   3.289   5.973   5.109  0.5770  0.0867 -0.0496
  200SOL    HW1 1044   3.376   5.934   5.110  1.0170  1.0341  1.0796
  200SOL    HW2 1045   3.286   6.028   5.187 -0.7193  0.7692 -0.5387
  201SOL     OW 1046   1.459   1.177   1.607 -0.2530  0.6528 -0.1528
  201SOL    HW1 1047   1.512   1.199   1.683  1.3612 -0.4997 -0.8761
  201SOL    HW2 1048   1.374   1.218   1.624 -0.2776 -0.3726  2.6904
  202SOL     OW 1049   1.756   4.586   3.243  0.1455  0.0695  0.3153
  202SOL    HW1 1050   1.833   4.616   3.291 -0.1273  0.5812  0.4500
  202SOL    HW2 1051   1.756   4.638   3.162  0.9664 -1.2594 -0.5635
  203SOL     OW 1052   5.126   5.809   0.238  0.0071 -0.0408  0.2721
  203SOL    HW1 1053   5.154   5.845   0.322  0.7289 -0.1522  0.0827
  203SOL    HW2 1054   5.031   5.801   0.247 -0.1914  1.8756  0.3285
  204SOL     OW 1055   1.500   3.471   5.264 -0.1457 -0.3171 -0.1346
  204SOL    HW1 1056   1.566   3.512   5.208  0.0612  1.6683  1.4237
  204SOL    HW2 1057   1.542   3.392   5.297  1.2920  0.6394  0.4263
  205SOL     OW 1058   2.909   0.946   1.204 -0.5941  0.1605  0.3596
  205SOL    HW1 1059   2.815   0.936   1.222 -0.8160  0.7815 -0.3728
  205SOL    HW2 1060   2.951   0.937   1.289 -1.2104 -1.2845  0.5270
  206SOL     OW 1061   5.804   0.713   1.078 -0.1065  0.3645  0.1777
  206SOL    HW1 1062   5.879   0.685   1.025  0.1521  0.7256  0.3518
  206SOL    HW2 1063   5.843   0.760   1.152 -0.4663 -0.1086  0.6756
  207SOL     OW 1064   1.378   3.928   5.212 -0.0345  0.7343  0.3174
  207SOL    HW1 1065   1.457   3.953   5.262  0.9273  0.2018 -0.8897
  207SOL    HW2 1066   1.354   3.843   5.248  0.7887  0.2477 -0.2622
  208SOL     OW 1067   0.931   1.896   3.091 -0.2196  0.6428  0.3224
  208SOL    HW1 1068   1.004   1.892   3.152 -0.3435 -0.0459  0.4313
  208SOL    HW2 1069   0.962   1.850   3.013 -0.8830 -0.5529  0.7456
  209SOL     OW 1070   0.213   4.601   4.626  0.2187 -0.2592  0.3069
  209SOL    HW1 1071   0.207   4.505   4.632 -2.3875 -0.1508  0.1479
  209SOL    HW2 1072   0.128   4.632   4.654  0.6507  2.0078 -0.7310
  210SOL     OW 1073   1.104   4.114   0.182  0.2889  0.0996  0.2366
  210SOL    HW1 1074   1.175   4.056   0.207 -1.4398 -3.0646 -1.5149
  210SOL    HW2 1075   1.085   4.091   0.090 -2.8689  0.7976  0.5839
  211SOL     OW 1076   5.520   1.830   0.627 -0.0487  0.4296 -0.3707
  211SOL    HW1 1077   5.540   1.739   0.604 -1.1263 -0.1653  0.8692
  211SOL    HW2 1078   5.497   1.826   0.720 -0.1800  1.9699 -0.3147
  212SOL     OW 1079   3.590   2.432   4.984  0.9266  0.1879 -0.3971
  212SOL    HW1 1080   3.673   2.437   4.937  1.4192  3.3234  0.6289
  212SOL    HW2 1081   3.612   2.455   5.074 -0.6488 -1.8493  0.6054
  213SOL     OW 1082   5.397   1.217   0.272 -0.3591  0.0026 -0.7158
  213SOL    HW1 1083   5.481   1.260   0.288 -0.4702  0.7267 -1.9064
  213SOL    HW2 1084   5.341   1.246   0.343 -0.1332  1.0563 -0.9463
  214SOL     OW 1085   3.739   5.419   4.905  0.3963  0.4367 -0.4345
  214SOL    HW1 1086   3.819   5.413   4.956 -0.5118  1.8655  1.2461
  214SOL    HW2 1087   3.669   5.421   4.969 -0.9746 -0.1224 -1.8404
  215SOL     OW 1088   0.098   2.204   2.312 -0.6410 -0.6352 -0.0229
  215SOL    HW1 1089   0.162   2.255   2.262 -1.0276  0.1639  0.2849
  215SOL    HW2 1090   0.014   2.242   2.288 -0.9379 -1.1543  0.1875
  216SOL     OW 1091   5.314   4.067   5.231 -0.0810 -0.6508  0.2503
  216SOL    HW1 1092   5.297   4.156   5.201 -0.4480 -1.0200 -0.6514
  216SOL    HW2 1093   5.394   4.075   5.284  1.6166 -0.2283 -2.2052
  217SOL     OW 1094   2.402   1.659   1.003  0.0500  0.2606 -0.0488
  217SOL    HW1 1095   2.345   1.652   0.927 -1.2329  0.6662  0.8442
  217SOL    HW2 1096   2.472   1.596   0.986 -0.4700 -0.0044 -1.3309
  218SOL     OW 1097   0.219   6.088   1.302  0.0457 -0.4907  0.3650
  218SOL    HW1 1098   0.142   6.122   1.348 -2.4165 -0.8733 -3.0908
  218SOL    HW2 1099   0.250   6.162   1.250  1.7852 -0.4911  1.3425
  219SOL     OW 1100   1.214   4.325   4.760 -0.2562 -0.2670 -0.5056
  219SOL    HW1 1101   1.278   4.356   4.696 -1.6319  1.3269 -1.2033
  219SOL    HW2 1102   1.228   4.231   4.766  2.3412  0.0708 -0.3739
  220SOL     OW 1103   2.033   5.012   5.569 -0.0656 -0.2140  0.1166
  220SOL    HW1 1104   2.069   5.046   5.487  1.7824 -0.6298  0.7071
  220SOL    HW2 1105   2.035   5.087   5.629 -1.1101  0.0035 -0.0948
  221SOL     OW 1106   6.033   5.366   3.526 -0.0319 -0.2991  0.5398
  221SOL    HW1 1107   5.939   5.363   3.509 -0.2539 -1.6634  1.8535
  221SOL    HW2 1108   6.042   5.419   3.605  0.3005 -0.3774  0.5573
  222SOL     OW 1109   3.622   0.174   0.030 -0.0930 -0.0721  0.2519
  222SOL    HW1 1110   3.702   0.131   0.001 -0.4892  0.4172 -1.7364
  222SOL    HW2 1111   3.587   0.117   0.098  1.7283 -0.4841  0.8963
  223SOL     OW 1112   2.688   3.587   0.677 -0.7213  0.1430  0.0932
  223SOL    HW1 1113   2.660   3.506   0.633  1.5701 -0.1947 -0.8834
  223SOL    HW2 1114   2.774   3.567   0.714  0.5505  2.4412 -1.3187
  224SOL     OW 1115   2.866   4.566   1.821 -0.4809  0.9321 -0.2351
  224SOL    HW1 1116   2.941   4.580   1.763 -1.2897  1.0160 -1.2927
  224SOL    HW2 1117   2.808   4.508   1.772 -1.2996  1.2111  0.3785
  225SOL     OW 1118   4.771   0.989   3.651 -0.1530 -0.2755 -0.1370
  225SOL    HW1 1119   4.815   1.074   3.640  0.5129 -0.5843  0.1284
  225SOL    HW2 1120   4.793   0.962   3.740 -1.5816 -0.0419  0.3109
  226SOL     OW 1121   5.612   1.152   4.687 -0.4525 -0.6672  0.4081
  226SOL    HW1 1122   5.577   1.080   4.738 -0.0598 -0.3952  1.0711
  226SOL    HW2 1123   5.667   1.111   4.620 -0.2828 -0.9839  0.7435
  227SOL     OW 1124   3.649   5.638   4.753  0.2426  0.0773  0.3272
  227SOL    HW1 1125   3.692   5.628   4.668  0.0460  0.1515  0.2194
  227SOL    HW2 1126   3.682   5.564   4.805  0.4996  0.1318  0.2464
  228SOL     OW 1127   0.547   1.350   5.821  1.0127  0.3762 -0.0032
  228SOL    HW1 1128   0.539   1.270   5.767  0.6412 -0.4084  1.1865
  228SOL    HW2 1129   0.460   1.388   5.820  0.8858  0.0969  0.4446
  229SOL     OW 1130   1.352   3.127   3.935 -0.4130  0.5918 -0.1362
  229SOL    HW1 1131   1.312   3.048   3.973 -0.0011  0.2751 -0.3559
  229SOL    HW2 1132   1.290   3.155   3.868 -0.1393 -0.0618 -0.6707
  230SOL     OW 1133   2.737   3.223   5.052  0.2774  0.4044 -0.2012
  230SOL    HW1 1134   2.648   3.205   5.082  0.4097  0.4180  0.2054
  230SOL    HW2 1135   2.727   3.251   4.962 -0.2370  1.4311  0.1610
  231SOL     OW 1136   4.298   1.205   3.641  0.1660 -0.1782 -0.2650
  231SOL    HW1 1137   4.294   1.111   3.661  0.2332 -0.1205  0.0204
  231SOL    HW2 1138   4.211   1.226   3.609  0.3116 -0.4573 -0.8612
  232SOL     OW 1139   3.548   3.156   5.168 -0.6024 -0.2363 -0.0721
  232SOL    HW1 1140   3.466   3.204   5.177 -0.0370  0.6044  0.7786
  232SOL    HW2 1141   3.536   3.101   5.091 -1.7870  0.2211 -0.2251
  233SOL     OW 1142   3.902   4.432   3.723  0.3701  0.3445  0.6863
  233SOL    HW1 1143   3.986   4.444   3.768  1.9092 -0.6424 -1.6871
  233SOL    HW2 1144   3.918   4.463   3.634 -1.4306 -0.9494 -0.1583
  234SOL     OW 1145   3.068   1.103   3.288 -0.0871 -0.2041 -0.0562
  234SOL    HW1 1146   3.001   1.035   3.283  0.2742 -0.7013  1.3675
  234SOL    HW2 1147   3.148   1.056   3.310  0.8838  0.3248 -2.2169
  235SOL     OW 1148   2.170   2.097   5.281  0.3137  0.1630 -0.1485
  235SOL    HW1 1149   2.168   2.045   5.361  0.2082 -2.8141 -1.9218
  235SOL    HW2 1150   2.078   2.110   5.258  0.3462 -0.1313 -0.4538
  236SOL     OW 1151   5.581   2.190   4.899  0.2960 -0.3357 -0.9386
  236SOL    HW1 1152   5.553   2.123   4.962 -0.8722  0.0173 -1.0659
  236SOL    HW2 1153   5.537   2.166   4.818  0.6911  0.0057 -1.2526
  237SOL     OW 1154   3.728   0.864   5.215  0.3529 -0.2649 -0.2158
  237SOL    HW1 1155   3.808   0.815   5.194  0.6909 -0.4938  1.5098
  237SOL    HW2 1156   3.745   0.902   5.301 -1.2586  0.0206  0.0012
  238SOL     OW 1157   3.041   1.043   2.846 -0.0627 -0.2629  0.0039
  238SOL    HW1 1158   3.072   1.011   2.931  1.1334 -0.3831 -0.4644
  238SOL    HW2 1159   3.095   0.998   2.781  0.8689  1.7310 -0.7255
  239SOL     OW 1160   2.624   4.289   5.094  0.3345 -0.1389 -0.1002
  239SOL    HW1 1161   2.691   4.307   5.161 -0.7784 -1.8838  1.6174
  239SOL    HW2 1162   2.565   4.363   5.099  0.6104  0.0551  0.4107
  240SOL     OW 1163   5.915   3.742   4.213 -0.0155 -0.0777 -0.0034
  240SOL    HW1 1164   5.886   3.754   4.304 -1.0469 -0.7904 -0.2281
  240SOL    HW2 1165   5.973   3.816   4.198  2.3605 -1.3386  2.0839
  241SOL     OW 1166   3.319   0.014   0.052 -0.0998 -0.2443  0.5792
  241SOL    HW1 1167   3.399  -0.012   0.098 -0.4767 -1.8411  0.3969
  241SOL    HW2 1168   3.252  -0.045   0.087 -0.6318 -0.7291 -1.1768
  242SOL     OW 1169   4.851   1.412   3.248 -0.1135 -0.6173 -0.0586
  242SOL    HW1 1170   4.899   1.395   3.167 -1.1281 -2.2484 -0.3726
  242SOL    HW2 1171   4.774   1.461   3.220 -0.7016 -1.5884 -0.1626
  243SOL     OW 1172   1.194   1.811   4.381 -0.4216  0.7657 -0.0600
  243SOL    HW1 1173   1.284   1.802   4.412  0.3180  2.0282 -1.6488
  243SOL    HW2 1174   1.148   1.854   4.453 -0.3042 -1.5907  1.5453
  244SOL     OW 1175   3.389   6.131   3.804 -0.8043  0.6752  0.7279
  244SOL    HW1 1176   3.317   6.075   3.834 -2.6068  2.7007  0.3975
  244SOL    HW2 1177   3.435   6.156   3.884 -0.4666 -0.5685  0.9482
  245SOL     OW 1178   0.172   0.553   2.425  0.1764  0.4355 -0.6300
  245SOL    HW1 1179   0.098   0.610   2.402 -1.4628 -1.5638 -0.6613
  245SOL    HW2 1180   0.225   0.605   2.485 -1.4336  1.8459 -0.3430
  246SOL     OW 1181   3.141   0.598   5.280 -0.2833  0.1449 -0.3137
  246SOL    HW1 1182   3.157   0.626   5.189  0.8577  0.4099 -0.0534
  246SOL    HW2 1183   3.221   0.552   5.304 -2.3991 -4.4080 -1.0482
  247SOL     OW 1184   2.666   4.512   2.904 -0.4096  0.2212 -0.0384
  247SOL    HW1 1185   2.742   4.558   2.938 -1.1913  0.7832  1.0031
  247SOL    HW2 1186   2.625   4.472   2.981 -0.8675 -0.5392 -0.6506
  248SOL     OW 1187   3.902   3.996   3.687  0.4155  0.0905 -0.5515
  248SOL    HW1 1188   3.931   3.939   3.615 -1.7236 -0.1662 -1.2707
  248SOL    HW2 1189   3.927   4.084   3.659  0.5670 -0.1183 -1.0884
  249SOL     OW 1190   3.982   0.712   1.166 -0.0668 -0.1857 -0.3084
  249SOL    HW1 1191   4.033   0.757   1.099  0.5867  0.5157  0.6289
  249SOL    HW2 1192   3.945   0.636   1.121  2.2430 -1.0447 -0.9247
  250SOL     OW 1193   2.823   5.294   5.243 -0.3315  0.3773  0.7981
  250SOL    HW1 1194   2.821   5.200   5.224  2.2652  0.5275 -0.7271
  250SOL    HW2 1195   2.759   5.332   5.182  1.5581 -0.0904 -1.6641
  251SOL     OW 1196   3.589   0.147   5.173 -0.1466  0.1401 -0.7714
  251SOL    HW1 1197   3.680   0.166   5.194 -0.2031 -0.6954  0.3030
  251SOL    HW2 1198   3.553   0.107   5.252 -0.7822 -1.7682 -1.9375
  252SOL     OW 1199   5.568   4.876   2.607  0.0146 -0.5616  0.1522
  252SOL    HW1 1200   5.483   4.841   2.633 -1.0053 -0.2158 -2.3697
  252SOL    HW2 1201   5.597   4.819   2.536  0.4678  0.9838 -0.9663
  253SOL     OW 1202   0.447   4.934   4.055  0.9137  0.4506 -0.1749
  253SOL    HW1 1203   0.384   4.875   4.014  0.2752  0.4848  0.7383
  253SOL    HW2 1204   0.515   4.877   4.090  0.8395  0.3378 -0.2166
  254SOL     OW 1205   2.094   2.526   1.620 -0.6015  0.4150 -0.2554
  254SOL    HW1 1206   2.096   2.519   1.715  0.4395  1.1618 -0.1977
  254SOL    HW2 1207   2.010   2.490   1.594 -0.9090  0.2430  0.9524
  255SOL     OW 1208   0.408   2.339   1.919 -0.5829 -0.9429 -0.5751
  255SOL    HW1 1209   0.478   2.292   1.965  0.3224  1.2494  0.4000
  255SOL    HW2 1210   0.415   2.310   1.828  1.4456 -0.9572 -0.4472
  256SOL     OW 1211   3.407   1.208   2.711 -0.7387 -0.1102  0.3446
  256SOL    HW1 1212   3.365   1.232   2.794 -1.7981 -1.0998  0.1245
  256SOL    HW2 1213   3.497   1.185   2.735 -1.2994 -1.3518  1.3938
  257SOL     OW 1214   3.482   3.708   0.769  0.2594  0.3174 -0.0615
  257SOL    HW1 1215   3.486   3.773   0.840  0.9722  0.8917 -0.6170
  257SOL    HW2 1216   3.571   3.672   0.765  0.6433  1.3917 -1.6800
  258SOL     OW 1217   4.304   2.116   3.873  0.1758  0.2367 -0.2281
  258SOL    HW1 1218   4.399   2.124   3.870  0.1054  4.0199  1.9866
  258SOL    HW2 1219   4.282   2.119   3.966 -2.1689  1.8843 -0.7256
  259SOL     OW 1220   3.577   1.259   0.430 -0.4508  0.2166 -0.7308
  259SOL    HW1 1221   3.625   1.181   0.401 -2.7023 -0.8003 -2.0575
  259SOL    HW2 1222   3.569   1.248   0.525 -1.0324 -1.4222 -0.9313
  260SOL     OW 1223   3.960   5.472   2.337 -0.2391  0.2312 -0.8159
  260SOL    HW1 1224   4.028   5.538   2.329  0.3590 -0.2043  0.4110
  260SOL    HW2 1225   3.879   5.522   2.350 -0.0570  0.7335 -1.5638
  261SOL     OW 1226   0.895   5.035   0.169 -0.5153  0.1563  0.3070
  261SOL    HW1 1227   0.953   5.041   0.093 -0.2381  0.7178  0.5577
  261SOL    HW2 1228   0.877   4.941   0.178  2.2178 -0.3506  1.6151
  262SOL     OW 1229   4.886   3.762   1.702  0.0152 -0.0417  0.1942
  262SOL    HW1 1230   4.917   3.673   1.717  1.5593  0.3047 -0.6756
  262SOL    HW2 1231   4.957   3.818   1.734 -1.2564  0.9173  1.4413
  263SOL     OW 1232   3.029   3.171   0.051  0.2945 -0.5372 -0.0973
  263SOL    HW1 1233   3.067   3.120   0.123  0.0106 -1.1663 -0.3840
  263SOL    HW2 1234   2.994   3.105  -0.009 -2.1629  0.0014  0.6251
  264SOL     OW 1235   5.875   1.767   2.446 -0.4393 -0.6401 -0.3071
  264SOL    HW1 1236   5.841   1.824   2.515  0.3875 -1.6308  0.9581
  264SOL    HW2 1237   5.925   1.827   2.389  0.5854 -0.1057  1.1058
  265SOL     OW 1238   5.475   4.778   1.438  0.3530 -0.4976  0.0054
  265SOL    HW1 1239   5.519   4.804   1.357  2.0368  0.0037  1.0278
  265SOL    HW2 1240   5.449   4.861   1.479  0.1750 -0.7186  0.3483
  266SOL     OW 1241   4.748   3.897   0.421 -0.2566  0.2776  0.4276
  266SOL    HW1 1242   4.843   3.905   0.423 -0.2514  0.2840  0.2283
  266SOL    HW2 1243   4.732   3.808   0.388 -0.3186  0.3825  0.1674
  267SOL     OW 1244   0.471   2.196   5.532 -0.5005 -0.0761  0.3909
  267SOL    HW1 1245   0.531   2.258   5.575  0.8247 -0.2318 -1.1287
  267SOL    HW2 1246   0.510   2.110   5.550 -1.8774 -0.4527  1.7863
  268SOL     OW 1247   0.084   3.216   0.558  0.7084  0.3456 -0.0522
  268SOL    HW1 1248   0.138   3.202   0.480 -0.7548  1.2182 -1.2922
  268SOL    HW2 1249   0.146   3.233   0.628  2.0447  0.9678 -1.3453
  269SOL     OW 1250   1.153   3.778   3.296  0.1769 -0.2185 -0.3229
  269SOL    HW1 1251   1.173   3.869   3.319  2.0969 -0.1788 -1.8768
  269SOL    HW2 1252   1.059   3.770   3.309  0.1295  1.6615  0.9094
  270SOL     OW 1253   0.521   0.893   4.350  0.1480 -0.2788 -0.3632
  270SOL    HW1 1254   0.616   0.900   4.349  0.2432 -1.1275  0.5300
  270SOL    HW2 1255   0.501   0.826   4.285  0.2059 -0.4736 -0.1816
  271SOL     OW 1256   3.798   3.832   4.159 -0.1050  1.2302  0.7258
  271SOL    HW1 1257   3.742   3.902   4.193 -1.3175  0.1423  1.0313
  271SOL    HW2 1258   3.846   3.873   4.087 -0.1666  2.5961  1.4326
  272SOL     OW 1259   4.132   3.997   1.478  0.3782 -0.1518 -0.2597
  272SOL    HW1 1260   4.113   3.957   1.562  0.3282 -0.2285 -0.3075
  272SOL    HW2 1261   4.122   3.926   1.414 -0.3785  0.0883 -0.4231
  273SOL     OW 1262   5.741   3.422   1.326  0.1324  0.0805  0.6424
  273SOL    HW1 1263   5.688   3.479   1.382 -0.4615 -0.0970  0.2616
  273SOL    HW2 1264   5.830   3.432   1.360 -0.1088  0.5370  1.1550
  274SOL     OW 1265   4.694   0.621   2.713  0.7782 -0.2425  0.0502
  274SOL    HW1 1266   4.664   0.605   2.624  1.5928 -0.0761 -0.2572
  274SOL    HW2 1267   4.786   0.595   2.713  2.0568  3.6247 -0.3302
  275SOL     OW 1268   0.164   2.185   5.503 -0.4187  0.4349  0.2258
  275SOL    HW1 1269   0.258   2.170   5.511 -0.1685  0.9253 -1.3666
  275SOL    HW2 1270   0.124   2.114   5.553  0.7901  0.2711  1.0059
  276SOL     OW 1271   3.749   5.243   2.867 -0.0338  0.0480 -0.0704
  276SOL    HW1 1272   3.657   5.224   2.883  0.4673 -0.7322  2.2829
  276SOL    HW2 1273   3.783   5.164   2.825 -0.0262 -0.4724  0.8979
  277SOL     OW 1274   4.283   1.001   5.321 -0.2797  0.3383 -0.1966
  277SOL    HW1 1275   4.332   1.044   5.251  0.5052 -1.7271 -1.0030
  277SOL    HW2 1276   4.337   0.925   5.344 -0.0521  1.4036  3.3402
  278SOL     OW 1277   3.959   3.598   1.834 -0.0737 -0.3221 -0.0772
  278SOL    HW1 1278   3.927   3.642   1.913 -0.7654 -1.9217  0.5827
  278SOL    HW2 1279   3.886   3.542   1.806  0.3680 -0.2323 -1.5279
  279SOL     OW 1280   4.137   2.274   1.873  0.0126  0.0147 -0.0231
  279SOL    HW1 1281   4.211   2.334   1.868 -0.9283  1.3277  1.1461
  279SOL    HW2 1282   4.062   2.329   1.896 -1.6984 -1.0042 -2.6090
  280SOL     OW 1283   5.764   2.256   0.334 -0.0963 -0.3955 -0.9264
  280SOL    HW1 1284   5.785   2.348   0.317 -0.9212 -0.2035 -0.9518
  280SOL    HW2 1285   5.846   2.209   0.317  0.4583  0.3814 -0.4805
  281SOL     OW 1286   5.162   1.381   2.642  0.3337  0.1249  0.3209
  281SOL    HW1 1287   5.170   1.288   2.618 -0.2131  0.2810 -0.4825
  281SOL    HW2 1288   5.222   1.391   2.716  0.6543 -0.7913  0.2036
  282SOL     OW 1289   2.489   3.931   1.549 -0.2606  0.4289 -0.2192
  282SOL    HW1 1290   2.571   3.982   1.544  0.4147 -0.5968  0.1469
  282SOL    HW2 1291   2.473   3.903   1.459 -1.1350  2.0223 -0.5922
  283SOL     OW 1292   3.878   6.038   0.502 -0.4561 -0.3998  0.1011
  283SOL    HW1 1293   3.841   5.966   0.450 -2.2919 -0.2161  1.0704
  283SOL    HW2 1294   3.910   6.101   0.438  0.2296 -1.5966 -0.7670
  284SOL     OW 1295   0.223   5.313   3.971  0.6142 -0.0035  0.4205
  284SOL    HW1 1296   0.310   5.283   3.945  1.1494  0.7100  1.2953
  284SOL    HW2 1297   0.163   5.274   3.907  1.7051  0.5582 -0.9871
  285SOL     OW 1298   2.578   2.101   5.534  0.1521 -0.0479  0.1480
  285SOL    HW1 1299   2.528   2.122   5.455 -0.7828  0.0778  0.7459
  285SOL    HW2 1300   2.610   2.012   5.520  1.7419  0.7058 -1.2182
  286SOL     OW 1301   1.990   2.032   2.709  0.4867 -0.0408  0.2838
  286SOL    HW1 1302   2.045   2.110   2.720  1.0459 -0.1466 -1.5173
  286SOL    HW2 1303   2.011   2.000   2.622 -0.5044 -1.6316  0.5941
  287SOL     OW 1304   3.428   2.645   4.701  1.0222 -0.8037 -0.1496
  287SOL    HW1 1305   3.417   2.661   4.794 -0.3653 -1.4610 -0.1764
  287SOL    HW2 1306   3.432   2.732   4.662  1.4014 -0.5277  0.4977
  288SOL     OW 1307   2.894   1.971   1.342 -0.1983  0.3116  0.0103
  288SOL    HW1 1308   2.836   1.899   1.319 -1.0348  1.0793 -0.3388
  288SOL    HW2 1309   2.969   1.962   1.283 -0.7084  0.2296 -0.6342
  289SOL     OW 1310   0.419   5.438   0.315 -0.1761  0.2152  0.4490
  289SOL    HW1 1311   0.461   5.351   0.322 -0.1761  0.0057 -1.6646
  289SOL    HW2 1312   0.470   5.484   0.249 -1.9085  0.7909 -0.5356
  290SOL     OW 1313   3.683   5.900   2.350 -0.1853 -0.5697  0.2984
  290SOL    HW1 1314   3.705   5.988   2.321 -0.0857 -0.4683  0.6803
  290SOL    HW2 1315   3.743   5.883   2.422  0.8737 -1.5409 -0.7665
  291SOL     OW 1316   2.415   2.763   4.862 -0.6416  0.0606  0.2783
  291SOL    HW1 1317   2.446   2.675   4.881  0.9606  0.5175 -0.0978
  291SOL    HW2 1318   2.342   2.751   4.801 -1.2601 -1.0481  1.2105
  292SOL     OW 1319   3.809   2.179   4.489 -0.1781 -0.3046 -0.2332
  292SOL    HW1 1320   3.884   2.186   4.430 -0.3332 -1.1468 -0.5467
  292SOL    HW2 1321   3.846   2.150   4.572 -0.0450  0.2041 -0.1127
  293SOL     OW 1322   4.519   3.571   5.892  0.2532  0.1045 -0.0071
  293SOL    HW1 1323   4.590   3.619   5.933  0.0708  1.3944 -1.1418
  293SOL    HW2 1324   4.521   3.485   5.934  0.6822  1.0261  1.9704
  294SOL     OW 1325   3.518   0.540   2.388  0.5264 -1.0750 -0.1008
  294SOL    HW1 1326   3.613   0.532   2.383  0.5438 -0.7612 -0.2813
  294SOL    HW2 1327   3.495   0.599   2.316  0.3349  0.0200  0.8361
  295SOL     OW 1328   0.404   3.606   3.426 -0.2776 -0.1335 -0.1387
  295SOL    HW1 1329   0.491   3.628   3.459 -1.1370  3.2916  0.2348
  295SOL    HW2 1330   0.345   3.631   3.497 -1.7939  1.9346 -1.9705
  296SOL     OW 1331   3.708   1.601   3.198  0.1865  0.3313  0.2106
  296SOL    HW1 1332   3.760   1.576   3.122 -1.9778  0.3302 -1.3621
  296SOL    HW2 1333   3.745   1.686   3.226  0.6472  0.6217 -1.2044
  297SOL     OW 1334   0.285   2.358   5.721  0.3705 -0.0519 -0.6660
  297SOL    HW1 1335   0.281   2.310   5.803 -0.1864  1.0420 -0.0363
  297SOL    HW2 1336   0.287   2.290   5.653  2.1147 -0.9929  0.2641
  298SOL     OW 1337   1.663   4.050   2.933 -0.1705 -0.3934  0.5482
  298SOL    HW1 1338   1.617   4.127   2.965  0.6809  0.0115  0.8048
  298SOL    HW2 1339   1.598   3.979   2.939 -0.5213  0.0105  1.6135
  299SOL     OW 1340   2.845   2.954   4.670 -0.2511  0.2788 -0.6766
  299SOL    HW1 1341   2.780   2.980   4.735 -0.3701  0.0870 -0.7197
  299SOL    HW2 1342   2.860   2.861   4.685  0.2018  0.3782 -0.5044
  300SOL     OW 1343   6.045   1.731   0.441  0.0125 -0.6317  0.0505
  300SOL    HW1 1344   5.981   1.754   0.508  2.2404  2.0862  1.4487
  300SOL    HW2 1345   6.125   1.712   0.489  0.9204 -1.6650 -1.7458
  301SOL     OW 1346   2.792   2.774   1.962 -0.3230 -0.2498 -0.0164
  301SOL    HW1 1347   2.725   2.749   2.025 -1.1286  1.2636 -0.2220
  301SOL    HW2 1348   2.754   2.753   1.877  0.1158 -0.8221 -0.0787
  302SOL     OW 1349   3.832   1.954   4.736  0.2425 -0.1167  0.1871
  302SOL    HW1 1350   3.792   1.915   4.658  0.0517  0.1786  0.1365
  302SOL    HW2 1351   3.860   1.879   4.788  1.7003 -0.3278 -0.8303
  303SOL     OW 1352   4.180   2.488   3.556 -0.2342  0.1393 -0.3528
  303SOL    HW1 1353   4.200   2.453   3.470 -0.6615 -0.7334 -0.1108
  303SOL    HW2 1354   4.243   2.446   3.615 -0.5955 -0.0461 -0.0922
  304SOL     OW 1355   1.450   4.416   1.457 -0.3444 -1.0011 -0.2052
  304SOL    HW1 1356   1.479   4.405   1.548  1.8382  0.9280 -0.5870
  304SOL    HW2 1357   1.372   4.471   1.463  0.1402 -0.3673  0.4822
  305SOL     OW 1358   5.653   5.508   4.573 -0.4819  0.0845 -0.3627
  305SOL    HW1 1359   5.675   5.452   4.648 -1.5504  0.1160 -0.0093
  305SOL    HW2 1360   5.564   5.539   4.592 -0.6726  0.2805 -1.5424
  306SOL     OW 1361   1.406   4.646   3.791  0.0946 -0.4682  0.0494
  306SOL    HW1 1362   1.327   4.650   3.846 -1.0595 -0.9188 -1.5093
  306SOL    HW2 1363   1.442   4.734   3.794 -0.0660 -0.4260  1.3369
  307SOL     OW 1364   5.650   6.073   6.036 -0.0871  0.2223 -0.3326
  307SOL    HW1 1365   5.652   5.978   6.041 -0.8391  0.0181 -2.7600
  307SOL    HW2 1366   5.559   6.095   6.014 -0.0423  1.5624  0.6233
  308SOL     OW 1367   5.597   4.646   3.902 -0.1273 -0.0626 -0.1544
  308SOL    HW1 1368   5.502   4.643   3.916 -0.1836 -3.8570 -0.3381
  308SOL    HW2 1369   5.609   4.628   3.809  0.7984  1.5625 -0.3835
  309SOL     OW 1370   3.348   5.414   2.684  0.2654 -0.2588  0.0043
  309SOL    HW1 1371   3.357   5.487   2.745 -1.2303  1.4170 -1.6564
  309SOL    HW2 1372   3.438   5.381   2.673  0.7055  0.0730  2.2222
  310SOL     OW 1373   0.209   5.670   3.300 -0.2228  0.8554  0.2455
  310SOL    HW1 1374   0.304   5.672   3.315 -0.1816 -1.2485  0.4885
  310SOL    HW2 1375   0.177   5.600   3.357 -2.1791  2.5015  1.3004
  311SOL     OW 1376   4.966   0.039   4.921 -0.1055  0.2689 -0.1200
  311SOL    HW1 1377   4.991   0.096   4.994 -2.9473  0.8853  0.4691
  311SOL    HW2 1378   5.013   0.076   4.846 -0.8482  2.6611  0.4975
  312SOL     OW 1379   2.896   3.571   5.689  0.2091  0.6521 -0.1424
  312SOL    HW1 1380   2.964   3.638   5.679 -0.2615  1.3474  1.1005
  312SOL    HW2 1381   2.851   3.595   5.770 -1.6778  0.3562 -1.0503
  313SOL     OW 1382   4.897   1.772   3.223 -0.0881 -0.4895  0.7354
  313SOL    HW1 1383   4.929   1.859   3.200 -3.2696  0.8324  0.8636
  313SOL    HW2 1384   4.943   1.713   3.163  0.6082  1.4954 -0.7992
  314SOL     OW 1385   5.801   1.327   0.586  0.2125 -0.5247  0.2064
  314SOL    HW1 1386   5.851   1.357   0.510 -0.8351 -0.6427 -0.5555
  314SOL    HW2 1387   5.855   1.260   0.626  0.3597 -1.1820 -1.0323
  315SOL     OW 1388   0.781   4.736   4.429  0.8081 -0.0003 -0.2320
  315SOL    HW1 1389   0.817   4.647   4.438  1.3743  0.1480 -0.9113
  315SOL    HW2 1390   0.760   4.763   4.518  0.7670 -0.7657 -0.0048
  316SOL     OW 1391   1.779   1.521   1.532 -0.1210 -0.8877  0.1864
  316SOL    HW1 1392   1.790   1.426   1.531 -2.6917 -1.3098 -2.4264
  316SOL    HW2 1393   1.805   1.549   1.444 -1.6209  0.4451  0.1146
  317SOL     OW 1394   3.802   0.010   6.068 -0.7068  0.1114  0.1894
  317SOL    HW1 1395   3.808  -0.081   6.040  0.2901  0.5263 -1.0334
  317SOL    HW2 1396   3.872   0.055   6.021 -0.1669  1.2388  1.9563
  318SOL     OW 1397   5.763   3.752   1.496  0.0966  0.3525  0.1945
  318SOL    HW1 1398   5.691   3.693   1.474 -0.2866  0.6299  0.6790
  318SOL    HW2 1399   5.721   3.823   1.545  0.4416  1.3805 -0.9653
  319SOL     OW 1400   3.333   2.418   3.368 -0.2032 -0.3949  0.1180
  319SOL    HW1 1401   3.272   2.491   3.362  0.9822  0.6243  0.2246
  319SOL    HW2 1402   3.356   2.413   3.461  0.4776 -0.2484 -0.0345
  320SOL     OW 1403   1.636   4.481   0.264 -0.8453  0.3376 -0.5795
  320SOL    HW1 1404   1.548   4.448   0.246 -0.5554 -0.6341 -0.2738
  320SOL    HW2 1405   1.690   4.402   0.271 -0.2066  0.8565  0.5847
  321SOL     OW 1406   1.562   1.243   5.134 -0.1132  0.3104  0.4215
  321SOL    HW1 1407   1.493   1.213   5.193 -1.5992  2.0234 -0.3603
  321SOL    HW2 1408   1.519   1.255   5.050  1.3249  0.6462 -0.3029
  322SOL     OW 1409   4.544   3.285   5.214  0.1118 -0.0824 -0.1731
  322SOL    HW1 1410   4.617   3.339   5.247  0.0743  0.4852 -0.9671
  322SOL    HW2 1411   4.468   3.313   5.265  0.2054  0.2297 -0.2004
  323SOL     OW 1412   3.540   1.399   5.645  0.1964 -0.1486 -0.3846
  323SOL    HW1 1413   3.510   1.487   5.669  1.0800  0.1868 -0.4787
  323SOL    HW2 1414   3.491   1.378   5.566 -1.8183 -0.7508  0.9293
  324SOL     OW 1415   1.823   1.112   5.579 -0.4085  0.3189 -0.7612
  324SOL    HW1 1416   1.810   1.138   5.488 -0.1959 -0.1865 -0.9352
  324SOL    HW2 1417   1.767   1.172   5.629 -3.5540 -1.8242 -1.4700
  325SOL     OW 1418   5.525   6.041   0.610  0.0282  0.6635 -0.1759
  325SOL    HW1 1419   5.522   5.974   0.678 -0.9381  2.1391  1.3221
  325SOL    HW2 1420   5.605   6.023   0.561 -0.9989 -2.5403 -0.9025
  326SOL     OW 1421   3.958   5.066   5.980  0.0148  0.2342 -0.3950
  326SOL    HW1 1422   3.881   5.044   5.927 -0.1859  0.8088 -0.3500
  326SOL    HW2 1423   3.921   5.108   6.059  0.3842  0.7111 -0.4755
  327SOL     OW 1424   5.505   4.572   0.960  0.3210 -0.0076 -0.2039
  327SOL    HW1 1425   5.566   4.588   1.033  0.4299 -0.5656 -0.1677
  327SOL    HW2 1426   5.455   4.495   0.987 -0.1630  0.2365 -0.3902
  328SOL     OW 1427   1.179   4.271   0.605 -0.2526 -0.1426  0.1459
  328SOL    HW1 1428   1.189   4.318   0.688  0.0468  0.5650 -0.2795
  328SOL    HW2 1429   1.260   4.220   0.597 -0.1348  0.0476  0.1276
  329SOL     OW 1430   5.185   0.138   4.193 -0.6836  0.4809 -0.2618
  329SOL    HW1 1431   5.112   0.080   4.218  0.0480 -0.7767 -0.9052
  329SOL    HW2 1432   5.226   0.162   4.276 -1.6547  0.9874  0.0897
  330SOL     OW 1433   4.403   3.707   0.989  0.4742  0.1059 -0.0644
  330SOL    HW1 1434   4.422   3.790   1.032  1.6800 -0.2053  0.0466
  330SOL    HW2 1435   4.446   3.641   1.044  0.7354 -0.4443 -0.9009
  331SOL     OW 1436   1.251   3.113   2.346 -0.4126  0.2561 -0.0794
  331SOL    HW1 1437   1.194   3.147   2.414 -0.8833  0.1789 -0.4313
  331SOL    HW2 1438   1.283   3.030   2.380 -0.3318  0.4074  0.2130
  332SOL     OW 1439   3.530   4.828   0.285  0.0668  0.7100 -0.5103
  332SOL    HW1 1440   3.462   4.762   0.293  3.1443 -2.6016  1.1849
  332SOL    HW2 1441   3.513   4.889   0.356 -0.7380 -0.4605  0.3330
  333SOL     OW 1442   2.289   5.470   2.528 -0.1534  0.0855 -0.5452
  333SOL    HW1 1443   2.278   5.565   2.522  0.5851  0.1458 -1.1105
  333SOL    HW2 1444   2.362   5.450   2.469  0.1761 -0.7440  0.1176
  334SOL     OW 1445   0.829   1.560   2.687  0.1659  0.4279  0.3672
  334SOL    HW1 1446   0.861   1.590   2.602  1.4262 -2.1539 -0.1712
  334SOL    HW2 1447   0.891   1.493   2.714 -1.6367 -0.6569  2.1200
  335SOL     OW 1448   2.444   5.284   3.842  0.0090 -0.1851  0.0390
  335SOL    HW1 1449   2.390   5.206   3.853 -1.4289  0.9095  1.0230
  335SOL    HW2 1450   2.446   5.325   3.929  2.1935 -0.0140 -0.0239
  336SOL     OW 1451   0.151   4.575   5.114  0.0233 -0.2816  0.4383
  336SOL    HW1 1452   0.154   4.556   5.021 -1.8455  1.2979 -0.0159
  336SOL    HW2 1453   0.210   4.650   5.126 -0.5138  0.1728  0.3065
  337SOL     OW 1454   3.408   5.729   3.340 -0.3750  0.0945  0.1355
  337SOL    HW1 1455   3.423   5.638   3.366  1.7577  0.1706 -0.6142
  337SOL    HW2 1456   3.460   5.781   3.402 -0.8386  0.7505 -0.0103
  338SOL     OW 1457   3.092   2.254   2.688 -0.4893 -0.2329 -0.0580
  338SOL    HW1 1458   3.147   2.289   2.758  0.1613 -0.5947 -0.3790
  338SOL    HW2 1459   3.002   2.262   2.721 -0.2849  0.8606  0.2462
  339SOL     OW 1460   4.958   4.489   0.395 -0.2786 -0.5665 -0.0390
  339SOL    HW1 1461   4.917   4.430   0.458  1.6903 -1.3269  0.5996
  339SOL    HW2 1462   5.006   4.552   0.448 -1.1275  0.7352 -0.7499
  340SOL     OW 1463   3.904   3.182   1.641 -0.2958 -0.1241  0.2990
  340SOL    HW1 1464   3.988   3.143   1.666  0.9759  2.5720  0.5522
  340SOL    HW2 1465   3.860   3.200   1.723 -0.0001  0.7568  0.2673
  341SOL     OW 1466   5.930   1.976   3.460 -0.2369 -0.3221  0.5302
  341SOL    HW1 1467   5.904   1.915   3.391  2.0451  0.1683 -0.8744
  341SOL    HW2 1468   5.897   2.061   3.431  0.2239 -0.2126  0.3150
  342SOL     OW 1469   2.904   0.798   4.955 -0.9463  0.4739 -0.2005
  342SOL    HW1 1470   2.873   0.716   4.992  0.9126  0.5117  1.5986
  342SOL    HW2 1471   2.861   0.866   5.008  0.3078  0.5571  0.7616
  343SOL     OW 1472   1.618   0.530   0.537 -0.1503 -0.6381 -0.2928
  343SOL    HW1 1473   1.618   0.621   0.508  1.3744 -0.7535 -0.7635
  343SOL    HW2 1474   1.642   0.480   0.458  1.7332 -1.1656  0.5550
  344SOL     OW 1475   0.568   0.960   1.015  0.4170 -0.3872  0.1110
  344SOL    HW1 1476   0.504   0.900   0.977 -0.4339  1.7216 -2.0579
  344SOL    HW2 1477   0.648   0.945   0.965  0.7764 -0.9485  0.8255
  345SOL     OW 1478   3.828   0.807   1.841  0.7006 -0.1181 -0.4038
  345SOL    HW1 1479   3.923   0.803   1.850  0.6778  0.7905  0.4047
  345SOL    HW2 1480   3.813   0.868   1.769  0.7364 -1.3721 -1.5109
  346SOL     OW 1481   5.774   5.455   1.226  0.5461 -0.0233  0.1210
  346SOL    HW1 1482   5.825   5.395   1.281 -0.1001 -0.3532  0.3783
  346SOL    HW2 1483   5.722   5.397   1.170  1.3758  0.3128 -1.0160
  347SOL     OW 1484   3.379   0.973   4.499  0.3430  0.1525 -0.5200
  347SOL    HW1 1485   3.401   0.888   4.537 -0.0349 -0.4239 -1.5373
  347SOL    HW2 1486   3.445   1.033   4.534  0.0782 -0.3707  0.9117
  348SOL     OW 1487   0.799   0.665   0.861  0.5004  0.0553  0.2354
  348SOL    HW1 1488   0.795   0.742   0.917  2.6950 -0.0822  0.6628
  348SOL    HW2 1489   0.714   0.622   0.873 -0.4291  1.8986  0.6635
  349SOL     OW 1490   3.844   0.703   0.083 -0.2036  0.1607 -0.0138
  349SOL    HW1 1491   3.810   0.755   0.011  0.7670  1.2665  0.2982
  349SOL    HW2 1492   3.936   0.729   0.090  0.9653 -3.1287 -1.2208
  350SOL     OW 1493   2.279   2.295   4.935  0.0554  0.9494 -0.0408
  350SOL    HW1 1494   2.207   2.249   4.893  0.2512 -0.3671  0.9852
  350SOL    HW2 1495   2.340   2.315   4.864  0.9078 -2.2047 -0.3682
  351SOL     OW 1496   2.577   2.475   1.224 -0.0733  0.8261  0.0973
  351SOL    HW1 1497   2.503   2.482   1.163  1.1065 -0.0530 -1.5368
  351SOL    HW2 1498   2.545   2.419   1.295 -0.8127 -0.0299 -0.8734
  352SOL     OW 1499   5.023   5.075   6.004  0.2888 -0.1119  0.4007
  352SOL    HW1 1500   4.998   5.084   5.913  0.5895 -0.0971  0.3193
  352SOL    HW2 1501   5.080   4.998   6.006  0.6038  0.1244  0.5123
  353SOL     OW 1502   4.150   1.356   3.932 -0.0781  0.5590 -0.6313
  353SOL    HW1 1503   4.232   1.342   3.885 -0.1305 -0.6824 -0.3801
  353SOL    HW2 1504   4.157   1.445   3.967  0.4141  1.1196 -2.0721
  354SOL     OW 1505   4.821   3.810   1.443  0.4222 -0.2859  0.1968
  354SOL    HW1 1506   4.910   3.800   1.410 -0.4297 -1.1412 -2.0610
  354SOL    HW2 1507   4.826   3.781   1.534  3.1954  3.4781  1.5003
  355SOL     OW 1508   5.689   5.129   3.572  0.0980  0.3882 -0.4452
  355SOL    HW1 1509   5.629   5.154   3.502  0.1420  0.6504 -0.3894
  355SOL    HW2 1510   5.685   5.201   3.635 -0.0960  0.0635 -0.0776
  356SOL     OW 1511   0.321   0.145   1.821 -0.1085 -0.1997  0.3704
  356SOL    HW1 1512   0.247   0.116   1.875 -0.0169 -1.2050 -0.0187
  356SOL    HW2 1513   0.321   0.240   1.830 -0.8509 -0.2566  1.1522
  357SOL     OW 1514   0.027   4.689   5.990  0.4189 -0.1182  0.2142
  357SOL    HW1 1515  -0.061   4.687   6.027 -0.0261  1.2853 -0.7079
  357SOL    HW2 1516   0.068   4.768   6.027  1.9219 -1.5775  1.9104
  358SOL     OW 1517   5.378   4.532   2.134  0.2337  0.1021  0.0158
  358SOL    HW1 1518   5.322   4.455   2.133  0.3603 -0.0387  1.3207
  358SOL    HW2 1519   5.373   4.567   2.045 -0.2662 -1.0843 -0.4400
  359SOL     OW 1520   0.313   5.274   3.194  0.1035 -0.1174 -0.2484
  359SOL    HW1 1521   0.240   5.212   3.187 -2.1702  2.3908 -0.4712
  359SOL    HW2 1522   0.284   5.339   3.258  1.8746  1.3416 -0.8225
  360SOL     OW 1523   0.449   5.025   4.365 -0.7197 -0.1216 -0.2193
  360SOL    HW1 1524   0.490   5.026   4.279 -2.2098 -0.2393 -0.9454
  360SOL    HW2 1525   0.439   4.932   4.386  0.3259 -0.1057  0.4427
  361SOL     OW 1526   1.687   2.243   2.179 -0.0116 -0.7548 -0.2531
  361SOL    HW1 1527   1.716   2.331   2.153  1.1747 -1.1527 -0.3130
  361SOL    HW2 1528   1.662   2.253   2.271 -0.7349 -0.1651 -0.5015
  362SOL     OW 1529   5.057   0.231   5.090  0.2881 -0.5700 -0.2624
  362SOL    HW1 1530   5.076   0.228   5.184 -1.5311 -1.0869  0.1133
  362SOL    HW2 1531   5.130   0.281   5.053  0.9738 -0.2426  1.4296
  363SOL     OW 1532   5.649   0.219   4.912  0.0177  0.0292 -0.3169
  363SOL    HW1 1533   5.709   0.293   4.923  0.8977 -0.9559  2.4104
  363SOL    HW2 1534   5.694   0.161   4.851  0.0231  1.0072 -1.2763
  364SOL     OW 1535   3.592   1.246   3.806 -0.0857  0.0838 -0.0750
  364SOL    HW1 1536   3.638   1.301   3.743  1.0453  0.4623  1.0253
  364SOL    HW2 1537   3.518   1.300   3.836 -0.4805 -0.0057 -0.8739
  365SOL     OW 1538   5.529   1.444   4.492 -0.1156 -0.6732 -0.2643
  365SOL    HW1 1539   5.465   1.460   4.561 -0.4111 -0.3316 -0.6181
  365SOL    HW2 1540   5.568   1.359   4.515  1.4817  0.5010  1.6480
  366SOL     OW 1541   2.189   1.097   2.662 -0.0180  0.1952 -0.0372
  366SOL    HW1 1542   2.235   1.099   2.746 -0.1262  2.1269  0.0248
  366SOL    HW2 1543   2.232   1.166   2.610  0.9346 -1.7824 -2.0921
  367SOL     OW 1544   5.295   3.527   5.650  0.0491 -0.0173  0.3993
  367SOL    HW1 1545   5.319   3.601   5.593 -0.7239 -0.9736 -1.2280
  367SOL    HW2 1546   5.285   3.566   5.736 -0.2364  1.7693 -0.3964
  368SOL     OW 1547   3.046   5.192   3.421 -0.2809  0.4983  0.4344
  368SOL    HW1 1548   3.087   5.106   3.415  0.4762  0.9307 -1.4485
  368SOL    HW2 1549   2.996   5.201   3.340  0.7326  2.3131 -0.0642
  369SOL     OW 1550   1.421   3.368   1.504 -0.2179 -0.0919  0.3225
  369SOL    HW1 1551   1.413   3.331   1.416 -0.0664  0.1159  0.2180
  369SOL    HW2 1552   1.397   3.460   1.493 -2.2871 -0.5129  0.9040
  370SOL     OW 1553   3.070   3.850   5.073  0.2446 -0.3513 -0.1418
  370SOL    HW1 1554   3.054   3.892   4.989  1.5302  1.3662  0.4243
  370SOL    HW2 1555   3.077   3.757   5.052 -2.2627 -0.3171 -1.4993
  371SOL     OW 1556   2.887   0.462   2.937 -0.0526  0.6487  0.2862
  371SOL    HW1 1557   2.825   0.394   2.910 -3.1513  3.3069  0.1150
  371SOL    HW2 1558   2.911   0.506   2.855  0.2713  1.0774  0.6070
  372SOL     OW 1559   0.387   0.366   0.068 -0.0640 -1.0088  0.2173
  372SOL    HW1 1560   0.334   0.445   0.071  1.4242  0.0931 -1.0208
  372SOL    HW2 1561   0.330   0.298   0.105 -1.5839  0.4903  0.7967
  373SOL     OW 1562   0.242   5.989   1.592 -0.5349 -0.0108  0.3675
  373SOL    HW1 1563   0.176   6.043   1.549 -0.8812 -0.8504 -0.1905
  373SOL    HW2 1564   0.201   5.962   1.675 -0.3081  0.6841  0.7087
  374SOL     OW 1565   4.389   3.063   5.855 -0.3530  0.1427 -0.5191
  374SOL    HW1 1566   4.300   3.062   5.820 -1.1634  0.7566  1.4064
  374SOL    HW2 1567   4.423   2.975   5.836 -1.3152 -0.0501 -1.3999
  375SOL     OW 1568   5.520   6.039   4.318  0.4596  1.0348 -0.1632
  375SOL    HW1 1569   5.616   6.046   4.317  0.3812  2.4277 -0.0693
  375SOL    HW2 1570   5.493   6.061   4.229  0.2392  0.1243 -0.3311
  376SOL     OW 1571   2.217   4.757   6.046  0.3768 -0.2487 -0.2483
  376SOL    HW1 1572   2.228   4.759   6.141  2.4249 -0.4406 -0.4497
  376SOL    HW2 1573   2.126   4.783   6.032  0.7646  2.5068  1.6212
  377SOL     OW 1574   1.545   2.430   2.399  0.3725 -0.2464  0.3366
  377SOL    HW1 1575   1.450   2.423   2.405  0.2167 -0.1903 -1.5795
  377SOL    HW2 1576   1.562   2.525   2.398  0.7529 -0.1398  3.6432
  378SOL     OW 1577   5.713   1.643   5.005 -0.0575  0.2999 -0.5956
  378SOL    HW1 1578   5.676   1.651   4.917 -1.9317 -1.6173 -0.0817
  378SOL    HW2 1579   5.644   1.599   5.056  0.9457  1.3716  1.8563
  379SOL     OW 1580   4.016   4.240   3.360 -0.3085  0.3391 -0.5244
  379SOL    HW1 1581   3.983   4.169   3.306 -0.6080  0.6125 -0.7058
  379SOL    HW2 1582   3.955   4.245   3.434  0.5621 -0.5761  0.2914
  380SOL     OW 1583   0.188   5.452   1.964 -0.3621  0.2839 -0.3536
  380SOL    HW1 1584   0.237   5.428   2.043 -0.2751  1.1395 -0.1357
  380SOL    HW2 1585   0.103   5.407   1.975 -0.6338  0.9879  0.6035
  381SOL     OW 1586   5.119   4.324   4.074  0.0581  0.2520 -0.0266
  381SOL    HW1 1587   5.210   4.323   4.104  0.2390  0.3389 -0.5589
  381SOL    HW2 1588   5.077   4.391   4.127  0.1408 -0.2540  0.6859
  382SOL     OW 1589   5.895   5.559   3.220 -0.0933  0.0948  0.3137
  382SOL    HW1 1590   5.976   5.536   3.174 -0.7620 -0.0196 -0.8313
  382SOL    HW2 1591   5.857   5.629   3.168 -0.0014  1.2004  1.6724
  383SOL     OW 1592   5.419   2.857   0.788  0.7446  0.4993 -0.0261
  383SOL    HW1 1593   5.344   2.831   0.842  1.5696  0.5317  1.1881
  383SOL    HW2 1594   5.433   2.782   0.729  0.6738 -0.1554  0.7663
  384SOL     OW 1595   3.300   4.029   4.067  0.2455  0.4658 -0.7849
  384SOL    HW1 1596   3.224   4.030   4.124  0.2622  0.0938 -0.7538
  384SOL    HW2 1597   3.270   4.068   3.985  0.0511  0.4170 -0.7361
  385SOL     OW 1598   5.270   0.350   5.554  0.4019 -0.0673 -0.1345
  385SOL    HW1 1599   5.293   0.439   5.578  0.6410  0.4133 -1.9743
  385SOL    HW2 1600   5.223   0.359   5.471 -1.5842 -1.4792  0.7560
  386SOL     OW 1601   3.756   2.534   5.191  0.4432 -0.2135  0.0596
  386SOL    HW1 1602   3.775   2.541   5.098 -1.1725  1.0368 -0.2081
  386SOL    HW2 1603   3.812   2.600   5.233  0.9062 -0.5322 -0.0500
  387SOL     OW 1604   4.994   5.439   2.754 -0.5223 -0.5731 -0.0052
  387SOL    HW1 1605   4.909   5.446   2.797 -1.5053 -2.8149 -1.3779
  387SOL    HW2 1606   4.973   5.407   2.666  1.6866 -0.1121 -0.7544
  388SOL     OW 1607   0.900   0.623   5.457 -0.2728  0.4081  0.0445
  388SOL    HW1 1608   0.815   0.665   5.447  0.9265  3.0148 -0.0636
  388SOL    HW2 1609   0.922   0.591   5.369  0.6306  3.5546 -0.9958
  389SOL     OW 1610   2.890   3.814   0.764  0.0002  0.1182  0.9645
  389SOL    HW1 1611   2.845   3.841   0.844  0.3882  0.9154  0.9227
  389SOL    HW2 1612   2.835   3.745   0.728 -1.3589  1.2722  0.7508
  390SOL     OW 1613   1.869   2.397   5.197 -0.2255  0.3857  0.1349
  390SOL    HW1 1614   1.807   2.332   5.165  1.6818 -0.7056 -1.6069
  390SOL    HW2 1615   1.868   2.467   5.131 -0.0895  0.6746  0.4349
  391SOL     OW 1616   1.932   3.415   4.447 -0.5599 -0.0754 -0.2131
  391SOL    HW1 1617   1.877   3.400   4.524  0.8968 -0.7264  0.7489
  391SOL    HW2 1618   2.004   3.470   4.479 -0.4583  0.4989 -1.3641
  392SOL     OW 1619   5.795   1.490   4.282  0.0206 -0.0638  0.3618
  392SOL    HW1 1620   5.850   1.444   4.218  0.0033  0.8536 -0.3417
  392SOL    HW2 1621   5.712   1.443   4.282 -0.1685  0.2364 -0.7151
  393SOL     OW 1622   4.239   5.880   0.510  0.5623 -0.3133  0.3707
  393SOL    HW1 1623   4.230   5.818   0.438 -1.8475  2.7772 -2.3126
  393SOL    HW2 1624   4.272   5.960   0.469 -1.1699  1.6912  2.5907
  394SOL     OW 1625   0.052   0.751   5.404  0.2681  0.2581 -0.3334
  394SOL    HW1 1626   0.128   0.706   5.440 -0.8036  0.6061  2.5706
  394SOL    HW2 1627  -0.011   0.681   5.385  0.1312  0.2009  0.3129
  395SOL     OW 1628   1.361   2.172   0.573 -0.0647  0.2495  0.0813
  395SOL    HW1 1629   1.283   2.220   0.603  1.5984  2.6072  0.9369
  395SOL    HW2 1630   1.389   2.121   0.649 -0.7931 -0.6951 -0.2635
  396SOL     OW 1631   1.209   5.441   1.070  0.1686  0.1921 -0.1179
  396SOL    HW1 1632   1.205   5.352   1.034  0.6568 -0.2939  1.0115
  396SOL    HW2 1633   1.119   5.474   1.061  0.4352  0.4294 -2.5773
  397SOL     OW 1634   6.079   4.675   3.803 -0.5607 -0.2237  0.3993
  397SOL    HW1 1635   6.128   4.646   3.879  0.2566  0.6990  0.2343
  397SOL    HW2 1636   6.018   4.740   3.837  1.5129  2.1046 -0.0307
  398SOL     OW 1637   0.293   3.421   2.639 -0.4074  1.0379  0.2903
  398SOL    HW1 1638   0.313   3.332   2.611  2.5877  1.9485 -0.8719
  398SOL    HW2 1639   0.352   3.437   2.712  0.9156  2.7902 -1.0627
  399SOL     OW 1640   3.193   3.448   5.362  0.4999 -0.3205  0.6763
  399SOL    HW1 1641   3.207   3.444   5.268  0.5084  2.4166  0.4836
  399SOL    HW2 1642   3.098   3.454   5.373  0.4222 -1.7663  0.9381
  400SOL     OW 1643   2.364   3.197   0.322  0.2666  0.1640 -0.3887
  400SOL    HW1 1644   2.311   3.277   0.320  0.3125  0.2459  1.1378
  400SOL    HW2 1645   2.452   3.227   0.342  0.3140 -0.2484  0.0335
  401SOL     OW 1646   4.342   3.691   2.980  0.0813 -0.7643  0.1058
  401SOL    HW1 1647   4.284   3.620   2.953  0.9559 -2.0651  1.4650
  401SOL    HW2 1648   4.283   3.763   3.004 -0.8420 -1.1485 -0.9559
  402SOL     OW 1649   2.912   1.279   1.473  0.0043 -0.4789  0.6269
  402SOL    HW1 1650   2.982   1.293   1.409 -0.1916 -1.1905  0.2434
  402SOL    HW2 1651   2.947   1.211   1.531 -0.4238 -0.9681  0.3271
  403SOL     OW 1652   1.575   2.911   2.200  0.3837 -0.7243 -0.2633
  403SOL    HW1 1653   1.513   2.909   2.126 -0.3647 -0.0334  0.3238
  403SOL    HW2 1654   1.547   2.986   2.252  1.7819 -0.3511 -0.0194
  404SOL     OW 1655   4.716   3.429   5.725  0.3298  0.4777  0.0386
  404SOL    HW1 1656   4.779   3.496   5.700 -0.0542  1.1276  0.7736
  404SOL    HW2 1657   4.644   3.477   5.765 -0.3395 -0.3056 -0.1910
  405SOL     OW 1658   5.622   0.201   3.992  0.2820 -0.3345  0.0858
  405SOL    HW1 1659   5.588   0.113   4.009  1.0789 -0.8085 -0.7000
  405SOL    HW2 1660   5.694   0.211   4.055  1.6333 -1.1342 -1.2652
  406SOL     OW 1661   2.648   1.224   1.059 -0.3784 -0.6625 -0.2392
  406SOL    HW1 1662   2.573   1.183   1.103 -1.5299  2.7183  1.2704
  406SOL    HW2 1663   2.719   1.219   1.122 -0.9251  0.7637  0.5385
  407SOL     OW 1664   2.478   4.432   2.300 -0.0623  0.5707  0.2290
  407SOL    HW1 1665   2.451   4.474   2.382 -0.0962  0.1429  0.4374
  407SOL    HW2 1666   2.544   4.368   2.326  0.8256  1.2800 -0.2229
  408SOL     OW 1667   2.536   2.215   3.127  0.1405 -0.1937 -0.0645
  408SOL    HW1 1668   2.541   2.130   3.170 -0.9182 -0.7825 -1.0459
  408SOL    HW2 1669   2.626   2.236   3.104  0.3272 -1.4767 -0.5992
  409SOL     OW 1670   3.526   2.177   4.586 -0.1759  0.3611  0.3332
  409SOL    HW1 1671   3.608   2.139   4.553 -0.0815  1.7949 -1.2179
  409SOL    HW2 1672   3.553   2.257   4.631 -0.5779 -0.1745  1.5788
  410SOL     OW 1673   3.316   2.911   2.492 -0.1432 -0.4107  0.1034
  410SOL    HW1 1674   3.355   2.964   2.562 -0.0035  0.8824 -0.9072
  410SOL    HW2 1675   3.389   2.858   2.459  0.0273 -0.2847  0.2709
  411SOL     OW 1676   0.860   4.050   1.090 -0.3333 -0.8226 -0.4170
  411SOL    HW1 1677   0.876   3.956   1.097  0.4788 -0.6373  0.4008
  411SOL    HW2 1678   0.901   4.075   1.007  0.7354 -0.9527  0.0529
  412SOL     OW 1679   1.955   3.928   4.557  0.3202 -0.7655  0.3767
  412SOL    HW1 1680   1.913   3.845   4.534  1.5943 -1.1924 -0.5106
  412SOL    HW2 1681   2.013   3.905   4.630 -0.8222 -0.2078  1.5016
  413SOL     OW 1682   1.654   2.842   3.239 -0.1248 -0.0425  0.2626
  413SOL    HW1 1683   1.639   2.839   3.333 -1.4320  0.5478  0.0928
  413SOL    HW2 1684   1.600   2.914   3.208  1.3506  0.6863 -0.7667
  414SOL     OW 1685   5.885   2.145   0.584  0.1132 -0.2873 -0.6282
  414SOL    HW1 1686   5.980   2.148   0.595  0.1695 -1.1593 -0.7895
  414SOL    HW2 1687   5.868   2.202   0.509  0.3134  1.2307  0.4370
  415SOL     OW 1688   5.903   4.310   2.956  0.1642  0.3823  0.8433
  415SOL    HW1 1689   5.959   4.268   2.891  0.5487  0.8427  0.8724
  415SOL    HW2 1690   5.827   4.252   2.963  0.8210 -0.4687  1.1074
  416SOL     OW 1691   2.673   5.271   4.333 -0.1744 -0.1100 -0.6212
  416SOL    HW1 1692   2.757   5.296   4.295  0.8108  0.9150  2.0335
  416SOL    HW2 1693   2.637   5.352   4.368 -1.4924 -0.8332 -0.2165
  417SOL     OW 1694   4.460   3.718   4.471 -0.1784  0.0299 -0.0702
  417SOL    HW1 1695   4.525   3.732   4.540  0.6851  1.4136 -1.0971
  417SOL    HW2 1696   4.480   3.631   4.436 -0.5513 -0.6302  1.3193
  418SOL     OW 1697   1.544   2.527   2.913  0.5070  0.2096 -0.6419
  418SOL    HW1 1698   1.481   2.455   2.921  0.1046  0.4065 -1.8072
  418SOL    HW2 1699   1.583   2.535   3.000 -1.8431  0.8044  0.4239
  419SOL     OW 1700   5.605   5.896   1.828  0.0773  0.0262 -0.3858
  419SOL    HW1 1701   5.545   5.840   1.877 -0.3319  0.6852 -0.1298
  419SOL    HW2 1702   5.606   5.859   1.740 -0.6459 -0.0329 -0.3700
  420SOL     OW 1703   0.420   0.531   3.658 -0.2540 -0.1776 -0.1711
  420SOL    HW1 1704   0.439   0.467   3.726  1.3021 -0.2537 -0.6253
  420SOL    HW2 1705   0.329   0.556   3.672 -0.2165 -0.8298  1.3884
  421SOL     OW 1706   5.752   3.383   4.640 -0.4642  0.4146  0.3997
  421SOL    HW1 1707   5.680   3.375   4.578 -0.1958 -0.1774  0.1639
  421SOL    HW2 1708   5.794   3.297   4.641 -0.5632  0.3609  1.5231
  422SOL     OW 1709   1.232   4.171   2.162 -0.1032  0.8336 -0.0193
  422SOL    HW1 1710   1.143   4.154   2.194 -0.2893  1.5849 -0.1149
  422SOL    HW2 1711   1.265   4.240   2.219 -0.1552  1.6420 -0.9555
  423SOL     OW 1712   4.269   0.717   5.839  0.0485 -0.3035 -0.0700
  423SOL    HW1 1713   4.323   0.666   5.779  0.1528  1.0823 -1.2260
  423SOL    HW2 1714   4.217   0.652   5.886  1.3377 -1.5459 -0.2971
  424SOL     OW 1715   2.263   5.043   0.652 -0.1034 -0.2926  0.3383
  424SOL    HW1 1716   2.354   5.035   0.681  0.5465 -0.6869 -1.6232
  424SOL    HW2 1717   2.246   5.137   0.650  0.7440 -0.1490 -0.6069
  425SOL     OW 1718   5.590   3.034   2.675 -0.3156 -0.2877  0.3446
  425SOL    HW1 1719   5.657   3.080   2.726 -0.4203 -0.8043  0.9626
  425SOL    HW2 1720   5.637   2.962   2.634 -0.6227 -1.1389  1.4318
  426SOL     OW 1721   4.359   5.821   0.876  0.6254 -0.2394  0.3174
  426SOL    HW1 1722   4.327   5.906   0.846 -0.6018 -0.3376  1.2764
  426SOL    HW2 1723   4.444   5.840   0.916  0.9729  0.3158 -0.6532
  427SOL     OW 1724   5.482   5.647   5.941 -0.4941 -0.1184 -0.5211
  427SOL    HW1 1725   5.394   5.665   5.976 -0.0014 -0.5853  1.0410
  427SOL    HW2 1726   5.467   5.627   5.849 -2.3813 -2.5870  0.1987
  428SOL     OW 1727   1.265   5.732   3.456  0.2670 -0.2840 -0.2116
  428SOL    HW1 1728   1.291   5.758   3.367 -1.0085  1.4734 -0.1274
  428SOL    HW2 1729   1.348   5.717   3.502  0.9700 -0.1118 -1.3837
  429SOL     OW 1730   2.321   3.746   5.586 -0.2251  0.3153 -0.6393
  429SOL    HW1 1731   2.296   3.788   5.668 -1.6232  1.0544 -1.4058
  429SOL    HW2 1732   2.340   3.655   5.611 -0.4359  0.5662  0.5175
  430SOL     OW 1733   0.250   5.709   5.642 -0.0048 -0.3233  0.0300
  430SOL    HW1 1734   0.168   5.751   5.616 -1.2293 -2.4720  0.1746
  430SOL    HW2 1735   0.297   5.697   5.559 -0.1387  0.2938 -0.1430
  431SOL     OW 1736   5.924   2.397   4.252  0.4064  0.4620 -0.0778
  431SOL    HW1 1737   5.993   2.425   4.192  1.0354  0.1802  0.5013
  431SOL    HW2 1738   5.863   2.348   4.198  0.5303  0.9309 -0.6448
  432SOL     OW 1739   4.288   4.645   0.414 -0.1866 -0.0356  0.1710
  432SOL    HW1 1740   4.194   4.629   0.417 -0.6823  2.4611  0.0758
  432SOL    HW2 1741   4.314   4.618   0.326 -0.8414 -0.5645  0.1300
  433SOL     OW 1742   4.922   2.651   4.081  0.3234 -0.1561 -0.4072
  433SOL    HW1 1743   4.978   2.699   4.142  1.4798 -0.6957 -1.0088
  433SOL    HW2 1744   4.861   2.603   4.137  0.6379  0.2349  0.2784
  434SOL     OW 1745   4.894   0.154   3.449 -0.3277 -0.1766 -0.1666
  434SOL    HW1 1746   4.807   0.114   3.456  0.0053 -1.0502 -0.7663
  434SOL    HW2 1747   4.907   0.199   3.532 -1.1431 -0.4854  0.1381
  435SOL     OW 1748   2.966   6.063   6.102  0.2171  0.6433  0.0463
  435SOL    HW1 1749   2.995   6.107   6.182 -2.0472  1.2829  0.5825
  435SOL    HW2 1750   2.909   6.127   6.059  0.9741  0.1139 -1.8400
  436SOL     OW 1751   0.846   2.316   1.563  0.0304  0.0945 -0.6994
  436SOL    HW1 1752   0.844   2.240   1.622  1.8880 -0.0504 -0.7651
  436SOL    HW2 1753   0.905   2.290   1.492  1.7570  2.0211 -0.0732
  437SOL     OW 1754   0.352   4.200   2.020  0.5324  0.2618 -0.2059
  437SOL    HW1 1755   0.433   4.151   2.009 -0.2866 -1.3598  0.5793
  437SOL    HW2 1756   0.365   4.251   2.100  0.3581 -0.9949  0.6652
  438SOL     OW 1757   0.968   3.783   0.887 -0.4278  0.7724  0.2646
  438SOL    HW1 1758   0.961   3.697   0.927 -1.2996  0.8502  0.2970
  438SOL    HW2 1759   1.060   3.807   0.897  0.3788 -1.1391 -1.8350
  439SOL     OW 1760   5.107   5.175   0.093 -0.8225  0.8821 -0.4558
  439SOL    HW1 1761   5.090   5.108   0.159 -1.6786  2.1944  0.7024
  439SOL    HW2 1762   5.080   5.133   0.010 -1.0708 -0.2955  0.1933
  440SOL     OW 1763   0.531   5.485   5.649 -0.1998  0.4332 -0.0352
  440SOL    HW1 1764   0.514   5.391   5.660  0.2694  0.2507 -0.8225
  440SOL    HW2 1765   0.476   5.510   5.575  0.4581  0.5465 -0.4946
  441SOL     OW 1766   3.834   0.939   5.983  0.2867 -0.7396  0.3999
  441SOL    HW1 1767   3.926   0.917   5.966  0.7305  0.9042  0.4220
  441SOL    HW2 1768   3.836   1.033   6.001 -1.6751 -0.1694 -1.8456
  442SOL     OW 1769   5.028   1.874   0.463  0.3585 -0.4406 -0.3500
  442SOL    HW1 1770   5.123   1.879   0.461  0.3139  0.5332 -1.7874
  442SOL    HW2 1771   4.999   1.942   0.402 -1.2099 -2.0481 -1.5103
  443SOL     OW 1772   5.645   2.374   2.611 -0.0071  0.7425 -0.1760
  443SOL    HW1 1773   5.673   2.386   2.702  0.1623  0.5868 -0.2069
  443SOL    HW2 1774   5.714   2.320   2.571 -0.5321  0.0349 -0.1572
  444SOL     OW 1775   3.120   0.070   2.983  0.0002  0.1018 -0.2568
  444SOL    HW1 1776   3.085   0.130   2.917  0.6403  2.2706  1.2919
  444SOL    HW2 1777   3.144  -0.008   2.933 -0.3196  1.3211 -2.4498
  445SOL     OW 1778   4.886   2.266   4.072  0.6405  0.8255 -0.1287
  445SOL    HW1 1779   4.944   2.226   4.008  0.0617  0.0321 -0.1711
  445SOL    HW2 1780   4.817   2.308   4.020 -0.0628 -0.1759 -0.0502
  446SOL     OW 1781   5.728   4.491   1.407  0.6424  0.1127 -0.0844
  446SOL    HW1 1782   5.650   4.445   1.437  0.9791 -1.4796 -1.4844
  446SOL    HW2 1783   5.792   4.478   1.477  0.8321 -1.9124 -0.5602
  447SOL     OW 1784   3.328   4.309   5.077 -0.1554  0.6916 -0.4298
  447SOL    HW1 1785   3.241   4.339   5.102 -0.3138  0.3464 -0.5555
  447SOL    HW2 1786   3.385   4.385   5.090 -0.1653  0.4349  1.2979
  448SOL     OW 1787   0.742   5.276   0.289  0.2374  0.4912 -0.4374
  448SOL    HW1 1788   0.774   5.186   0.290  0.8116  0.6812  0.7450
  448SOL    HW2 1789   0.693   5.284   0.207  0.2419 -0.8630 -0.5869
  449SOL     OW 1790   3.997   1.939   2.675 -0.2864 -0.1477  0.2379
  449SOL    HW1 1791   3.918   1.968   2.721 -0.7869 -1.2139  0.0837
  449SOL    HW2 1792   3.976   1.851   2.645 -0.3220  0.7729 -2.8016
  450SOL     OW 1793   2.940   0.669   3.120 -0.0311 -0.0342  0.0363
  450SOL    HW1 1794   3.006   0.736   3.104 -1.2579  1.1541 -0.2428
  450SOL    HW2 1795   2.944   0.612   3.044  0.6492  0.0209  0.0203
  451SOL     OW 1796   1.269   2.586   4.614 -0.7935  0.6456 -0.0847
  451SOL    HW1 1797   1.331   2.591   4.540 -1.0465  0.9925 -0.2739
  451SOL    HW2 1798   1.285   2.499   4.652  2.3135  1.9809  2.0776
  452SOL     OW 1799   3.224   2.081   2.275 -0.4909  0.0243 -0.2786
  452SOL    HW1 1800   3.227   1.999   2.323  0.7026  1.6209  2.5933
  452SOL    HW2 1801   3.141   2.121   2.300 -2.4827 -1.3880 -3.8963
  453SOL     OW 1802   3.474   1.603   2.729  0.2992 -1.0038  0.0219
  453SOL    HW1 1803   3.547   1.576   2.673  0.3014 -0.0366 -0.4696
  453SOL    HW2 1804   3.399   1.604   2.670 -0.1741 -2.1896  0.5685
  454SOL     OW 1805   4.065   2.112   5.784 -0.6113  0.8320  0.4186
  454SOL    HW1 1806   4.049   2.042   5.848  0.4884  0.2303  0.0445
  454SOL    HW2 1807   4.067   2.192   5.837 -0.0609  0.3807  1.0940
  455SOL     OW 1808   3.914   2.913   4.446  0.3347 -0.2001  0.5130
  455SOL    HW1 1809   3.946   2.970   4.516 -0.9234 -0.1715  1.0935
  455SOL    HW2 1810   3.819   2.922   4.449  0.1266 -1.9267  0.2588
  456SOL     OW 1811   2.118   2.620   4.928  0.1032  0.1441  0.6125
  456SOL    HW1 1812   2.088   2.649   5.014  0.1635  2.0847  0.0186
  456SOL    HW2 1813   2.214   2.623   4.934  0.1145 -0.3944  0.6973
  457SOL     OW 1814   5.983   4.106   2.391 -0.6071  0.1674  0.0241
  457SOL    HW1 1815   5.973   4.076   2.481 -0.3341 -0.5071 -0.1680
  457SOL    HW2 1816   5.902   4.079   2.347 -0.6080  0.2262 -0.0108
  458SOL     OW 1817   1.910   0.360   0.804 -0.2356  0.1611 -0.1904
  458SOL    HW1 1818   1.877   0.298   0.869  1.3565  1.5613  2.1118
  458SOL    HW2 1819   1.970   0.308   0.750  0.6457 -0.5040  1.3379
  459SOL     OW 1820   3.073   2.166   6.034  0.5834  0.6809  0.1666
  459SOL    HW1 1821   3.134   2.238   6.050  1.7732 -0.5579  1.3886
  459SOL    HW2 1822   3.119   2.108   5.973  0.0995  0.3671  0.0900
  460SOL     OW 1823   0.803   4.894   1.386 -0.2087  0.3647 -0.1140
  460SOL    HW1 1824   0.820   4.853   1.471  1.8056  0.1506 -0.5638
  460SOL    HW2 1825   0.780   4.821   1.329 -1.0736  0.4484  0.1148
  461SOL     OW 1826   5.754   3.484   5.067  0.5966  0.1209 -0.0157
  461SOL    HW1 1827   5.811   3.412   5.095  0.0811  0.2057  1.3283
  461SOL    HW2 1828   5.720   3.521   5.149  1.1064  2.1145 -0.6479
  462SOL     OW 1829   2.131   1.302   1.841 -0.4060 -0.2539  0.5825
  462SOL    HW1 1830   2.124   1.309   1.936 -1.2789 -1.9022  0.6695
  462SOL    HW2 1831   2.107   1.389   1.809  1.5835  0.8631  1.8912
  463SOL     OW 1832   4.893   2.671   0.656 -0.2751  0.0819  0.2817
  463SOL    HW1 1833   4.888   2.711   0.570 -1.4218  1.0818  0.7799
  463SOL    HW2 1834   4.853   2.584   0.645 -1.8535  0.7983  0.1095
  464SOL     OW 1835   1.891   2.234   2.912 -0.2612  0.2843  0.1364
  464SOL    HW1 1836   1.846   2.299   2.857  0.9557  0.9657 -0.0878
  464SOL    HW2 1837   1.928   2.285   2.984  0.0838 -0.2755  0.3634
  465SOL     OW 1838   2.527   0.134   4.682  0.0995 -0.5589  0.5073
  465SOL    HW1 1839   2.515   0.040   4.666 -0.0578 -0.2631 -1.2487
  465SOL    HW2 1840   2.594   0.161   4.619 -1.9882  1.0781 -1.1513
  466SOL     OW 1841   1.373   4.793   5.460  0.3837  0.6344 -0.3871
  466SOL    HW1 1842   1.289   4.806   5.504  0.5862  2.4640 -0.4661
  466SOL    HW2 1843   1.431   4.759   5.529 -0.9077 -2.9508 -0.8443
  467SOL     OW 1844   3.013   5.474   5.232  0.6298  0.6705 -0.4566
  467SOL    HW1 1845   2.986   5.530   5.305  0.1650  0.2297 -0.2844
  467SOL    HW2 1846   2.964   5.393   5.244  1.9029 -0.0990 -0.2288
  468SOL     OW 1847   0.871   5.912   4.373  0.0005 -0.1203  0.1733
  468SOL    HW1 1848   0.804   5.850   4.403 -0.4450 -0.1043 -0.7441
  468SOL    HW2 1849   0.825   5.996   4.368  0.5569  0.2733  1.2413
  469SOL     OW 1850   1.539   5.072   5.726 -0.7115 -0.1449  0.2899
  469SOL    HW1 1851   1.445   5.056   5.733 -0.5057 -0.7970  2.3697
  469SOL    HW2 1852   1.577   5.022   5.798  0.8319  2.9496  1.8573
  470SOL     OW 1853   5.298   1.755   1.578  0.0659 -0.2859 -0.3447
  470SOL    HW1 1854   5.291   1.675   1.526 -0.4595  0.1804 -1.0150
  470SOL    HW2 1855   5.291   1.726   1.668  0.4774 -1.0596 -0.5509
  471SOL     OW 1856   0.871   2.869   1.367  0.2961  0.1005 -0.1896
  471SOL    HW1 1857   0.836   2.956   1.386  1.1709  0.5162 -0.4115
  471SOL    HW2 1858   0.966   2.882   1.364  0.3489 -0.4051 -2.4197
  472SOL     OW 1859   3.553   4.762   2.107 -0.2140 -0.4449 -0.0654
  472SOL    HW1 1860   3.565   4.778   2.014  0.7447  0.0392  0.1326
  472SOL    HW2 1861   3.641   4.757   2.143 -0.5614 -0.9829  0.7651
  473SOL     OW 1862   1.345   4.340   2.357 -0.0033 -0.4477  0.2076
  473SOL    HW1 1863   1.421   4.282   2.357  0.4357  0.0095 -2.5688
  473SOL    HW2 1864   1.299   4.319   2.439  2.8551 -0.9969  1.7994
  474SOL     OW 1865   0.144   3.464   0.098 -0.7261 -0.3348 -0.1199
  474SOL    HW1 1866   0.201   3.505   0.164 -0.4490 -3.1143  1.5423
  474SOL    HW2 1867   0.202   3.444   0.025 -0.3263 -0.0994  0.1288
  475SOL     OW 1868   2.652   1.991   1.563  0.0350 -0.2527  0.3240
  475SOL    HW1 1869   2.682   1.909   1.601  0.6612  1.1679  3.1736
  475SOL    HW2 1870   2.723   2.017   1.504  0.1002 -1.4365 -0.1388
  476SOL     OW 1871   1.663   1.145   0.016  0.0935 -0.0975  0.0933
  476SOL    HW1 1872   1.594   1.095   0.060 -1.9172  2.7433  0.3969
  476SOL    HW2 1873   1.659   1.115  -0.075 -0.2268 -1.2967  0.4754
  477SOL     OW 1874   5.863   0.224   4.123  0.4257 -0.2604  0.2214
  477SOL    HW1 1875   5.903   0.294   4.072  0.4790  0.2858  1.0050
  477SOL    HW2 1876   5.836   0.266   4.204 -0.1475 -1.0071  0.4204
  478SOL     OW 1877   1.035   4.304   3.999  0.4653 -0.8144 -0.6124
  478SOL    HW1 1878   0.963   4.242   4.011  0.2809 -0.5300 -0.2245
  478SOL    HW2 1879   1.089   4.293   4.078 -0.4717  0.6978  0.2905
  479SOL     OW 1880   2.718   1.369   2.322  0.0845 -0.7626  0.2871
  479SOL    HW1 1881   2.687   1.436   2.262 -0.7826 -1.3658  0.0300
  479SOL    HW2 1882   2.788   1.411   2.372  1.7215 -0.6434 -1.9965
  480SOL     OW 1883   3.440   0.188   1.463 -0.2192 -0.0993 -0.0259
  480SOL    HW1 1884   3.519   0.133   1.462 -1.2969 -1.7028 -0.8108
  480SOL    HW2 1885   3.407   0.181   1.553  1.0429  1.4564  0.6314
  481SOL     OW 1886   3.368   0.518   4.656 -0.1605  0.6351  0.0730
  481SOL    HW1 1887   3.323   0.441   4.621  0.3510  1.0609 -1.6195
  481SOL    HW2 1888   3.458   0.509   4.624 -0.1421  2.0302 -0.3386
  482SOL     OW 1889   5.669   4.061   4.458 -0.1690  0.1843  0.7867
  482SOL    HW1 1890   5.603   4.075   4.389  0.5297 -0.0766  0.0519
  482SOL    HW2 1891   5.631   3.992   4.513  1.4985 -3.8018 -2.4922
  483SOL     OW 1892   5.248   4.953   5.852  0.2207 -0.0689  0.3377
  483SOL    HW1 1893   5.224   5.007   5.777  0.4978  2.2279  1.7833
  483SOL    HW2 1894   5.207   4.868   5.835  0.9136  0.0822 -2.7285
  484SOL     OW 1895   2.297   5.522   3.241 -0.3600 -0.1428  0.2560
  484SOL    HW1 1896   2.311   5.527   3.147  2.1591 -0.8578  0.5177
  484SOL    HW2 1897   2.318   5.610   3.273  1.5838 -0.5973  0.3793
  485SOL     OW 1898   5.309   3.622   1.974 -0.2307  0.1680  0.6446
  485SOL    HW1 1899   5.332   3.647   1.885  0.7739 -0.9343  0.5712
  485SOL    HW2 1900   5.390   3.587   2.011 -0.7880  0.0421  1.7809
  486SOL     OW 1901   5.756   0.697   4.848 -0.5350  0.1207 -0.0236
  486SOL    HW1 1902   5.799   0.729   4.928  1.3011  1.8486 -1.5797
  486SOL    HW2 1903   5.820   0.638   4.809 -1.9646 -1.7695  0.3838
  487SOL     OW 1904   5.689   1.265   5.528 -0.3885  0.1909  0.0006
  487SOL    HW1 1905   5.645   1.257   5.613 -1.9938 -1.0820 -0.9001
  487SOL    HW2 1906   5.725   1.178   5.511  0.6534  0.6557 -0.2837
  488SOL     OW 1907   3.877   1.986   5.570 -0.0536  0.0287 -0.6452
  488SOL    HW1 1908   3.784   1.969   5.558  0.3194 -0.9850 -2.4889
  488SOL    HW2 1909   3.907   1.917   5.629 -0.6471  1.0299  0.8790
  489SOL     OW 1910   4.811   0.819   4.413 -1.1473  0.8527  0.1130
  489SOL    HW1 1911   4.759   0.751   4.370 -0.9364  0.8398 -0.1273
  489SOL    HW2 1912   4.825   0.885   4.344 -0.4734  0.6455  0.0491
  490SOL     OW 1913   0.103   0.075   4.524  0.2963 -0.2711  0.2969
  490SOL    HW1 1914   0.097  -0.016   4.552  0.1255 -1.0333 -1.9793
  490SOL    HW2 1915   0.193   0.101   4.545  0.2617 -0.8721  1.2208
  491SOL     OW 1916   0.047   1.562   1.606 -0.1503 -0.2452  0.0580
  491SOL    HW1 1917   0.112   1.557   1.676 -0.0798 -0.0536  0.0083
  491SOL    HW2 1918   0.055   1.478   1.560  0.4183 -0.0300 -0.2575
  492SOL     OW 1919   3.049   0.707   2.744 -0.2987  0.1499  0.5796
  492SOL    HW1 1920   3.080   0.773   2.682  0.7915 -1.3149 -0.5280
  492SOL    HW2 1921   2.954   0.715   2.742 -0.2474  0.7270 -0.6400
  493SOL     OW 1922   2.933   4.095   5.210  0.9767  0.6339 -0.0956
  493SOL    HW1 1923   2.861   4.065   5.155 -0.3181  1.7518  0.9344
  493SOL    HW2 1924   2.990   4.018   5.219 -0.2879 -0.3899 -0.5959
  494SOL     OW 1925   5.934   1.592   6.043  0.1300  0.5139  0.5287
  494SOL    HW1 1926   5.857   1.599   5.987  0.3407  0.4794  0.2343
  494SOL    HW2 1927   5.927   1.666   6.103 -1.1925 -0.5825  1.8281
  495SOL     OW 1928   0.886   4.813   2.019  0.0165  0.4685  0.1821
  495SOL    HW1 1929   0.798   4.788   1.990  0.7619 -1.5058 -0.5768
  495SOL    HW2 1930   0.884   4.799   2.114 -0.9954  2.2566  0.4705
  496SOL     OW 1931   2.234   5.220   4.878 -0.0092 -0.2618  0.2765
  496SOL    HW1 1932   2.163   5.157   4.864  0.4072 -0.6068 -0.3034
  496SOL    HW2 1933   2.299   5.171   4.928  0.9082 -0.7345 -1.3200
  497SOL     OW 1934   1.862   1.287   0.767 -0.1734  0.1538  0.0604
  497SOL    HW1 1935   1.794   1.334   0.817 -0.8541 -0.4351 -0.2905
  497SOL    HW2 1936   1.850   1.316   0.677 -2.1241 -2.3224 -0.5877
  498SOL     OW 1937   2.383   5.025   2.639  0.3750 -0.0168  0.5332
  498SOL    HW1 1938   2.296   5.062   2.649 -1.0412 -2.5751 -1.2197
  498SOL    HW2 1939   2.387   4.955   2.705  0.2672 -1.2095 -0.6822
  499SOL     OW 1940   5.173   4.500   4.889  0.1216  0.4628 -0.0847
  499SOL    HW1 1941   5.203   4.411   4.870  0.2344  0.6447 -0.7949
  499SOL    HW2 1942   5.109   4.489   4.960  0.1141 -0.1871 -0.1837
  500SOL     OW 1943   0.361   0.066   3.039  0.6606 -0.2259 -0.4379
  500SOL    HW1 1944   0.300   0.040   2.970  0.4951  0.1833 -0.4474
  500SOL    HW2 1945   0.333   0.017   3.116  1.2639 -1.2137 -0.8193
  501SOL     OW 1946   4.107   1.414   4.654  0.2656 -0.1835  0.1960
  501SOL    HW1 1947   4.035   1.471   4.682  0.1156 -0.5861  0.6333
  501SOL    HW2 1948   4.065   1.331   4.631  0.2446  0.4017 -2.1855
  502SOL     OW 1949   0.431   2.163   5.875 -0.6099  0.4817  0.2302
  502SOL    HW1 1950   0.518   2.202   5.880 -0.0974 -0.5158 -0.5722
  502SOL    HW2 1951   0.433   2.092   5.939 -1.2092  1.1217  0.9832
  503SOL     OW 1952   0.133   4.450   4.288  0.1057  0.1331 -0.4531
  503SOL    HW1 1953   0.100   4.495   4.366  0.8132 -1.2174  0.6680
  503SOL    HW2 1954   0.228   4.450   4.299  0.1285 -1.5805 -0.4399
  504SOL     OW 1955   4.720   2.023   1.547  0.0086  0.6366 -0.1920
  504SOL    HW1 1956   4.803   2.069   1.559  0.0259  0.7989 -0.8620
  504SOL    HW2 1957   4.683   2.016   1.635  1.6026 -1.1289  0.3875
  505SOL     OW 1958   5.836   1.383   1.031  0.5002 -0.0457  0.4706
  505SOL    HW1 1959   5.814   1.324   0.959  3.3778 -1.0022  0.2085
  505SOL    HW2 1960   5.919   1.423   1.004  0.7079  0.9828  2.4525
  506SOL     OW 1961   1.603   4.399   5.365 -0.3361  0.7923 -0.4228
  506SOL    HW1 1962   1.689   4.386   5.406  0.2936  2.1442 -1.2306
  506SOL    HW2 1963   1.623   4.406   5.272 -1.2361  1.7507 -0.5589
  507SOL     OW 1964   2.020   2.499   0.999 -0.4991  0.5085  0.0210
  507SOL    HW1 1965   2.020   2.529   0.908  0.1964 -0.6622 -0.3924
  507SOL    HW2 1966   1.976   2.414   0.996  0.4148 -0.0082  0.5909
  508SOL     OW 1967   0.094   0.761   0.816 -0.6647 -0.2708  0.2890
  508SOL    HW1 1968   0.063   0.746   0.727  0.0617 -2.2175  0.3036
  508SOL    HW2 1969   0.054   0.843   0.842 -0.7344  0.4648 -1.8966
  509SOL     OW 1970   1.208   2.420   5.076  0.4283  0.2425  0.5692
  509SOL    HW1 1971   1.145   2.396   5.008 -1.7641  0.6524  2.3167
  509SOL    HW2 1972   1.154   2.453   5.148  2.3997 -1.9585  3.2892
  510SOL     OW 1973   2.461   1.659   0.000  0.2235 -0.1262 -0.4018
  510SOL    HW1 1974   2.551   1.650   0.034  0.2589 -0.6207 -0.6144
  510SOL    HW2 1975   2.466   1.624  -0.089  0.0448  0.8134 -0.7849
  511SOL     OW 1976   0.965   1.905   5.785  0.3810  0.2219 -0.0422
  511SOL    HW1 1977   1.029   1.835   5.774  0.3297  0.1042  0.3889
  511SOL    HW2 1978   1.001   1.960   5.855  0.6129  0.8502 -0.6357
  512SOL     OW 1979   2.947   5.079   0.530  0.6175  0.0069 -0.5024
  512SOL    HW1 1980   2.953   5.116   0.442  0.8059  0.2783 -0.3786
  512SOL    HW2 1981   2.900   5.145   0.580  0.6723 -0.0647 -0.3567
  513SOL     OW 1982   2.607   1.288   4.794 -0.6459  0.1698  0.2136
  513SOL    HW1 1983   2.556   1.255   4.720  1.5054 -0.7609 -0.9491
  513SOL    HW2 1984   2.621   1.212   4.850  0.3492  0.1636 -0.0319
  514SOL     OW 1985   2.617   1.336   3.831  0.6915  0.3754 -0.4601
  514SOL    HW1 1986   2.583   1.259   3.786  1.4121 -0.4741  0.4035
  514SOL    HW2 1987   2.635   1.399   3.761 -1.7741  0.5522 -1.0209
  515SOL     OW 1988   5.531   3.986   0.580  0.1890  0.5892  0.0569
  515SOL    HW1 1989   5.535   3.953   0.669  0.0817 -2.5382 -0.9561
  515SOL    HW2 1990   5.623   3.996   0.553  0.3279 -1.2327 -0.3063
  516SOL     OW 1991   0.116   1.948   2.165  0.4640 -0.9235 -0.1315
  516SOL    HW1 1992   0.108   1.988   2.079  2.4794 -0.9564 -0.3819
  516SOL    HW2 1993   0.058   2.000   2.221  0.4487  0.1948 -1.1439
  517SOL     OW 1994   0.378   3.214   5.489  0.0342  0.2289 -0.6205
  517SOL    HW1 1995   0.444   3.147   5.504  0.0164  0.4291  0.5003
  517SOL    HW2 1996   0.298   3.179   5.529 -0.6179 -0.1050 -2.1520
  518SOL     OW 1997   3.792   3.214   5.874 -0.1593  0.0440  0.2743
  518SOL    HW1 1998   3.844   3.140   5.843  2.2818  0.8843  2.0425
  518SOL    HW2 1999   3.838   3.291   5.842 -1.2417  0.8514  0.5835
  519SOL     OW 2000   5.612   4.603   0.094  0.0922  0.4474  0.5246
  519SOL    HW1 2001   5.585   4.685   0.135 -1.4661  1.2613 -1.8626
  519SOL    HW2 2002   5.702   4.618   0.067 -0.2372  1.5111 -0.0703
  520SOL     OW 2003   2.673   0.636   4.289  0.0693 -0.5519  0.2230
  520SOL    HW1 2004   2.629   0.716   4.260  1.1194 -0.8716 -2.4756
  520SOL    HW2 2005   2.761   0.664   4.315 -0.1290 -0.6161  1.0106
  521SOL     OW 2006   3.642   2.550   5.668 -0.2309  0.7908 -0.1533
  521SOL    HW1 2007   3.642   2.642   5.693 -2.3488  1.0474 -0.8512
  521SOL    HW2 2008   3.563   2.514   5.709  0.5764 -0.7367  0.1490
  522SOL     OW 2009   0.891   2.565   2.405 -1.1759 -0.4708  0.0136
  522SOL    HW1 2010   0.845   2.636   2.450 -1.1814  0.3184 -1.1885
  522SOL    HW2 2011   0.982   2.594   2.401 -1.3032 -0.1746 -1.1110
  523SOL     OW 2012   0.557   1.364   3.964 -0.3636  0.8397 -0.3459
  523SOL    HW1 2013   0.591   1.454   3.959  2.4352 -0.0414  0.6661
  523SOL    HW2 2014   0.503   1.363   4.043 -0.8823  1.7652 -0.6788
  524SOL     OW 2015   1.382   4.023   4.601  0.1936  0.3149 -0.8180
  524SOL    HW1 2016   1.334   4.034   4.683 -1.5279 -0.6892 -1.6570
  524SOL    HW2 2017   1.469   3.993   4.628 -0.5101 -0.5230  0.6208
  525SOL     OW 2018   5.748   3.234   0.986  0.0017 -0.1000 -0.2532
  525SOL    HW1 2019   5.653   3.225   0.987  0.0866 -1.3005 -0.6604
  525SOL    HW2 2020   5.764   3.327   0.970 -1.0876  0.3199  0.9682
  526SOL     OW 2021   5.041   5.703   0.952  0.2531  0.0280 -0.3299
  526SOL    HW1 2022   5.128   5.669   0.933 -0.0389 -0.2498 -1.1954
  526SOL    HW2 2023   4.982   5.630   0.934 -0.0533 -0.2983  1.7899
  527SOL     OW 2024   1.505   4.967   2.841 -0.5911  0.0194  1.0794
  527SOL    HW1 2025   1.495   5.062   2.854  1.8539  0.4559  0.2460
  527SOL    HW2 2026   1.474   4.952   2.752  2.0752  0.6997 -0.0631
  528SOL     OW 2027   3.050   3.123   4.648  0.2630 -0.5963 -0.5520
  528SOL    HW1 2028   3.023   3.203   4.693 -0.9914 -1.8135  1.0172
  528SOL    HW2 2029   2.982   3.059   4.671  1.8651 -2.4448 -0.6882
  529SOL     OW 2030   3.792   5.841   0.338  0.4421  0.1388  0.0856
  529SOL    HW1 2031   3.783   5.787   0.259  2.1855 -1.3780  0.8447
  529SOL    HW2 2032   3.808   5.778   0.408 -0.3654  1.5031  1.5603
  530SOL     OW 2033   3.192   5.665   0.874 -0.3540 -0.4295  0.0921
  530SOL    HW1 2034   3.227   5.744   0.915 -2.6489 -0.1280  1.6211
  530SOL    HW2 2035   3.258   5.641   0.808  1.4605  1.4514  1.1172
  531SOL     OW 2036   3.646   1.894   2.950  0.2952  0.1193  0.4296
  531SOL    HW1 2037   3.715   1.913   3.014  0.1159  1.0675  0.3643
  531SOL    HW2 2038   3.681   1.928   2.867  0.1031 -0.1760  0.2259
  532SOL     OW 2039   6.121   6.123   4.799 -0.0444  0.4913 -0.4481
  532SOL    HW1 2040   6.144   6.069   4.723 -1.4679  1.1314 -1.3767
  532SOL    HW2 2041   6.101   6.060   4.868  1.7939 -0.0962 -0.3894
  533SOL     OW 2042   3.407   3.672   3.368 -0.0425  0.0146  0.4918
  533SOL    HW1 2043   3.443   3.637   3.450  0.1405 -0.6337  0.1415
  533SOL    HW2 2044   3.387   3.763   3.388  0.2244 -0.0721  1.1915
  534SOL     OW 2045   3.606   1.675   5.724 -0.5336  0.3483 -0.1587
  534SOL    HW1 2046   3.699   1.654   5.719 -0.4146 -0.1329  2.4992
  534SOL    HW2 2047   3.585   1.670   5.817 -3.2507  0.3920 -0.6731
  535SOL     OW 2048   1.504   4.645   5.970  0.2137  0.8805  0.0276
  535SOL    HW1 2049   1.596   4.620   5.971  0.1742  0.6795  2.4477
  535SOL    HW2 2050   1.486   4.662   5.877  2.2980 -0.3725 -0.6841
  536SOL     OW 2051   0.182   2.104   4.486 -0.3808  0.1042  0.1805
  536SOL    HW1 2052   0.215   2.190   4.512 -1.4524  0.2721  1.0327
  536SOL    HW2 2053   0.112   2.086   4.547 -0.4427 -1.2059 -0.2559
  537SOL     OW 2054   1.457   1.359   3.263 -0.2902 -0.2348 -0.0796
  537SOL    HW1 2055   1.467   1.265   3.278 -0.0351 -0.1202  0.5089
  537SOL    HW2 2056   1.532   1.383   3.210 -0.0094 -0.2463  0.3120
  538SOL     OW 2057   0.707   1.240   2.004 -0.0754 -0.0617 -0.0541
  538SOL    HW1 2058   0.661   1.312   1.960  0.1749  2.0705  2.8946
  538SOL    HW2 2059   0.652   1.219   2.079  0.9722 -1.4591  0.3575
  539SOL     OW 2060   4.720   5.565   2.523  0.2401 -0.0888  0.1671
  539SOL    HW1 2061   4.630   5.599   2.517  0.1899 -0.3163 -0.4739
  539SOL    HW2 2062   4.718   5.505   2.597 -0.3430 -0.6667 -0.2977
  540SOL     OW 2063   1.243   3.957   4.390  0.1297 -0.8080  0.5873
  540SOL    HW1 2064   1.303   3.991   4.457  0.0521 -1.1093  0.8086
  540SOL    HW2 2065   1.277   3.871   4.368  1.0593 -0.1154 -0.8898
  541SOL     OW 2066   3.947   2.008   0.858 -0.0007  0.0829  0.5289
  541SOL    HW1 2067   4.016   2.019   0.793 -0.1482 -0.8785  0.1992
  541SOL    HW2 2068   3.868   1.994   0.807 -0.7335  2.5397  0.8790
  542SOL     OW 2069   2.211   1.508   6.126  0.2008  0.3075  0.2342
  542SOL    HW1 2070   2.288   1.554   6.092  0.5027  0.1744  0.7227
  542SOL    HW2 2071   2.220   1.419   6.092  1.4263 -0.3147  1.9992
  543SOL     OW 2072   0.583   1.209   5.525 -0.2227  0.2005  0.2744
  543SOL    HW1 2073   0.537   1.153   5.588  0.9152  0.9268  1.8175
  543SOL    HW2 2074   0.626   1.148   5.465 -0.3638 -0.5469  0.9159
  544SOL     OW 2075   3.791   4.640   6.020 -0.0639  0.3490 -0.7150
  544SOL    HW1 2076   3.838   4.587   5.957  0.9256 -0.9945  1.0601
  544SOL    HW2 2077   3.733   4.579   6.065  0.2557  0.9614  0.5954
  545SOL     OW 2078   2.924   4.286   0.421  0.8607 -0.0756 -0.2676
  545SOL    HW1 2079   2.925   4.265   0.328 -0.0758 -1.6810  0.0335
  545SOL    HW2 2080   2.873   4.214   0.461  1.1130  0.6489  1.4498
  546SOL     OW 2081   3.093   5.762   3.225  0.1557  0.0095 -0.3063
  546SOL    HW1 2082   3.101   5.759   3.321  0.0288 -0.6277 -0.3093
  546SOL    HW2 2083   3.143   5.839   3.199 -0.4877  0.6642  0.3413
  547SOL     OW 2084   0.057   2.252   5.020 -0.3872  0.4596 -0.3473
  547SOL    HW1 2085   0.033   2.338   4.987  0.8883  0.5308 -1.1681
  547SOL    HW2 2086  -0.017   2.196   4.997 -0.7962  1.1236 -0.6881
  548SOL     OW 2087   2.788   2.910   2.415  0.0354  0.0620 -0.5224
  548SOL    HW1 2088   2.804   2.992   2.369  0.9416  0.7149  0.9089
  548SOL    HW2 2089   2.873   2.884   2.448  0.0054 -2.1280 -1.9606
  549SOL     OW 2090   0.807   5.532   4.730 -0.3403 -0.6655 -0.4583
  549SOL    HW1 2091   0.880   5.551   4.790 -0.1049 -1.1180 -0.5976
  549SOL    HW2 2092   0.837   5.565   4.645 -0.5056 -0.3971 -0.4136
  550SOL     OW 2093   0.107   5.918   1.839  0.1525 -0.0089  0.4501
  550SOL    HW1 2094   0.063   6.000   1.863 -0.2543  0.0425 -0.4166
  550SOL    HW2 2095   0.136   5.881   1.922  1.1315  1.4562  0.8023
  551SOL     OW 2096   4.104   1.238   1.189  0.2536  0.7623  0.5730
  551SOL    HW1 2097   4.118   1.276   1.103 -1.4289 -0.4123 -0.2653
  551SOL    HW2 2098   4.076   1.312   1.244 -2.2677  0.9820 -0.8365
  552SOL     OW 2099   6.024   4.375   1.864  0.4574 -0.0102 -0.1281
  552SOL    HW1 2100   5.998   4.350   1.952  0.9179  1.4912  0.4668
  552SOL    HW2 2101   6.117   4.396   1.871  0.5941 -0.2535 -1.0643
  553SOL     OW 2102   4.018   1.055   2.590 -0.2168  0.5842  0.3050
  553SOL    HW1 2103   3.995   0.970   2.627  0.6656  0.7965  1.3848
  553SOL    HW2 2104   4.070   1.035   2.512  1.7709  0.0963  1.6973
  554SOL     OW 2105   5.730   3.486   4.190 -0.0529  0.9337  0.0773
  554SOL    HW1 2106   5.765   3.504   4.277 -1.1874 -1.3523  1.0852
  554SOL    HW2 2107   5.723   3.572   4.149  2.5579  1.8881  1.3794
  555SOL     OW 2108   3.968   1.311   5.083 -0.0905  0.0111 -0.3180
  555SOL    HW1 2109   3.897   1.368   5.055 -1.0988 -1.7737 -1.5963
  555SOL    HW2 2110   4.046   1.348   5.043 -0.6078  0.8721 -0.5545
  556SOL     OW 2111   1.101   4.842   3.372  0.7579 -0.0395  0.0541
  556SOL    HW1 2112   1.168   4.910   3.362  0.0449  0.5236 -1.1501
  556SOL    HW2 2113   1.128   4.772   3.312  0.9979 -0.4287  0.6063
  557SOL     OW 2114   6.129   5.741   1.650 -0.3069  0.1427  0.8828
  557SOL    HW1 2115   6.039   5.758   1.676 -0.0027  1.6480  1.0480
  557SOL    HW2 2116   6.181   5.805   1.699  0.8915 -0.9002  1.0353
  558SOL     OW 2117   5.573   0.512   5.170  0.7019  0.2477 -0.4936
  558SOL    HW1 2118   5.598   0.584   5.228  0.0805 -1.0318  1.4980
  558SOL    HW2 2119   5.636   0.442   5.191 -1.2617 -1.2292  0.8403
  559SOL     OW 2120   1.947   4.565   0.233  0.2068  0.3954 -0.7519
  559SOL    HW1 2121   1.884   4.603   0.172 -0.3964  0.5014 -0.0729
  559SOL    HW2 2122   2.016   4.631   0.239 -0.1326  0.7455 -0.6868
  560SOL     OW 2123   3.367   0.262   2.528  0.0773  0.7974 -0.0406
  560SOL    HW1 2124   3.368   0.334   2.465 -0.2362  1.4296  0.6658
  560SOL    HW2 2125   3.341   0.186   2.477 -1.7712  1.6065 -0.3656
  561SOL     OW 2126   4.462   1.091   3.263  0.1732  0.5372 -0.1437
  561SOL    HW1 2127   4.380   1.064   3.222  0.9512 -0.5262 -1.0984
  561SOL    HW2 2128   4.442   1.173   3.307 -1.9843 -0.7910  1.6018
  562SOL     OW 2129   0.245   2.551   0.336 -0.5675  0.2733 -0.2236
  562SOL    HW1 2130   0.193   2.536   0.258  0.0667  0.9132 -0.7782
  562SOL    HW2 2131   0.279   2.640   0.327  1.5472 -0.4831 -0.4385
  563SOL     OW 2132   0.525   1.974   3.055 -0.1269 -0.8252  0.2925
  563SOL    HW1 2133   0.453   2.035   3.035  0.9589  0.6709  0.7708
  563SOL    HW2 2134   0.534   1.921   2.976 -0.3787  0.3914 -0.5870
  564SOL     OW 2135   1.017   2.438   0.855 -0.8769  0.6593 -0.1270
  564SOL    HW1 2136   1.037   2.503   0.922  0.2417  1.5840 -1.2970
  564SOL    HW2 2137   0.922   2.440   0.846 -0.8895  1.9085  0.1062
  565SOL     OW 2138   0.748   3.474   4.792 -0.1161 -0.1764  0.4418
  565SOL    HW1 2139   0.672   3.527   4.766 -0.3197 -1.0877 -0.8802
  565SOL    HW2 2140   0.821   3.536   4.793 -0.4433  0.2489 -0.5831
  566SOL     OW 2141   5.956   4.065   2.675 -0.7160  0.0344  0.1871
  566SOL    HW1 2142   5.867   4.091   2.649 -0.7231  1.1466  1.2208
  566SOL    HW2 2143   5.950   3.971   2.692 -0.9417 -0.5770 -2.7447
  567SOL     OW 2144   5.637   2.159   0.088 -0.0289  0.0719  0.6674
  567SOL    HW1 2145   5.646   2.103   0.165 -2.4518 -2.4074 -0.6776
  567SOL    HW2 2146   5.693   2.119   0.022 -1.5144 -0.6866 -0.2013
  568SOL     OW 2147   5.780   0.637   2.510  0.4711 -0.0601 -0.7238
  568SOL    HW1 2148   5.840   0.695   2.557 -1.5847  0.2401  1.7074
  568SOL    HW2 2149   5.768   0.562   2.569 -1.7766  0.0478 -0.9835
  569SOL     OW 2150   6.090   1.509   2.528  0.2412 -0.5501 -0.2868
  569SOL    HW1 2151   6.127   1.587   2.569  0.0270 -0.1057 -0.9296
  569SOL    HW2 2152   6.073   1.449   2.601 -1.0196  0.5921  0.3939
  570SOL     OW 2153   5.731   5.493   0.388 -0.0611  0.2656 -0.1149
  570SOL    HW1 2154   5.799   5.500   0.322 -0.1343 -1.1898 -0.3894
  570SOL    HW2 2155   5.677   5.419   0.360 -0.0209 -0.4790  1.6115
  571SOL     OW 2156   2.778   2.949   4.393  0.3792 -0.1504 -0.0892
  571SOL    HW1 2157   2.826   2.878   4.351  0.7601  0.3793 -0.5596
  571SOL    HW2 2158   2.815   2.955   4.481 -1.1850 -2.0121  0.7769
  572SOL     OW 2159   1.720   1.811   2.229 -0.0312  0.5499 -0.3988
  572SOL    HW1 2160   1.786   1.804   2.160 -0.4613  1.8561 -0.9801
  572SOL    HW2 2161   1.741   1.740   2.289  1.7864  0.7926 -0.6743
  573SOL     OW 2162   1.829   3.185   3.179 -0.3370  0.5634 -0.0014
  573SOL    HW1 2163   1.877   3.213   3.101 -1.6536  1.5539 -0.4907
  573SOL    HW2 2164   1.835   3.259   3.239  1.8418 -0.7022  1.4644
  574SOL     OW 2165   1.832   4.491   3.942  0.2210  0.6327  0.5145
  574SOL    HW1 2166   1.739   4.500   3.962  0.1446 -2.1750  1.9454
  574SOL    HW2 2167   1.834   4.435   3.865  0.7346  1.2706  0.0599
  575SOL     OW 2168   5.965   4.224   0.341 -0.2559 -0.0344  0.4222
  575SOL    HW1 2169   6.041   4.204   0.287 -0.0560 -1.4559  1.1792
  575SOL    HW2 2170   6.002   4.251   0.425 -0.5706  1.6355  0.0503
  576SOL     OW 2171   2.285   0.319   5.798 -0.4112 -0.2335 -0.1122
  576SOL    HW1 2172   2.252   0.234   5.829 -1.2157  0.0472 -0.1808
  576SOL    HW2 2173   2.244   0.330   5.712 -0.7843  0.4940  0.1528
  577SOL     OW 2174   5.249   2.284   1.297 -0.1638  0.0427 -0.1136
  577SOL    HW1 2175   5.255   2.372   1.260  1.1052 -0.0102 -0.0561
  577SOL    HW2 2176   5.171   2.287   1.353  0.0973  1.2397  0.2079
  578SOL     OW 2177   0.837   4.925   5.619  0.0028 -0.0275 -0.3534
  578SOL    HW1 2178   0.810   5.016   5.633  2.1667  0.9104 -1.7279
  578SOL    HW2 2179   0.769   4.888   5.563  0.1428  1.4372 -1.5720
  579SOL     OW 2180   2.888   1.703   6.002  0.4453  0.0695  0.3437
  579SOL    HW1 2181   2.829   1.779   6.001  0.2943 -0.0289  1.4082
  579SOL    HW2 2182   2.882   1.669   6.091 -1.3698 -2.6791 -0.7147
  580SOL     OW 2183   3.629   1.678   6.031  0.1506 -0.2043  0.6021
  580SOL    HW1 2184   3.712   1.635   6.011  0.6242  1.0131 -0.1560
  580SOL    HW2 2185   3.650   1.771   6.033 -1.1614  0.1143  0.6241
  581SOL     OW 2186   2.190   4.146   0.777 -0.3787 -0.5908 -0.0785
  581SOL    HW1 2187   2.267   4.139   0.832 -0.6593 -2.0572  0.1835
  581SOL    HW2 2188   2.210   4.217   0.716 -0.1311  1.1992  1.9764
  582SOL     OW 2189   3.478   5.459   3.089 -0.5631 -0.1274 -0.6933
  582SOL    HW1 2190   3.483   5.373   3.047 -1.5133 -0.8827  0.6780
  582SOL    HW2 2191   3.539   5.453   3.163 -0.1958  0.5948 -0.9237
  583SOL     OW 2192   0.176   1.831   3.701  0.1110 -0.1011  0.2095
  583SOL    HW1 2193   0.119   1.810   3.775 -0.6239 -1.6802 -0.7484
  583SOL    HW2 2194   0.264   1.830   3.738 -0.2795 -0.2738  1.1772
  584SOL     OW 2195   1.235   0.319   5.145 -0.2813  0.3887  0.3161
  584SOL    HW1 2196   1.250   0.225   5.149 -0.5530  0.3008 -0.5852
  584SOL    HW2 2197   1.322   0.357   5.144 -0.1638  0.2130  1.7515
  585SOL     OW 2198   1.320   1.366   4.085 -0.5156  0.5440  0.7381
  585SOL    HW1 2199   1.264   1.435   4.120 -2.5062 -0.3480 -0.5157
  585SOL    HW2 2200   1.346   1.398   3.999  1.9933  1.4661  1.7326
  586SOL     OW 2201   0.329   0.879   5.512  0.2670  0.5574  0.5585
  586SOL    HW1 2202   0.293   0.791   5.507  0.7829  0.3390  0.5369
  586SOL    HW2 2203   0.381   0.888   5.432  0.1503  0.9122  0.5201
  587SOL     OW 2204   2.890   4.454   3.504 -0.7341 -0.2153 -0.0614
  587SOL    HW1 2205   2.931   4.513   3.568  0.2152 -0.6567 -0.2470
  587SOL    HW2 2206   2.941   4.374   3.509 -0.8340 -0.3634 -1.1693
  588SOL     OW 2207   4.718   1.761   0.648  0.8038 -0.1870 -0.5877
  588SOL    HW1 2208   4.696   1.680   0.602 -0.1823 -0.7374  0.7999
  588SOL    HW2 2209   4.648   1.822   0.626  0.3426 -0.4438  0.1353
  589SOL     OW 2210   4.819   3.270   2.397 -0.5717 -0.0513  0.1621
  589SOL    HW1 2211   4.748   3.216   2.364  0.3296 -1.8246  0.9768
  589SOL    HW2 2212   4.781   3.320   2.469 -0.8317 -1.6086  1.1472
  590SOL     OW 2213   4.087   5.527   3.706  0.0767 -0.1640  0.0594
  590SOL    HW1 2214   4.179   5.501   3.711  0.0246 -0.4544 -0.4322
  590SOL    HW2 2215   4.057   5.526   3.797  0.4600 -0.4406  0.1863
  591SOL     OW 2216   2.841   3.733   3.070  0.2135  0.3491 -0.3228
  591SOL    HW1 2217   2.818   3.809   3.017  0.0172  1.4149  1.2259
  591SOL    HW2 2218   2.936   3.723   3.058  0.1028  0.2769 -1.2130
  592SOL     OW 2219   5.187   5.157   4.035 -0.3941  0.0914  0.7646
  592SOL    HW1 2220   5.142   5.236   4.066 -1.5106 -0.0295 -0.4467
  592SOL    HW2 2221   5.271   5.158   4.081 -0.6715  1.6059  1.3181
  593SOL     OW 2222   0.066   3.163   2.145 -0.1216 -0.0181 -0.5237
  593SOL    HW1 2223  -0.022   3.147   2.178 -0.0789  0.6443 -0.0658
  593SOL    HW2 2224   0.120   3.173   2.223  0.0580  1.1741 -0.7817
  594SOL     OW 2225   2.765   2.205   0.818 -0.0757  0.1176 -0.2232
  594SOL    HW1 2226   2.775   2.147   0.894  3.0438  0.7843 -0.0070
  594SOL    HW2 2227   2.673   2.231   0.821 -0.3652 -0.8128  2.6315
  595SOL     OW 2228   5.926   1.357   2.880  0.0875 -0.2256 -0.0882
  595SOL    HW1 2229   5.861   1.287   2.869 -0.5888  0.2978  0.4857
  595SOL    HW2 2230   5.914   1.413   2.804  0.7465 -0.8065 -0.6380
  596SOL     OW 2231   3.459   2.698   1.964 -0.6059  0.4682  0.5595
  596SOL    HW1 2232   3.378   2.672   2.008 -1.8799 -0.2519 -1.9957
  596SOL    HW2 2233   3.514   2.619   1.965  0.4112  1.1305  2.8354
  597SOL     OW 2234   0.582   2.293   0.662 -0.2754  0.2279  0.1339
  597SOL    HW1 2235   0.595   2.206   0.625  1.2468  0.6390 -0.3951
  597SOL    HW2 2236   0.509   2.283   0.723 -0.7002 -1.2045 -0.5743
  598SOL     OW 2237   4.362   0.396   1.688 -0.2479 -0.3867 -0.0458
  598SOL    HW1 2238   4.443   0.355   1.718 -0.5920 -1.5248 -0.5987
  598SOL    HW2 2239   4.389   0.460   1.622  0.2546 -0.1945  0.3486
  599SOL     OW 2240   3.270   4.764   2.379 -0.4740  0.0465 -0.0074
  599SOL    HW1 2241   3.233   4.683   2.344  2.4172 -0.5499 -2.1034
  599SOL    HW2 2242   3.363   4.745   2.391 -0.0849  2.4448  1.5250
  600SOL     OW 2243   4.902   1.188   0.610  0.0767 -0.2693  0.1453
  600SOL    HW1 2244   4.930   1.169   0.520  1.4979 -0.3503  0.5711
  600SOL    HW2 2245   4.817   1.231   0.601 -0.5467 -1.6955 -1.1498
  601SOL     OW 2246   0.050   3.506   4.566  0.2536  0.1990  0.4909
  601SOL    HW1 2247   0.026   3.597   4.582  0.0139  0.1036  0.6708
  601SOL    HW2 2248   0.010   3.485   4.481  1.4063  0.6593 -0.1898
  602SOL     OW 2249   1.164   3.000   3.550  0.6146 -0.1679 -0.0730
  602SOL    HW1 2250   1.247   3.002   3.503  0.8868  0.7231  0.4294
  602SOL    HW2 2251   1.099   3.029   3.485  0.9887  1.0750  0.0873
  603SOL     OW 2252   4.041   5.521   4.006  0.0514  1.0155 -0.0746
  603SOL    HW1 2253   4.060   5.562   4.090 -0.6191  2.2296 -0.4861
  603SOL    HW2 2254   4.106   5.451   3.998  1.0670  1.8205  0.7956
  604SOL     OW 2255   3.840   2.952   2.296  0.3090  0.6800 -0.1120
  604SOL    HW1 2256   3.840   2.974   2.389  1.4802  0.1217  0.0421
  604SOL    HW2 2257   3.748   2.957   2.270  0.0575  1.5728  0.8921
  605SOL     OW 2258   3.013   1.511   3.060 -0.0379 -0.5815 -0.3680
  605SOL    HW1 2259   2.945   1.479   3.001 -1.8874 -0.5319  1.6310
  605SOL    HW2 2260   3.004   1.458   3.139  1.1459  0.5478  0.5764
  606SOL     OW 2261   5.679   0.182   5.839  1.0365  0.6604 -0.5331
  606SOL    HW1 2262   5.627   0.102   5.842 -0.0796  1.3802  1.4760
  606SOL    HW2 2263   5.769   0.152   5.843  0.6788 -0.5241 -0.9667
  607SOL     OW 2264   5.631   5.708   1.613  0.3676  0.3410  0.7460
  607SOL    HW1 2265   5.655   5.688   1.522 -2.1804  1.0028 -0.1444
  607SOL    HW2 2266   5.709   5.686   1.663  2.4097  1.3134 -1.7483
  608SOL     OW 2267   3.067   5.835   1.620  0.2756  0.4194  0.1458
  608SOL    HW1 2268   3.134   5.782   1.662  0.0096 -0.7638 -0.8514
  608SOL    HW2 2269   2.992   5.832   1.680 -0.3317 -1.7821 -0.6073
  609SOL     OW 2270   4.413   4.332   3.501  0.0545 -0.0258  0.4329
  609SOL    HW1 2271   4.360   4.351   3.424  1.1762 -0.7379 -0.5617
  609SOL    HW2 2272   4.452   4.417   3.525  0.9934 -0.0639 -0.8276
  610SOL     OW 2273   3.595   2.438   1.976  0.5736  0.2997  0.2613
  610SOL    HW1 2274   3.584   2.345   1.997  0.4966  0.6606  1.9543
  610SOL    HW2 2275   3.528   2.456   1.910 -1.5331 -0.1475  2.1662
  611SOL     OW 2276   5.321   0.066   1.339  0.4296  0.0538  0.0210
  611SOL    HW1 2277   5.408   0.026   1.335  0.0262 -1.0361  1.2992
  611SOL    HW2 2278   5.280   0.042   1.256  2.2929  3.0683 -1.9595
  612SOL     OW 2279   1.952   2.446   2.327 -0.4884 -0.0163  0.3753
  612SOL    HW1 2280   1.976   2.517   2.386 -1.7782  1.4025 -0.7292
  612SOL    HW2 2281   1.888   2.395   2.376 -1.7918  1.3341  0.1627
  613SOL     OW 2282   2.637   0.760   6.106  0.7095  0.2087 -0.1148
  613SOL    HW1 2283   2.684   0.840   6.084  1.7139  0.5782  2.9428
  613SOL    HW2 2284   2.624   0.716   6.022  1.0394  3.0428 -1.7744
  614SOL     OW 2285   0.705   3.871   0.796  0.3757  0.1094 -0.2924
  614SOL    HW1 2286   0.751   3.943   0.753  2.8574 -1.5129 -0.5674
  614SOL    HW2 2287   0.772   3.804   0.808 -1.6288 -1.8300  0.7239
  615SOL     OW 2288   1.925   2.250   5.530 -0.0017  0.0621  0.3737
  615SOL    HW1 2289   1.944   2.163   5.566 -0.1148 -0.1758 -0.1254
  615SOL    HW2 2290   1.877   2.232   5.449  0.1915  0.5876  0.1392
  616SOL     OW 2291   4.571   0.181   2.491  0.3981  0.3815  0.2056
  616SOL    HW1 2292   4.567   0.277   2.487  0.5607  0.3336 -2.1209
  616SOL    HW2 2293   4.610   0.155   2.408  0.5515 -1.7181  0.8831
  617SOL     OW 2294   0.081   0.445   3.684  0.2553 -0.0982  0.3887
  617SOL    HW1 2295   0.123   0.362   3.662  1.3452  0.1547  1.4010
  617SOL    HW2 2296   0.063   0.439   3.778  0.0623  0.6844  0.4081
  618SOL     OW 2297   5.173   3.568   6.122  0.4075  0.0230  0.3985
  618SOL    HW1 2298   5.115   3.511   6.070 -0.0001  0.5455  0.2783
  618SOL    HW2 2299   5.116   3.606   6.189  0.7112  0.1814  0.5667
  619SOL     OW 2300   2.508   5.917   4.565 -0.1776  0.2317 -0.4496
  619SOL    HW1 2301   2.552   5.837   4.592 -0.9900 -0.3273 -0.7453
  619SOL    HW2 2302   2.566   5.956   4.500  0.7407  0.4557  0.4683
  620SOL     OW 2303   1.950   3.489   5.589 -0.2197 -0.0862  0.1533
  620SOL    HW1 2304   1.929   3.465   5.679  1.2144 -0.9886  0.2750
  620SOL    HW2 2305   1.919   3.415   5.537 -0.7703  0.2980 -0.0774
  621SOL     OW 2306   2.467   0.654   2.705  0.2301 -0.2698  0.1380
  621SOL    HW1 2307   2.484   0.618   2.792  0.1695  2.0769  1.2086
  621SOL    HW2 2308   2.554   0.673   2.669  0.2331 -0.0567  0.2515
  622SOL     OW 2309   3.551   3.993   1.238  0.1029  0.1124 -0.2775
  622SOL    HW1 2310   3.515   4.035   1.160 -0.2702 -0.4010 -0.3940
  622SOL    HW2 2311   3.478   3.987   1.298  0.3877  0.4923  0.1116
  623SOL     OW 2312   3.897   3.205   3.984  0.9659 -0.3126  0.3894
  623SOL    HW1 2313   3.818   3.152   3.990  0.1225  0.5911 -1.6863
  623SOL    HW2 2314   3.969   3.142   3.987  0.0300 -1.5198 -1.0264
  624SOL     OW 2315   2.028   2.353   0.670  0.6300 -0.2538 -0.4348
  624SOL    HW1 2316   1.963   2.370   0.603 -0.8551  0.6404  1.1558
  624SOL    HW2 2317   2.006   2.267   0.705  0.4901 -0.0983 -0.1304
  625SOL     OW 2318   0.441   2.159   3.601 -0.4021 -0.1618  0.2301
  625SOL    HW1 2319   0.352   2.185   3.575 -0.6635  0.1504  1.3613
  625SOL    HW2 2320   0.497   2.194   3.533 -1.1954 -0.8665 -0.8160
  626SOL     OW 2321   0.896   1.115   3.477  0.7713 -0.1006 -0.4965
  626SOL    HW1 2322   0.907   1.045   3.541  1.3151  0.8117  0.4178
  626SOL    HW2 2323   0.842   1.075   3.408  0.1299 -1.0729  0.5362
  627SOL     OW 2324   2.874   3.584   5.084  0.3636 -0.3430  0.5471
  627SOL    HW1 2325   2.858   3.610   4.994 -0.1031  0.7472  0.9287
  627SOL    HW2 2326   2.930   3.506   5.077  0.2392 -0.3395 -0.6706
  628SOL     OW 2327   4.497   4.309   2.883  0.1884  0.1153 -0.2259
  628SOL    HW1 2328   4.564   4.311   2.815  1.0500 -0.3108  0.5894
  628SOL    HW2 2329   4.514   4.388   2.935 -0.6459  0.5925 -0.6542
  629SOL     OW 2330   1.435   5.451   5.589 -0.2303 -0.2090  0.4076
  629SOL    HW1 2331   1.430   5.423   5.680 -0.2212 -1.2667  0.0993
  629SOL    HW2 2332   1.343   5.467   5.564 -0.3581 -1.1067  0.2609
  630SOL     OW 2333   2.557   2.498   5.551 -0.3173 -0.4961 -0.7237
  630SOL    HW1 2334   2.531   2.573   5.604 -1.5321 -0.8176 -0.8406
  630SOL    HW2 2335   2.504   2.506   5.471 -0.4380 -1.4678 -0.7448
  631SOL     OW 2336   3.933   3.539   6.065 -0.0674 -0.2182  0.2120
  631SOL    HW1 2337   3.842   3.523   6.041 -0.3983  2.6860 -0.8766
  631SOL    HW2 2338   3.928   3.592   6.144  0.7215 -0.6570  0.5648
  632SOL     OW 2339   3.269   4.026   0.174 -0.6967  0.0818 -0.5759
  632SOL    HW1 2340   3.212   3.966   0.222 -1.6510  1.0064 -0.5194
  632SOL    HW2 2341   3.326   4.064   0.241 -0.9551  0.1787 -0.4077
  633SOL     OW 2342   4.279   2.520   2.117  0.0118  0.0253  0.0750
  633SOL    HW1 2343   4.303   2.610   2.136 -1.0454  0.7520 -1.7804
  633SOL    HW2 2344   4.337   2.494   2.045 -1.5650  0.2629 -1.3557
  634SOL     OW 2345   5.627   0.147   1.787 -0.3894 -0.8032 -0.0647
  634SOL    HW1 2346   5.574   0.071   1.810 -0.7384 -0.3513  0.6795
  634SOL    HW2 2347   5.609   0.162   1.694 -1.0032 -1.0990  0.0030
  635SOL     OW 2348   2.110   1.230   0.530  0.3997 -0.3773 -0.2621
  635SOL    HW1 2349   2.097   1.308   0.476 -1.0242 -0.7859 -0.5553
  635SOL    HW2 2350   2.132   1.265   0.616  1.3333  0.3055 -0.7526
  636SOL     OW 2351   2.637   2.363   2.624 -0.4286  0.2493 -0.0813
  636SOL    HW1 2352   2.712   2.315   2.589  1.0024  2.0905  0.2607
  636SOL    HW2 2353   2.634   2.339   2.716  0.1212  0.5862  0.0313
  637SOL     OW 2354   4.231   3.927   0.159 -0.1912 -0.0233  0.7277
  637SOL    HW1 2355   4.313   3.887   0.190  1.3819  1.9219 -0.6293
  637SOL    HW2 2356   4.229   3.906   0.065 -1.3212 -0.1280  0.7696
  638SOL     OW 2357   5.389   3.743   2.273 -0.1013 -0.1510 -0.0520
  638SOL    HW1 2358   5.318   3.705   2.222  0.6067 -2.1689  0.3610
  638SOL    HW2 2359   5.438   3.668   2.306  0.5193  1.1072  2.1224
  639SOL     OW 2360   2.674   2.199   1.289  0.2724 -0.0643  0.3188
  639SOL    HW1 2361   2.703   2.275   1.237  0.3897  0.2582  0.8500
  639SOL    HW2 2362   2.739   2.192   1.358 -0.3987  0.0747  0.9701
  640SOL     OW 2363   1.386   3.730   3.406 -0.4965  0.5562  0.1232
  640SOL    HW1 2364   1.429   3.790   3.346 -1.1398  0.6615 -0.2448
  640SOL    HW2 2365   1.293   3.738   3.385 -0.4768 -1.8267 -1.1154
  641SOL     OW 2366   2.094   5.339   0.853  0.1143  0.4055 -0.0396
  641SOL    HW1 2367   2.088   5.418   0.906  1.9842  2.1931 -2.3238
  641SOL    HW2 2368   2.009   5.334   0.808 -0.1452  0.9083  0.3866
  642SOL     OW 2369   0.322   2.086   4.249  0.0679 -0.4072  0.6495
  642SOL    HW1 2370   0.257   2.099   4.318  0.8869 -0.9024  1.5458
  642SOL    HW2 2371   0.277   2.035   4.182 -1.0101  0.8485  0.3906
  643SOL     OW 2372   1.090   3.033   2.018  0.3656  0.1869  0.4041
  643SOL    HW1 2373   1.039   2.987   1.951 -0.1933 -2.8411  2.7013
  643SOL    HW2 2374   1.024   3.078   2.071  0.4074 -0.6705  1.1978
  644SOL     OW 2375   1.491   2.022   2.415 -0.2641 -0.1269  0.2166
  644SOL    HW1 2376   1.586   2.017   2.425 -0.2861 -0.6823  0.1859
  644SOL    HW2 2377   1.461   1.933   2.434 -0.8247  0.1658  0.7248
  645SOL     OW 2378   0.874   1.140   3.894  0.1023  0.1213 -0.2543
  645SOL    HW1 2379   0.847   1.227   3.921 -2.1616 -0.8102  0.7071
  645SOL    HW2 2380   0.794   1.099   3.860  0.5536 -2.3125  1.3413
  646SOL     OW 2381   0.258   5.051   5.687 -0.4233 -0.2405 -0.2419
  646SOL    HW1 2382   0.178   5.098   5.712 -1.0165 -0.9298 -0.8035
  646SOL    HW2 2383   0.286   5.008   5.768 -0.8150 -0.2731 -0.1205
  647SOL     OW 2384   0.614   3.932   2.505  0.0859 -0.2552  0.3360
  647SOL    HW1 2385   0.571   3.925   2.590 -0.0920 -1.0605  0.1934
  647SOL    HW2 2386   0.545   3.912   2.442  0.3108 -0.0387  0.0217
  648SOL     OW 2387   4.168   1.581   1.910 -0.2904 -0.0558 -0.2031
  648SOL    HW1 2388   4.199   1.592   2.000  0.2791 -1.0192 -0.2640
  648SOL    HW2 2389   4.074   1.593   1.915 -0.1580  0.8634  0.3498
  649SOL     OW 2390   3.810   1.430   0.168 -0.2040  0.0334 -0.0524
  649SOL    HW1 2391   3.721   1.425   0.133  0.2319  1.6603 -1.6039
  649SOL    HW2 2392   3.861   1.471   0.097  1.2772  1.3122  1.6492
  650SOL     OW 2393   0.240   4.786   1.409  0.0804 -0.1047  0.0210
  650SOL    HW1 2394   0.302   4.738   1.354 -1.5737  0.3574 -2.3995
  650SOL    HW2 2395   0.168   4.725   1.425  0.1610  0.0402  1.0404
  651SOL     OW 2396   4.387   2.175   5.100 -0.2184  0.4584 -0.2701
  651SOL    HW1 2397   4.314   2.114   5.113  0.3767 -0.5143 -1.3570
  651SOL    HW2 2398   4.412   2.165   5.009  1.8828  0.0661  0.2927
  652SOL     OW 2399   1.737   2.202   1.394  1.0118  0.3668  0.4550
  652SOL    HW1 2400   1.788   2.276   1.359 -0.1629  1.5718  1.2153
  652SOL    HW2 2401   1.760   2.200   1.487 -1.3803  1.9139  1.1658
  653SOL     OW 2402   4.346   1.009   0.865  0.8566 -0.3544  0.1880
  653SOL    HW1 2403   4.311   0.968   0.944 -2.6299  1.2887 -0.3097
  653SOL    HW2 2404   4.383   0.936   0.815 -0.5797 -2.0935  1.5126
  654SOL     OW 2405   5.891   0.367   4.931 -0.2170 -0.0899  0.4530
  654SOL    HW1 2406   5.883   0.419   5.011  1.8225 -1.4370  1.6317
  654SOL    HW2 2407   5.959   0.303   4.951 -1.7379 -2.4301 -1.3487
  655SOL     OW 2408   5.357   4.371   1.729  0.0545  0.3786  0.2965
  655SOL    HW1 2409   5.278   4.317   1.731  0.7880 -0.7602 -0.0658
  655SOL    HW2 2410   5.325   4.460   1.715 -1.2354  0.1539  1.5636
  656SOL     OW 2411   3.074   3.076   0.680 -0.0235  0.1670 -0.0739
  656SOL    HW1 2412   3.109   2.987   0.687 -2.8092 -1.1143 -1.2446
  656SOL    HW2 2413   3.146   3.127   0.641  1.3114 -1.7555 -0.2468
  657SOL     OW 2414   3.876   1.529   5.995 -0.2628 -0.2086 -0.3867
  657SOL    HW1 2415   3.895   1.441   5.962  0.0974 -0.7666  1.2103
  657SOL    HW2 2416   3.955   1.579   5.978  0.3928 -0.8313  0.6788
  658SOL     OW 2417   2.400   2.096   0.388  0.4544  0.4541  0.5783
  658SOL    HW1 2418   2.325   2.058   0.343  1.9435 -0.7284 -1.0365
  658SOL    HW2 2419   2.362   2.158   0.450 -1.8981 -0.9780  0.6817
  659SOL     OW 2420   2.479   2.654   1.567 -0.7001  0.8114  0.3371
  659SOL    HW1 2421   2.404   2.621   1.518 -0.5568 -0.5808  1.0244
  659SOL    HW2 2422   2.543   2.582   1.565 -0.2257  1.1825  1.5454
  660SOL     OW 2423   4.949   2.519   3.581  0.1911 -0.4899  0.5319
  660SOL    HW1 2424   4.913   2.566   3.656 -1.6003 -1.1696  0.1327
  660SOL    HW2 2425   4.908   2.561   3.505  0.4429 -1.1152  0.0483
  661SOL     OW 2426   3.972   0.775   5.078  0.2233  0.5111  0.5699
  661SOL    HW1 2427   4.010   0.861   5.096  1.2562  0.1472  0.2017
  661SOL    HW2 2428   3.928   0.785   4.994  2.4820  0.0678 -0.7415
  662SOL     OW 2429   5.909   4.965   1.728  0.3854 -0.2298 -0.4262
  662SOL    HW1 2430   5.869   4.882   1.702 -0.4052 -0.1164  0.3522
  662SOL    HW2 2431   6.003   4.949   1.727  0.2227 -1.4531  0.6893
  663SOL     OW 2432   5.136   1.778   2.839  0.6043 -0.3486 -0.0098
  663SOL    HW1 2433   5.219   1.739   2.810  1.6678  2.2324 -0.8044
  663SOL    HW2 2434   5.157   1.871   2.849 -2.0256  0.2438  0.5618
  664SOL     OW 2435   3.643   3.485   5.643  0.1093 -0.8059  0.1396
  664SOL    HW1 2436   3.602   3.500   5.728 -0.8790  0.8034 -0.5742
  664SOL    HW2 2437   3.575   3.509   5.579 -0.1101 -4.3639 -1.2012
  665SOL     OW 2438   1.038   1.357   2.754 -0.1169 -0.2802 -0.0102
  665SOL    HW1 2439   1.031   1.304   2.833  2.1933 -2.5362 -1.1827
  665SOL    HW2 2440   0.991   1.307   2.687 -1.0258  1.0157 -0.3927
  666SOL     OW 2441   5.420   3.923   2.652 -0.2560  0.4817 -0.1148
  666SOL    HW1 2442   5.415   3.994   2.588 -1.7270  1.0792  0.6261
  666SOL    HW2 2443   5.342   3.934   2.706 -1.0420 -2.2398 -0.5391
  667SOL     OW 2444   2.305   0.582   3.926 -0.4676  0.1348  0.3462
  667SOL    HW1 2445   2.244   0.540   3.987 -2.3184 -1.0481 -2.1459
  667SOL    HW2 2446   2.259   0.660   3.895 -0.0151  0.1504 -0.3187
  668SOL     OW 2447   2.594   4.842   1.569 -0.0710 -0.2567  0.7798
  668SOL    HW1 2448   2.544   4.886   1.500  0.4655 -0.8679 -0.0231
  668SOL    HW2 2449   2.624   4.760   1.529  2.9802  0.7999  0.6142
  669SOL     OW 2450   0.671   4.927   3.014  0.0189 -0.4759  0.3201
  669SOL    HW1 2451   0.629   5.000   2.969 -0.3181 -0.4527  0.6713
  669SOL    HW2 2452   0.606   4.857   3.014  0.1332 -0.5848  0.4870
  670SOL     OW 2453   3.512   4.549   1.509 -0.1183  0.1435 -0.0630
  670SOL    HW1 2454   3.466   4.493   1.571  0.7863 -3.1725 -2.1355
  670SOL    HW2 2455   3.603   4.550   1.540 -0.3949  1.9864  0.8641
  671SOL     OW 2456   5.778   3.011   4.338  0.6543  0.1966  0.4841
  671SOL    HW1 2457   5.860   3.028   4.291  0.2781  0.9910  0.1124
  671SOL    HW2 2458   5.716   3.074   4.303 -0.7735 -1.8316 -0.8276
  672SOL     OW 2459   3.763   5.690   5.252 -0.5513  0.0147 -0.4294
  672SOL    HW1 2460   3.846   5.646   5.234 -0.0185  0.2686  1.2322
  672SOL    HW2 2461   3.726   5.640   5.325 -0.4469  1.6397  0.7851
  673SOL     OW 2462   0.568   4.012   5.228 -0.1625 -0.2434  0.2592
  673SOL    HW1 2463   0.485   3.989   5.186  0.5680 -0.0616 -1.3669
  673SOL    HW2 2464   0.604   3.928   5.257  0.1708 -0.6280 -1.1780
  674SOL     OW 2465   1.260   4.083   3.904  0.3320  0.5863  0.1852
  674SOL    HW1 2466   1.258   3.994   3.867  0.6047  0.6876 -0.0748
  674SOL    HW2 2467   1.226   4.072   3.993 -0.0057  0.2844  0.0247
  675SOL     OW 2468   3.962   2.513   1.074  0.3796 -0.1379 -0.0433
  675SOL    HW1 2469   3.871   2.496   1.050  0.6568  0.2787 -1.4623
  675SOL    HW2 2470   3.961   2.600   1.114  0.0124 -0.5704  0.9252
  676SOL     OW 2471   3.443   2.781   4.060  0.1630 -0.5044 -0.5966
  676SOL    HW1 2472   3.379   2.781   4.131  0.3778 -0.0353 -0.4035
  676SOL    HW2 2473   3.424   2.860   4.009  2.6607  1.5481  1.3620
  677SOL     OW 2474   2.186   5.405   4.326  0.2146 -0.5196 -0.1599
  677SOL    HW1 2475   2.254   5.340   4.341  0.5145 -0.1845 -0.0503
  677SOL    HW2 2476   2.162   5.435   4.414  0.5098 -0.0449 -0.2380
  678SOL     OW 2477   2.880   4.723   5.324  0.1880 -0.3652 -0.1895
  678SOL    HW1 2478   2.915   4.811   5.314 -0.6272 -0.1482 -1.2762
  678SOL    HW2 2479   2.805   4.733   5.383  1.1474 -0.6308  1.1135
  679SOL     OW 2480   6.070   1.527   0.940  0.2558  0.4642  0.0998
  679SOL    HW1 2481   6.104   1.485   0.861  1.4303  0.6282  0.4985
  679SOL    HW2 2482   6.105   1.617   0.935 -0.9342  0.9348  0.0412
  680SOL     OW 2483   2.985   2.568   5.251  0.1772  0.1078  0.3850
  680SOL    HW1 2484   2.956   2.645   5.300  0.4141  0.9750 -0.7528
  680SOL    HW2 2485   2.911   2.545   5.195  0.6149  0.4951 -0.3895
  681SOL     OW 2486   4.391   0.269   0.312  0.3104  0.1285 -0.5392
  681SOL    HW1 2487   4.445   0.191   0.326  0.1594 -0.1389 -1.3764
  681SOL    HW2 2488   4.453   0.336   0.282  0.5678  0.5818  0.9393
  682SOL     OW 2489   0.007   5.977   2.967 -0.6741  0.4466 -0.5421
  682SOL    HW1 2490   0.059   5.904   3.000 -0.3342  0.4215 -1.1347
  682SOL    HW2 2491  -0.010   5.956   2.875 -1.6622  0.4916 -0.3830
  683SOL     OW 2492   0.429   1.863   2.044  0.1508  0.0155  0.4681
  683SOL    HW1 2493   0.377   1.869   1.964  1.2173 -0.6231 -0.3009
  683SOL    HW2 2494   0.379   1.805   2.102 -0.8781  0.8957  0.4870
  684SOL     OW 2495   3.075   3.646   2.786 -0.0398 -0.8420 -0.2472
  684SOL    HW1 2496   2.983   3.636   2.762 -0.3102  1.0083 -0.1873
  684SOL    HW2 2497   3.124   3.628   2.706 -0.4913 -1.1891 -0.4462
  685SOL     OW 2498   1.731   6.091   3.777 -0.6466 -0.2017 -0.4193
  685SOL    HW1 2499   1.798   6.040   3.731  0.7460  0.0585  1.2045
  685SOL    HW2 2500   1.772   6.176   3.793 -0.3287 -0.8005  2.7205
  686SOL     OW 2501   0.170   3.675   0.963 -0.5967 -0.1439 -0.1741
  686SOL    HW1 2502   0.137   3.587   0.943 -2.5576  0.6278 -0.5804
  686SOL    HW2 2503   0.110   3.708   1.030  1.5605  0.0414  1.7515
  687SOL     OW 2504   4.294   4.326   4.830  0.0308 -0.4148 -0.4742
  687SOL    HW1 2505   4.376   4.294   4.791 -0.7201 -1.8536 -0.9540
  687SOL    HW2 2506   4.281   4.412   4.790  0.7154 -0.6671 -1.2793
  688SOL     OW 2507   4.323   5.489   5.708  0.5424  0.0456  0.4035
  688SOL    HW1 2508   4.383   5.561   5.726  0.0073  1.1823 -1.9322
  688SOL    HW2 2509   4.380   5.414   5.687  1.1045  0.2091  1.2994
  689SOL     OW 2510   2.804   0.946   6.001 -0.1420 -0.3330  0.2367
  689SOL    HW1 2511   2.735   0.962   5.937  1.1443 -2.3651 -1.8397
  689SOL    HW2 2512   2.885   0.971   5.956  0.8805 -2.5772  0.6605
  690SOL     OW 2513   4.051   1.293   5.913  0.1838  0.3324  0.0261
  690SOL    HW1 2514   4.029   1.250   5.996  1.1138 -0.0326  0.0933
  690SOL    HW2 2515   4.145   1.307   5.918  0.0318  1.6488 -0.3528
  691SOL     OW 2516   4.249   1.799   2.438 -0.5696  0.1476  0.3239
  691SOL    HW1 2517   4.193   1.744   2.492  0.8956 -0.4573  1.2773
  691SOL    HW2 2518   4.335   1.796   2.480  0.8786 -1.0191 -2.4268
  692SOL     OW 2519   2.726   3.329   5.911 -0.3298 -0.3417 -0.5957
  692SOL    HW1 2520   2.680   3.257   5.868 -0.2221 -1.0348  0.4255
  692SOL    HW2 2521   2.816   3.297   5.921 -0.1684  0.1196 -0.5448
  693SOL     OW 2522   5.391   1.575   3.261  0.1696 -0.7850  0.1697
  693SOL    HW1 2523   5.390   1.551   3.353 -0.3707  0.2011  0.4301
  693SOL    HW2 2524   5.381   1.492   3.214 -1.0653 -1.1503  1.0327
  694SOL     OW 2525   2.569   2.047   4.562  0.2900 -0.1902 -0.0517
  694SOL    HW1 2526   2.579   2.068   4.655  0.3889  0.0456 -0.1169
  694SOL    HW2 2527   2.475   2.031   4.552  0.0873  1.0199 -0.1723
  695SOL     OW 2528   5.998   5.712   4.408 -0.3468  0.0042 -0.0271
  695SOL    HW1 2529   5.939   5.740   4.338  0.1534 -0.5371 -0.6793
  695SOL    HW2 2530   6.086   5.717   4.368  0.0978  1.1553  1.0282
  696SOL     OW 2531   1.206   1.619   6.118 -0.7022 -0.0489  0.0610
  696SOL    HW1 2532   1.127   1.609   6.172 -1.1489  0.6684 -0.4520
  696SOL    HW2 2533   1.232   1.710   6.132 -0.7964  0.1278 -0.8953
  697SOL     OW 2534   1.113   2.662   1.382 -0.3513 -0.3972 -0.3330
  697SOL    HW1 2535   1.020   2.684   1.376 -0.9932 -2.7305 -0.0647
  697SOL    HW2 2536   1.118   2.603   1.457  1.0992 -1.4238 -1.2017
  698SOL     OW 2537   3.743   2.214   4.799 -0.9492 -0.0266  0.3770
  698SOL    HW1 2538   3.748   2.118   4.794  1.9052 -0.0222  1.3393
  698SOL    HW2 2539   3.747   2.234   4.892 -1.1084  1.0531  0.1683
  699SOL     OW 2540   2.123   4.190   4.959  0.4209  0.4167 -0.2850
  699SOL    HW1 2541   2.041   4.187   4.910  1.1561  1.2988 -1.6381
  699SOL    HW2 2542   2.098   4.169   5.049 -1.2473  0.4820 -0.6989
  700SOL     OW 2543   5.544   2.755   2.875 -0.4927  0.3642 -0.2874
  700SOL    HW1 2544   5.629   2.797   2.883 -0.1158 -0.2924 -0.7144
  700SOL    HW2 2545   5.496   2.809   2.813  0.7978 -1.0221 -2.6468
  701SOL     OW 2546   0.627   2.767   2.371  0.5561  0.3103  0.5851
  701SOL    HW1 2547   0.684   2.757   2.295 -0.5224  0.4562 -0.2797
  701SOL    HW2 2548   0.584   2.682   2.381  1.0135  0.1533  1.3223
  702SOL     OW 2549   5.818   4.235   3.379 -0.1657 -0.4532  0.2372
  702SOL    HW1 2550   5.808   4.253   3.473 -1.3818  0.2425 -0.0051
  702SOL    HW2 2551   5.745   4.176   3.359 -2.0449  2.1210 -0.9388
  703SOL     OW 2552   0.481   2.190   1.705  0.1595 -0.7443  0.3384
  703SOL    HW1 2553   0.569   2.163   1.731  0.6891  0.2679 -0.3419
  703SOL    HW2 2554   0.439   2.109   1.676  1.1401 -1.1173 -0.0836
  704SOL     OW 2555   0.023   4.017   0.052 -0.4907 -0.1804  0.0821
  704SOL    HW1 2556   0.037   4.014  -0.043 -3.0076 -0.1471 -0.3519
  704SOL    HW2 2557   0.053   4.105   0.077 -0.6163  0.1438 -0.8436
  705SOL     OW 2558   2.386   3.856   3.342 -0.6641 -0.6415 -0.6676
  705SOL    HW1 2559   2.430   3.917   3.401  1.6812 -0.2594 -2.6173
  705SOL    HW2 2560   2.403   3.770   3.380 -0.7776 -0.3117  0.1534
  706SOL     OW 2561   4.732   0.673   5.003 -0.4681 -0.1888 -0.0163
  706SOL    HW1 2562   4.795   0.603   5.020 -1.5939 -1.3648 -0.5699
  706SOL    HW2 2563   4.753   0.703   4.915 -0.9014 -0.8454 -0.3528
  707SOL     OW 2564   1.812   0.953   0.303  0.2098 -0.4202 -0.1976
  707SOL    HW1 2565   1.881   1.016   0.282 -1.3701  2.1815  1.9025
  707SOL    HW2 2566   1.747   0.965   0.234 -1.0483  1.9232  1.2763
  708SOL     OW 2567   1.842   0.264   3.875 -0.2115 -0.1733  0.1648
  708SOL    HW1 2568   1.915   0.206   3.852  0.3556  0.7126 -0.2853
  708SOL    HW2 2569   1.804   0.223   3.953 -0.8867 -2.0816 -1.0929
  709SOL     OW 2570   1.241   0.917   1.725  0.0956 -0.6035  0.3105
  709SOL    HW1 2571   1.246   1.003   1.683 -1.8671 -0.6989 -0.2093
  709SOL    HW2 2572   1.149   0.908   1.751  0.8194 -1.4262  2.8354
  710SOL     OW 2573   5.744   3.268   1.652 -0.1281 -0.0152 -0.4455
  710SOL    HW1 2574   5.820   3.246   1.598 -0.3616 -0.1347 -0.7331
  710SOL    HW2 2575   5.751   3.362   1.666 -0.7155  0.2490 -1.7333
  711SOL     OW 2576   3.262   0.035   5.325 -0.1756 -0.0278  0.0138
  711SOL    HW1 2577   3.192  -0.013   5.370 -0.6067  0.9287  0.3970
  711SOL    HW2 2578   3.334   0.037   5.387 -1.4852  3.1425  1.6952
  712SOL     OW 2579   1.060   4.205   5.876  0.5653 -0.1350 -0.3583
  712SOL    HW1 2580   0.991   4.155   5.919 -0.9891  2.8202  0.8911
  712SOL    HW2 2581   1.139   4.186   5.926  0.3774 -2.3432 -0.8255
  713SOL     OW 2582   3.622   2.500   4.592 -0.2614 -0.5807 -0.6203
  713SOL    HW1 2583   3.616   2.506   4.497  0.0536 -0.5063 -0.6357
  713SOL    HW2 2584   3.556   2.561   4.625  0.4702  0.3295 -0.7877
  714SOL     OW 2585   1.144   4.089   3.106 -0.4976 -0.3876 -0.5642
  714SOL    HW1 2586   1.077   4.154   3.087  1.3359  1.9328  0.3034
  714SOL    HW2 2587   1.114   4.047   3.187 -0.3325  1.6094  0.6165
  715SOL     OW 2588   4.644   1.952   1.785  0.1305  0.1283 -0.2141
  715SOL    HW1 2589   4.593   1.910   1.854 -1.4340 -0.2606 -1.5538
  715SOL    HW2 2590   4.735   1.936   1.810 -0.4067 -1.4436  0.8891
  716SOL     OW 2591   1.713   3.567   4.782  0.3564  0.1984 -0.0458
  716SOL    HW1 2592   1.727   3.477   4.811 -1.6326 -0.8615 -2.1131
  716SOL    HW2 2593   1.725   3.619   4.862 -0.3529 -2.0699  1.6642
  717SOL     OW 2594   5.037   3.959   4.615  0.3510  1.1391 -0.4011
  717SOL    HW1 2595   5.071   3.976   4.527  0.9062  1.8271 -0.0663
  717SOL    HW2 2596   5.111   3.925   4.664  0.1277  1.0600 -0.1129
  718SOL     OW 2597   1.808   0.713   4.613  0.5948 -0.2561 -0.0508
  718SOL    HW1 2598   1.737   0.750   4.664 -0.1866 -1.4514 -0.2263
  718SOL    HW2 2599   1.847   0.787   4.567 -0.4983  0.4259  0.1020
  719SOL     OW 2600   2.643   4.079   5.695  0.4540  0.2139  0.2348
  719SOL    HW1 2601   2.702   4.041   5.760  0.7520 -1.3991 -0.9035
  719SOL    HW2 2602   2.630   4.009   5.630 -1.7519  0.9298 -0.1963
  720SOL     OW 2603   4.095   5.923   1.991  0.1355 -0.3623  0.1875
  720SOL    HW1 2604   4.169   5.948   1.935  0.7485 -1.4328  0.4835
  720SOL    HW2 2605   4.034   5.880   1.932  0.6145 -1.1609  0.2613
  721SOL     OW 2606   1.982   5.743   3.356 -0.5037  0.1981 -0.2549
  721SOL    HW1 2607   2.005   5.821   3.306  1.9518 -0.3438 -0.0857
  721SOL    HW2 2608   1.999   5.767   3.447  1.4174 -0.8235 -0.2915
  722SOL     OW 2609   5.374   3.338   5.312 -0.7571 -0.2006 -0.5281
  722SOL    HW1 2610   5.336   3.282   5.245 -0.1099 -1.6911  0.3008
  722SOL    HW2 2611   5.359   3.427   5.280 -0.5555 -0.8479 -2.5922
  723SOL     OW 2612   0.279   5.042   1.289  0.3365 -0.3904 -0.0158
  723SOL    HW1 2613   0.254   5.065   1.200 -0.3386  2.6713  0.8584
  723SOL    HW2 2614   0.244   4.954   1.302 -1.4201 -0.0635 -2.0761
  724SOL     OW 2615   3.650   4.923   1.161  0.3187 -0.0032 -0.0195
  724SOL    HW1 2616   3.728   4.975   1.143 -0.0857  0.7454  0.3358
  724SOL    HW2 2617   3.672   4.835   1.130  1.3933  0.1344  0.3047
  725SOL     OW 2618   0.016   1.359   3.503  0.2006 -0.2728  0.3744
  725SOL    HW1 2619   0.042   1.272   3.474  0.9123 -0.2829  0.9993
  725SOL    HW2 2620  -0.079   1.361   3.491  0.0240 -1.5213  1.3119
  726SOL     OW 2621   1.273   2.027   5.049  0.6209 -0.0049 -0.1578
  726SOL    HW1 2622   1.344   2.092   5.051  0.5686  0.0465  0.0556
  726SOL    HW2 2623   1.255   2.009   5.141 -1.1079  1.5984 -0.1176
  727SOL     OW 2624   5.746   0.310   1.982  0.4127  0.4448 -0.3903
  727SOL    HW1 2625   5.710   0.246   1.920  0.6445 -1.0150  0.9054
  727SOL    HW2 2626   5.816   0.262   2.026  0.6775  1.6567  0.5403
  728SOL     OW 2627   5.394   2.675   5.441  0.1176 -0.1389  0.0157
  728SOL    HW1 2628   5.431   2.714   5.362  1.7232  0.6675  1.1078
  728SOL    HW2 2629   5.359   2.590   5.412  0.4344  0.2427 -1.5880
  729SOL     OW 2630   4.603   4.369   4.363 -0.2959  0.0632  0.1748
  729SOL    HW1 2631   4.612   4.278   4.391 -2.3686 -0.0877  0.4887
  729SOL    HW2 2632   4.693   4.397   4.344  0.4671 -1.7961  0.7996
  730SOL     OW 2633   5.927   1.140   1.213 -0.4846  0.2559  0.5728
  730SOL    HW1 2634   5.908   1.232   1.198 -0.5533  0.3322  1.0983
  730SOL    HW2 2635   5.896   1.123   1.302 -0.2436 -0.2096  0.5743
  731SOL     OW 2636   3.213   2.836   0.314 -0.7012 -0.4966 -0.3912
  731SOL    HW1 2637   3.240   2.800   0.229 -2.8347  1.8803 -2.2091
  731SOL    HW2 2638   3.209   2.930   0.300 -2.9173 -0.1764  1.8046
  732SOL     OW 2639   3.815   3.030   3.487  0.6929 -0.2094 -0.4493
  732SOL    HW1 2640   3.762   2.951   3.499 -1.9189  1.1208 -2.1940
  732SOL    HW2 2641   3.785   3.066   3.404  0.0740  3.8302  1.3109
  733SOL     OW 2642   5.851   0.697   3.540 -0.3528 -0.3438 -0.6197
  733SOL    HW1 2643   5.786   0.735   3.480 -0.5423  0.0685 -0.1560
  733SOL    HW2 2644   5.852   0.756   3.615  0.0883 -0.7073 -0.3355
  734SOL     OW 2645   0.334   0.957   3.229  0.1266  0.0597  0.2827
  734SOL    HW1 2646   0.317   0.892   3.160 -0.3169  0.2184  0.2387
  734SOL    HW2 2647   0.298   0.917   3.308 -0.2315  0.2880  0.2385
  735SOL     OW 2648   1.263   3.030   0.809 -0.1547  0.6607 -0.4775
  735SOL    HW1 2649   1.261   3.064   0.720  1.7437  0.5692 -0.5847
  735SOL    HW2 2650   1.228   2.941   0.802 -0.6480  0.8918 -0.9920
  736SOL     OW 2651   4.045   4.755   1.237  0.1784  0.6205 -0.6930
  736SOL    HW1 2652   4.037   4.836   1.187 -2.1656  1.0047  0.1698
  736SOL    HW2 2653   3.963   4.749   1.286  0.3559 -2.2005 -0.5831
  737SOL     OW 2654   4.378   5.886   5.060  0.1268 -0.1341  0.2316
  737SOL    HW1 2655   4.454   5.945   5.058 -1.2903  1.7758 -1.5416
  737SOL    HW2 2656   4.398   5.819   4.995 -0.0824  0.9023 -0.9264
  738SOL     OW 2657   0.449   2.797   4.196  0.2683 -0.1466 -0.4133
  738SOL    HW1 2658   0.404   2.857   4.136  0.1144  0.9218  0.7409
  738SOL    HW2 2659   0.423   2.826   4.283 -0.4512 -2.3974  0.1920
  739SOL     OW 2660   5.786   1.729   4.070  0.1212  0.8166  0.4506
  739SOL    HW1 2661   5.783   1.697   4.160 -0.8174  0.1723  0.2098
  739SOL    HW2 2662   5.697   1.718   4.038  0.8083 -0.6531 -1.1226
  740SOL     OW 2663   4.954   4.611   5.293 -0.2227 -0.3855 -0.2611
  740SOL    HW1 2664   5.011   4.670   5.242  2.3019 -1.3128  1.2934
  740SOL    HW2 2665   4.958   4.645   5.382 -1.8773 -0.7104 -0.0379
  741SOL     OW 2666   1.902   4.036   3.625 -0.4538  0.1364 -0.8039
  741SOL    HW1 2667   1.985   4.084   3.629 -1.1746  1.3185  1.7648
  741SOL    HW2 2668   1.928   3.944   3.621  0.9615  0.5296 -1.3395
  742SOL     OW 2669   0.937   0.704   4.207  0.6307 -0.1682  0.1908
  742SOL    HW1 2670   0.922   0.652   4.286 -1.1167 -1.5242 -0.9482
  742SOL    HW2 2671   1.031   0.698   4.191  0.4877 -3.3557 -0.0741
  743SOL     OW 2672   5.070   2.476   1.539 -0.3741  0.5962 -0.4277
  743SOL    HW1 2673   5.051   2.563   1.504 -0.3784  0.6417 -0.3123
  743SOL    HW2 2674   4.991   2.425   1.519 -0.2329  0.5238 -0.8009
  744SOL     OW 2675   2.279   4.341   4.210  0.2797  0.3171 -0.2499
  744SOL    HW1 2676   2.263   4.322   4.117  0.7455 -0.2969 -0.2092
  744SOL    HW2 2677   2.191   4.355   4.246  0.1564  1.7621 -1.0175
  745SOL     OW 2678   0.499   1.176   3.182  0.6138  0.2451 -0.2386
  745SOL    HW1 2679   0.550   1.155   3.104  1.7415  0.0643  0.5133
  745SOL    HW2 2680   0.454   1.095   3.205  0.4754  0.2331 -0.5509
  746SOL     OW 2681   4.085   5.224   3.336 -0.0185  0.1299  0.1892
  746SOL    HW1 2682   4.021   5.288   3.303  1.2936  1.4420  0.1000
  746SOL    HW2 2683   4.091   5.158   3.267 -0.8614  0.2813 -0.0393
  747SOL     OW 2684   0.498   4.484   4.744 -0.2157 -0.6750  0.0231
  747SOL    HW1 2685   0.493   4.579   4.746 -0.1126 -0.6567  2.6408
  747SOL    HW2 2686   0.428   4.457   4.684 -0.2309  1.0307 -0.7593
  748SOL     OW 2687   0.973   0.452   4.009  0.1337 -0.0357  0.7137
  748SOL    HW1 2688   0.992   0.538   4.048 -0.7651  0.4745  0.0644
  748SOL    HW2 2689   1.043   0.395   4.042  1.2924  1.1576  0.4011
  749SOL     OW 2690   5.245   2.699   2.586  0.0340 -0.0453 -0.2609
  749SOL    HW1 2691   5.228   2.789   2.560 -1.1450 -0.5480 -1.3620
  749SOL    HW2 2692   5.279   2.657   2.507 -0.2433 -0.7700 -0.0109
  750SOL     OW 2693   4.896   3.417   1.004  0.0118 -0.1464 -0.6750
  750SOL    HW1 2694   4.893   3.377   1.091 -2.6498  2.1231  0.4061
  750SOL    HW2 2695   4.863   3.348   0.946 -0.1587 -1.0179  0.4148
  751SOL     OW 2696   3.686   2.304   5.576  0.4676  0.1055  0.2195
  751SOL    HW1 2697   3.711   2.244   5.647  1.0123 -0.1975 -0.2235
  751SOL    HW2 2698   3.676   2.389   5.619 -0.2410 -0.2801  0.8436
  752SOL     OW 2699   4.835   3.759   3.057  0.3547  0.5090  0.4343
  752SOL    HW1 2700   4.816   3.772   3.150 -0.2947 -0.1847  0.4070
  752SOL    HW2 2701   4.760   3.799   3.012  1.0680  1.5846  0.1690
  753SOL     OW 2702   1.238   1.868   2.994 -0.0762  0.5210 -0.1455
  753SOL    HW1 2703   1.201   1.943   2.947  0.4874  1.4929  0.9116
  753SOL    HW2 2704   1.246   1.898   3.085 -0.4300 -1.0451  0.4387
  754SOL     OW 2705   0.731   2.473   3.622 -0.1324  0.1998 -0.1678
  754SOL    HW1 2706   0.689   2.426   3.549  1.4667 -1.4251 -0.1057
  754SOL    HW2 2707   0.725   2.413   3.696  0.9378  0.5782  0.2421
  755SOL     OW 2708   5.304   5.584   3.848  0.1726 -0.4154  0.1482
  755SOL    HW1 2709   5.215   5.571   3.815  1.4182 -2.7325 -2.7749
  755SOL    HW2 2710   5.331   5.669   3.811 -0.7675  0.3096  1.0671
  756SOL     OW 2711   3.020   4.591   3.696 -0.2231  0.1668  0.1554
  756SOL    HW1 2712   3.084   4.654   3.728 -0.7126  0.3359  0.8298
  756SOL    HW2 2713   2.946   4.599   3.756  0.5135 -2.5450  1.5817
  757SOL     OW 2714   4.611   3.611   0.752  0.1513 -0.5775  0.7203
  757SOL    HW1 2715   4.695   3.582   0.716  0.0209 -1.2988  0.9866
  757SOL    HW2 2716   4.631   3.695   0.793  0.5541 -0.3243  0.0194
  758SOL     OW 2717   2.322   4.406   0.294 -0.3549 -0.2090 -0.0907
  758SOL    HW1 2718   2.300   4.419   0.202 -1.9700 -1.0673  0.1409
  758SOL    HW2 2719   2.289   4.319   0.315 -0.2495  0.0690  1.3700
  759SOL     OW 2720   1.581   5.827   1.057  0.1427  0.1879 -0.2293
  759SOL    HW1 2721   1.498   5.779   1.051  0.8483 -1.0164 -0.6148
  759SOL    HW2 2722   1.570   5.882   1.135 -1.3009  0.6346 -0.7112
  760SOL     OW 2723   3.142   3.456   4.404 -0.9688  0.0113  0.2831
  760SOL    HW1 2724   3.096   3.540   4.405 -0.0192  0.6241 -1.7117
  760SOL    HW2 2725   3.215   3.468   4.466 -2.6110 -0.5209  2.4572
  761SOL     OW 2726   2.345   5.472   0.258 -0.4777 -0.1097 -0.1871
  761SOL    HW1 2727   2.406   5.452   0.328  1.8667 -0.4262 -2.2044
  761SOL    HW2 2728   2.380   5.550   0.216 -1.2702 -0.4844 -1.6152
  762SOL     OW 2729   3.328   3.789   5.406 -0.2348  0.0281 -0.1845
  762SOL    HW1 2730   3.399   3.811   5.345 -0.5607  0.0339 -0.5599
  762SOL    HW2 2731   3.342   3.697   5.427  0.1283  0.1361  0.0709
  763SOL     OW 2732   5.705   0.726   1.457 -0.4002 -0.5303 -0.1745
  763SOL    HW1 2733   5.667   0.784   1.523 -1.7548 -1.5828  0.0089
  763SOL    HW2 2734   5.786   0.769   1.431 -1.2024  1.2619  0.1901
  764SOL     OW 2735   1.990   3.400   1.334 -0.2490 -0.1672  0.4680
  764SOL    HW1 2736   2.038   3.446   1.265 -0.5127  2.3642  1.8356
  764SOL    HW2 2737   1.916   3.458   1.353 -1.5393 -1.9903  1.2380
  765SOL     OW 2738   2.959   4.487   5.707 -0.0074 -0.1574  0.0997
  765SOL    HW1 2739   2.932   4.404   5.668  0.8839 -0.6944  0.5721
  765SOL    HW2 2740   3.054   4.491   5.692 -0.1251  1.0885 -0.4720
  766SOL     OW 2741   6.076   1.435   4.809  0.4831  0.1293  0.3255
  766SOL    HW1 2742   6.045   1.353   4.846 -0.7576  0.2658 -0.3475
  766SOL    HW2 2743   6.031   1.503   4.859 -1.3845  0.3152 -1.4510
  767SOL     OW 2744   5.205   4.893   4.890 -0.0977 -0.0029  0.1170
  767SOL    HW1 2745   5.269   4.950   4.932  0.4548  0.3874 -1.1853
  767SOL    HW2 2746   5.257   4.833   4.837 -0.6925 -1.4690  1.1425
  768SOL     OW 2747   1.906   1.366   3.741  0.5158 -0.4897 -0.3736
  768SOL    HW1 2748   1.981   1.333   3.693  1.2516 -0.4286  0.7040
  768SOL    HW2 2749   1.943   1.413   3.816 -0.5825 -0.5956  0.2712
  769SOL     OW 2750   3.471   3.189   3.402  0.2507 -0.1070  0.2111
  769SOL    HW1 2751   3.537   3.254   3.424  0.8331 -0.3586 -0.7448
  769SOL    HW2 2752   3.387   3.234   3.414  0.6555  0.9522 -0.8627
  770SOL     OW 2753   1.844   2.298   3.979  0.2136  0.0179  0.2757
  770SOL    HW1 2754   1.875   2.235   3.914 -1.1385 -1.5593  1.0835
  770SOL    HW2 2755   1.754   2.270   3.998 -0.0618  1.5732  1.4498
  771SOL     OW 2756   2.559   4.440   3.142  0.4366  0.0098  0.1615
  771SOL    HW1 2757   2.558   4.522   3.191 -1.5993  0.0395  0.1552
  771SOL    HW2 2758   2.469   4.407   3.148  0.2638 -0.4040 -2.8224
  772SOL     OW 2759   0.039   2.679   3.436  0.0491 -0.3560  0.4923
  772SOL    HW1 2760   0.010   2.721   3.355  3.3572  0.3546 -0.4823
  772SOL    HW2 2761   0.008   2.737   3.506  1.6849  2.0980 -0.6650
  773SOL     OW 2762   3.536   5.106   3.229  0.1172 -0.5049  0.1115
  773SOL    HW1 2763   3.498   5.078   3.312  1.7826 -0.1813  1.0383
  773SOL    HW2 2764   3.622   5.141   3.253  0.7050 -0.5454 -1.7721
  774SOL     OW 2765   4.774   1.878   2.385 -0.2065 -0.8311 -0.0075
  774SOL    HW1 2766   4.785   1.952   2.445 -0.7301 -1.3241  0.7075
  774SOL    HW2 2767   4.687   1.891   2.346 -0.1979 -0.9429 -0.0637
  775SOL     OW 2768   2.097   1.096   3.373 -0.1404 -0.4023 -0.4379
  775SOL    HW1 2769   2.143   1.171   3.334 -0.7998  0.3933  0.2555
  775SOL    HW2 2770   2.004   1.120   3.368 -0.3963 -1.4233 -0.6922
  776SOL     OW 2771   4.665   0.840   4.641 -0.5199  0.0188  0.5341
  776SOL    HW1 2772   4.699   0.821   4.553 -0.0656  2.0191  0.2261
  776SOL    HW2 2773   4.733   0.809   4.700  0.4210  1.0487  0.0414
  777SOL     OW 2774   5.430   6.046   2.300  0.4415 -0.1914 -0.4601
  777SOL    HW1 2775   5.366   6.078   2.237 -0.3197  0.6860  0.7308
  777SOL    HW2 2776   5.508   6.100   2.285  0.3866 -0.2373 -0.9014
  778SOL     OW 2777   3.650   3.112   2.976 -0.6250 -0.6838  0.0328
  778SOL    HW1 2778   3.672   3.174   3.046  1.7367 -0.8824 -0.4516
  778SOL    HW2 2779   3.557   3.127   2.959 -0.9623  0.2392  2.3396
  779SOL     OW 2780   0.735   3.625   2.858  0.2251  0.0388 -0.1761
  779SOL    HW1 2781   0.667   3.607   2.923  0.8205  2.3673  1.2178
  779SOL    HW2 2782   0.688   3.662   2.784 -0.2672 -0.8878 -0.3459
  780SOL     OW 2783   5.758   0.206   0.021 -0.6495  0.3381 -0.4574
  780SOL    HW1 2784   5.758   0.125  -0.030 -0.3014  1.1713 -1.8643
  780SOL    HW2 2785   5.698   0.189   0.094 -2.0714 -0.5619 -1.7598
  781SOL     OW 2786   5.685   5.836   0.820  0.0127  0.6238  0.3224
  781SOL    HW1 2787   5.603   5.809   0.779  0.5555  0.8786 -0.9850
  781SOL    HW2 2788   5.753   5.789   0.772  0.6612  0.5936  1.2359
  782SOL     OW 2789   1.624   3.372   5.581 -0.2024 -0.0771  0.1598
  782SOL    HW1 2790   1.531   3.391   5.569 -0.3652 -1.1799 -0.4971
  782SOL    HW2 2791   1.649   3.325   5.502  0.5820 -0.9336  0.8950
  783SOL     OW 2792   3.589   2.652   0.832 -0.8289  0.1177  0.4463
  783SOL    HW1 2793   3.521   2.715   0.856 -0.4666  0.2522  1.1339
  783SOL    HW2 2794   3.567   2.626   0.742 -2.8502 -1.2438  1.2710
  784SOL     OW 2795   1.998   5.318   2.748 -0.6119  0.3474  0.5118
  784SOL    HW1 2796   1.974   5.411   2.757 -0.6381  0.2712  1.3500
  784SOL    HW2 2797   1.990   5.283   2.837  2.9147  0.3780  0.9859
  785SOL     OW 2798   1.550   4.475   3.971 -0.1173 -0.0272  0.5743
  785SOL    HW1 2799   1.503   4.522   3.901 -0.9291  0.8789  1.6916
  785SOL    HW2 2800   1.491   4.402   3.993 -0.0322 -0.0960  0.5730
  786SOL     OW 2801   4.739   4.765   2.030 -0.1001  0.6430 -0.1224
  786SOL    HW1 2802   4.754   4.835   1.966 -2.4058  0.2847 -1.1757
  786SOL    HW2 2803   4.664   4.795   2.081 -0.6845 -0.7179 -0.1322
  787SOL     OW 2804   2.067   3.372   2.368 -0.0011 -0.0083 -0.2530
  787SOL    HW1 2805   2.013   3.357   2.290 -2.4118  1.1133  1.0720
  787SOL    HW2 2806   2.119   3.292   2.377 -0.7713 -0.7847 -2.1297
  788SOL     OW 2807   1.595   5.772   0.636  0.0507  0.6978  0.7004
  788SOL    HW1 2808   1.511   5.779   0.682 -0.2640 -0.0442  0.2595
  788SOL    HW2 2809   1.589   5.835   0.565 -0.3215  0.3314  0.4003
  789SOL     OW 2810   1.600   3.211   1.926  0.3114 -0.0500 -0.0842
  789SOL    HW1 2811   1.666   3.152   1.890  0.1333  0.1999 -0.8384
  789SOL    HW2 2812   1.631   3.231   2.014  0.2245 -1.5147  0.3146
  790SOL     OW 2813   2.709   3.928   2.706 -0.2735 -0.4920  0.2730
  790SOL    HW1 2814   2.802   3.907   2.716 -0.6129 -1.3490  1.8835
  790SOL    HW2 2815   2.674   3.925   2.794 -1.7002  0.5875 -0.2216
  791SOL     OW 2816   2.105   6.078   5.328 -0.8030 -0.1129 -0.7224
  791SOL    HW1 2817   2.123   6.142   5.260 -0.6251  0.1987 -0.3848
  791SOL    HW2 2818   2.019   6.103   5.363 -0.2267  0.6348  0.1848
  792SOL     OW 2819   1.177   2.591   2.656  0.2869  0.0560 -0.5400
  792SOL    HW1 2820   1.090   2.611   2.690 -0.7326 -0.7580 -2.5206
  792SOL    HW2 2821   1.236   2.648   2.706 -1.2353 -0.0716  1.5140
  793SOL     OW 2822   0.218   3.719   5.031 -0.1856 -0.0457 -0.3733
  793SOL    HW1 2823   0.126   3.726   5.058 -0.1354  0.4048 -0.3037
  793SOL    HW2 2824   0.217   3.734   4.937 -0.2738 -0.8400 -0.4974
  794SOL     OW 2825   2.203   4.670   0.980  0.0909  0.0628  0.3932
  794SOL    HW1 2826   2.195   4.697   0.889  0.2896 -0.3321  0.2597
  794SOL    HW2 2827   2.292   4.638   0.989  0.1516  0.3300  0.7892
  795SOL     OW 2828   4.695   5.407   5.128  0.2588 -0.1018 -0.1447
  795SOL    HW1 2829   4.773   5.460   5.143 -1.0639  1.8548  0.2023
  795SOL    HW2 2830   4.654   5.402   5.214  0.1448 -1.3955 -0.2597
  796SOL     OW 2831   1.239   3.112   2.933 -0.4664 -0.1024  0.1186
  796SOL    HW1 2832   1.194   3.162   2.865 -0.4904  0.3495  0.4595
  796SOL    HW2 2833   1.297   3.176   2.975 -0.5530 -0.3449  0.6103
  797SOL     OW 2834   4.994   1.918   3.849 -0.4573  0.2812 -0.0387
  797SOL    HW1 2835   4.901   1.918   3.827 -1.5182  1.8237  3.7063
  797SOL    HW2 2836   5.015   2.010   3.866  1.3881 -0.2028  0.5532
  798SOL     OW 2837   3.367   5.475   4.762 -0.0616  0.1095  0.1950
  798SOL    HW1 2838   3.378   5.433   4.847  0.4969 -1.5008 -0.6268
  798SOL    HW2 2839   3.457   5.485   4.729 -0.3180 -0.3469 -0.6752
  799SOL     OW 2840   2.255   5.877   1.983  0.2743  0.6346 -0.0902
  799SOL    HW1 2841   2.313   5.805   2.006  0.5609  0.4242 -1.3763
  799SOL    HW2 2842   2.265   5.886   1.888  0.5300  2.6146  0.0757
  800SOL     OW 2843   0.488   6.086   1.538 -0.4325  0.1250  0.4494
  800SOL    HW1 2844   0.408   6.040   1.562  0.4281 -0.2009  2.9216
  800SOL    HW2 2845   0.471   6.178   1.561  0.0796 -0.0411  1.5514
  801SOL     OW 2846   3.089   1.099   5.650  0.0270  0.3544 -0.3953
  801SOL    HW1 2847   3.177   1.125   5.677  0.8099 -1.9258 -0.4919
  801SOL    HW2 2848   3.101   1.064   5.561 -0.8377 -0.5267 -0.1853
  802SOL     OW 2849   4.499   2.622   3.579  0.1065  0.4959 -0.2403
  802SOL    HW1 2850   4.542   2.674   3.646  0.0159 -0.6790  0.7592
  802SOL    HW2 2851   4.411   2.659   3.572  0.8244  2.0852 -1.3822
  803SOL     OW 2852   5.142   6.092   5.441  0.3603  0.5838 -0.0896
  803SOL    HW1 2853   5.105   6.055   5.360 -0.5161 -0.2352  0.6606
  803SOL    HW2 2854   5.087   6.056   5.511  2.1263 -0.0469  1.0245
  804SOL     OW 2855   1.647   1.413   4.648 -0.3974  0.3183  0.0176
  804SOL    HW1 2856   1.727   1.457   4.617 -1.3477  2.7455  0.7602
  804SOL    HW2 2857   1.580   1.438   4.586 -0.9157 -0.4106  0.2750
  805SOL     OW 2858   1.382   1.227   0.911 -0.0989  0.0444  0.0964
  805SOL    HW1 2859   1.405   1.138   0.884  0.7592  0.0063  0.9024
  805SOL    HW2 2860   1.345   1.267   0.832 -0.2573 -0.9398 -0.3442
  806SOL     OW 2861   3.478   3.151   1.205 -0.1226 -0.6917  0.6071
  806SOL    HW1 2862   3.411   3.166   1.272  0.0367  0.6266  0.4921
  806SOL    HW2 2863   3.437   3.090   1.144 -1.0937 -0.1905  0.7346
  807SOL     OW 2864   3.064   0.059   4.629  0.3626 -0.1720  0.1168
  807SOL    HW1 2865   3.113  -0.007   4.678  0.5136  0.6845  1.1420
  807SOL    HW2 2866   3.070   0.138   4.682  0.8261  0.8954 -1.4491
  808SOL     OW 2867   0.297   1.167   3.612 -0.1516 -0.3278  0.5171
  808SOL    HW1 2868   0.319   1.087   3.659 -0.4025 -0.0638  1.0876
  808SOL    HW2 2869   0.211   1.149   3.574  0.6554 -1.0674 -1.0569
  809SOL     OW 2870   5.577   0.442   3.130  0.1871 -0.8990 -0.3526
  809SOL    HW1 2871   5.654   0.419   3.078  0.8808 -0.4323  0.4453
  809SOL    HW2 2872   5.550   0.528   3.098  0.2878 -0.8531 -0.3149
  810SOL     OW 2873   0.442   0.707   0.604 -0.3236 -0.4927  0.2147
  810SOL    HW1 2874   0.419   0.777   0.665  0.6742  0.1424 -0.1192
  810SOL    HW2 2875   0.537   0.707   0.602 -0.3354 -0.2141 -1.6641
  811SOL     OW 2876   4.276   2.073   4.172  0.4303 -0.3955  0.2032
  811SOL    HW1 2877   4.324   2.154   4.186  0.3402  0.0939 -1.9287
  811SOL    HW2 2878   4.331   2.006   4.212  1.0480  0.5862  1.0456
  812SOL     OW 2879   1.283   2.733   3.847  0.3751  0.2911  0.0013
  812SOL    HW1 2880   1.302   2.640   3.848 -2.4314 -0.3900  1.7747
  812SOL    HW2 2881   1.221   2.744   3.775  1.7009  1.0935 -1.0663
  813SOL     OW 2882   3.378   4.979   2.554 -0.1117 -0.2556  0.1983
  813SOL    HW1 2883   3.350   4.897   2.513 -0.1812  0.2767 -0.8511
  813SOL    HW2 2884   3.464   4.996   2.516 -0.0299  0.0741  0.5346
  814SOL     OW 2885   3.673   2.604   3.638  0.8042  0.3497  0.2795
  814SOL    HW1 2886   3.759   2.600   3.681  1.2300  1.6584 -0.4003
  814SOL    HW2 2887   3.692   2.583   3.546 -0.0554 -2.1889  0.5985
  815SOL     OW 2888   4.117   3.445   5.477 -0.4060  0.0766 -0.7723
  815SOL    HW1 2889   4.177   3.458   5.550 -0.5227 -1.5395 -0.3569
  815SOL    HW2 2890   4.039   3.497   5.499 -1.5963 -2.5180  1.6614
  816SOL     OW 2891   4.786   5.155   4.152 -0.3110  0.1366  0.2854
  816SOL    HW1 2892   4.803   5.243   4.117  0.0430  0.0545  0.2457
  816SOL    HW2 2893   4.695   5.158   4.180 -0.6583  0.1547 -0.7978
  817SOL     OW 2894   2.508   4.484   4.212 -0.1592 -0.1889 -0.3691
  817SOL    HW1 2895   2.493   4.567   4.257 -1.4153 -1.9840  2.8655
  817SOL    HW2 2896   2.421   4.445   4.205  0.6613 -2.3798  0.7510
  818SOL     OW 2897   0.124   2.658   5.676  0.1625 -0.1474  0.3932
  818SOL    HW1 2898   0.157   2.607   5.601  0.0567 -0.0741  0.2976
  818SOL    HW2 2899   0.037   2.622   5.693  0.1942 -0.1775  0.4948
  819SOL     OW 2900   1.029   5.575   5.725 -0.2433 -0.3055  0.4399
  819SOL    HW1 2901   0.956   5.544   5.670 -1.8978 -0.4670  2.5832
  819SOL    HW2 2902   1.044   5.503   5.787  0.5457  0.4387  1.1443
  820SOL     OW 2903   1.818   2.466   2.735  0.1857  0.6179 -0.0840
  820SOL    HW1 2904   1.907   2.494   2.758  0.3014  0.2781 -0.1088
  820SOL    HW2 2905   1.771   2.547   2.719  0.5275  0.7970 -0.1929
  821SOL     OW 2906   3.407   2.721   1.451  0.2649 -0.0987 -0.3080
  821SOL    HW1 2907   3.398   2.811   1.418 -0.1029 -0.0352 -0.0318
  821SOL    HW2 2908   3.451   2.674   1.380 -0.1151  0.1479 -0.7122
  822SOL     OW 2909   2.146   1.355   0.769  0.0460  0.0811 -0.7256
  822SOL    HW1 2910   2.177   1.333   0.857 -0.6920  2.8986  0.3503
  822SOL    HW2 2911   2.052   1.363   0.778 -0.0272  0.5567 -1.7421
  823SOL     OW 2912   5.783   2.551   0.399 -0.3654 -0.5885  0.3604
  823SOL    HW1 2913   5.753   2.509   0.479  0.3357  0.6925  1.3192
  823SOL    HW2 2914   5.865   2.593   0.423  0.2285 -0.7774 -1.2218
  824SOL     OW 2915   3.514   2.309   5.993 -0.2860 -0.0410 -0.4853
  824SOL    HW1 2916   3.470   2.328   5.911 -0.4548  2.8243  0.1574
  824SOL    HW2 2917   3.607   2.315   5.973 -0.3315  1.2632 -0.3980
  825SOL     OW 2918   0.232   0.504   5.927  0.6318  0.1488 -0.2677
  825SOL    HW1 2919   0.241   0.529   6.019 -0.8233 -2.4590  0.6936
  825SOL    HW2 2920   0.322   0.499   5.894  1.2053  0.4911  1.1813
  826SOL     OW 2921   2.821   2.077   3.201  0.5763 -0.2263  0.6814
  826SOL    HW1 2922   2.869   1.994   3.195  1.2500  0.0534  1.8570
  826SOL    HW2 2923   2.810   2.104   3.110  0.5979 -1.4558  0.2866
  827SOL     OW 2924   1.114   2.258   0.683 -0.4151  0.2169 -0.0560
  827SOL    HW1 2925   1.077   2.334   0.728  1.0387 -0.1132  1.7831
  827SOL    HW2 2926   1.093   2.184   0.739  3.6490  0.1066  1.6654
  828SOL     OW 2927   5.640   3.790   4.326 -0.1672  0.6902  0.0978
  828SOL    HW1 2928   5.567   3.811   4.383 -1.1233  3.2942 -1.9195
  828SOL    HW2 2929   5.600   3.751   4.248  0.8181  0.1621 -0.1705
  829SOL     OW 2930   2.514   3.321   6.084  0.0627  0.8373 -0.0262
  829SOL    HW1 2931   2.579   3.327   6.015  0.9598 -2.2272  0.4067
  829SOL    HW2 2932   2.437   3.283   6.041  0.5407 -0.8471  0.5412
  830SOL     OW 2933   2.106   2.869   4.637 -0.1431  0.2137 -0.1531
  830SOL    HW1 2934   2.115   2.866   4.733 -0.1425 -0.6187 -0.1680
  830SOL    HW2 2935   2.162   2.942   4.610  1.2676 -0.6443  0.3345
  831SOL     OW 2936   0.313   0.711   2.592 -0.0178  0.1451 -0.1738
  831SOL    HW1 2937   0.227   0.743   2.618  0.4515  0.6531  0.7983
  831SOL    HW2 2938   0.359   0.696   2.674  0.8966  0.0704 -0.6853
  832SOL     OW 2939   3.927   1.670   4.358  0.2355  0.2992  0.0006
  832SOL    HW1 2940   3.894   1.595   4.307  0.6842 -0.3855  0.6936
  832SOL    HW2 2941   3.867   1.677   4.432  1.8585 -1.3156  1.5821
  833SOL     OW 2942   2.640   2.087   4.831 -0.2633 -0.3087  0.0708
  833SOL    HW1 2943   2.717   2.032   4.823  1.9268  1.9607  3.1887
  833SOL    HW2 2944   2.573   2.029   4.868  0.7854 -1.6931 -0.1390
  834SOL     OW 2945   0.581   3.250   3.709 -0.2620  0.2328  0.1490
  834SOL    HW1 2946   0.582   3.228   3.616  0.1013  0.7263  0.0372
  834SOL    HW2 2947   0.627   3.333   3.715  0.3163 -0.1326  0.8608
  835SOL     OW 2948   5.147   6.084   2.777  0.0116 -0.2421  0.3769
  835SOL    HW1 2949   5.206   6.109   2.848 -1.3460  0.8577  1.1819
  835SOL    HW2 2950   5.108   6.001   2.807  1.5187 -1.2982 -0.4333
  836SOL     OW 2951   4.977   5.307   2.510 -0.0508 -0.1423 -0.2539
  836SOL    HW1 2952   4.927   5.290   2.430  2.1482 -4.5715 -0.9613
  836SOL    HW2 2953   5.061   5.340   2.479  0.0142  0.3293  0.4155
  837SOL     OW 2954   1.888   0.827   5.047  0.1338  0.3062  0.7493
  837SOL    HW1 2955   1.800   0.858   5.028 -0.5429 -1.2996  1.0621
  837SOL    HW2 2956   1.897   0.834   5.142 -0.4939 -1.5187  0.9737
  838SOL     OW 2957   2.595   0.294   5.432  0.2552  0.1926  0.1590
  838SOL    HW1 2958   2.591   0.199   5.434  0.0919  0.1926 -0.0812
  838SOL    HW2 2959   2.641   0.319   5.512 -1.8379  0.0296  1.4907
  839SOL     OW 2960   4.751   3.957   4.277 -0.6096 -0.7919  0.1367
  839SOL    HW1 2961   4.681   3.965   4.212  1.1689  0.7578 -1.7328
  839SOL    HW2 2962   4.822   3.912   4.231  0.3874 -0.4387  1.2563
  840SOL     OW 2963   3.025   1.947   5.184  0.0937  0.1183  0.3891
  840SOL    HW1 2964   3.083   1.943   5.108 -0.4722  0.4625 -0.0709
  840SOL    HW2 2965   3.078   1.986   5.253  0.1891  1.1324 -0.2412
  841SOL     OW 2966   3.236   1.714   0.691 -0.4571 -0.3519  0.2359
  841SOL    HW1 2967   3.273   1.802   0.692 -0.2081 -0.4556  0.5310
  841SOL    HW2 2968   3.150   1.724   0.651 -0.4786  0.0431  0.3788
  842SOL     OW 2969   1.988   5.269   4.221  0.0527 -0.4586 -0.1938
  842SOL    HW1 2970   2.054   5.328   4.258  1.1660 -2.4019  1.1597
  842SOL    HW2 2971   2.028   5.236   4.141  0.3262 -0.8646  0.1010
  843SOL     OW 2972   3.819   2.418   5.927  0.3598 -0.4214 -0.0289
  843SOL    HW1 2973   3.779   2.364   5.859  1.3532 -0.2814 -0.7536
  843SOL    HW2 2974   3.913   2.405   5.915  0.5972  0.9359  0.2128
  844SOL     OW 2975   1.398   5.792   3.205  0.2530 -0.6750 -0.1032
  844SOL    HW1 2976   1.483   5.761   3.173 -1.0692 -2.3483 -2.2736
  844SOL    HW2 2977   1.361   5.839   3.130 -0.4979  0.6007  1.0323
  845SOL     OW 2978   4.993   2.185   1.604 -0.0020  0.1985 -0.0165
  845SOL    HW1 2979   5.021   2.109   1.656  0.4859  0.2899 -0.1330
  845SOL    HW2 2980   4.935   2.233   1.662 -0.1474 -0.1536  0.1346
  846SOL     OW 2981   5.360   3.716   5.137  0.2433 -0.2117  0.2238
  846SOL    HW1 2982   5.448   3.753   5.132 -0.4379  1.4791  0.1450
  846SOL    HW2 2983   5.362   3.641   5.077  1.8615 -0.7575  0.9052
  847SOL     OW 2984   4.477   2.100   2.610  0.4631  0.2293  0.0711
  847SOL    HW1 2985   4.437   2.187   2.618  0.9438  0.6118 -1.3508
  847SOL    HW2 2986   4.571   2.117   2.609  0.5838 -0.3950  0.6333
  848SOL     OW 2987   2.362   1.739   3.763  0.5739 -0.3909 -0.0143
  848SOL    HW1 2988   2.362   1.793   3.842 -1.1835 -0.7392  0.2511
  848SOL    HW2 2989   2.430   1.778   3.708  0.3587  1.1763  0.7761
  849SOL     OW 2990   1.473   2.288   3.734 -0.3559 -0.0059 -0.0025
  849SOL    HW1 2991   1.418   2.348   3.785 -0.4779  0.2207 -0.3946
  849SOL    HW2 2992   1.416   2.213   3.715 -0.0542 -0.4824  0.9110
  850SOL     OW 2993   3.735   2.204   2.997  0.4476 -0.4826  0.3150
  850SOL    HW1 2994   3.811   2.150   3.020  2.6434  2.3306  0.1020
  850SOL    HW2 2995   3.667   2.176   3.059  2.0801 -2.0842  1.5061
  851SOL     OW 2996   4.834   3.268   0.761  0.2886 -0.3082  0.1962
  851SOL    HW1 2997   4.752   3.232   0.727 -0.2530  0.0155  1.1153
  851SOL    HW2 2998   4.879   3.303   0.684 -1.0200  0.6466 -0.1717
  852SOL     OW 2999   2.391   3.639   4.050 -0.1537 -0.4344 -0.3196
  852SOL    HW1 3000   2.301   3.618   4.024  0.0809  1.0952 -2.6262
  852SOL    HW2 3001   2.436   3.656   3.967  1.7868  0.6513  0.8995
  853SOL     OW 3002   5.540   5.743   3.337  0.4146 -0.4374  0.4030
  853SOL    HW1 3003   5.606   5.813   3.339 -0.5049  0.4622  0.1099
  853SOL    HW2 3004   5.563   5.687   3.412  1.7669 -0.4100  0.0434
  854SOL     OW 3005   4.639   4.609   2.761 -0.3214  0.0127 -0.0891
  854SOL    HW1 3006   4.678   4.523   2.778  0.7224  0.6925  1.0983
  854SOL    HW2 3007   4.660   4.626   2.669  1.7457  0.0971  0.3491
  855SOL     OW 3008   2.602   1.068   4.943 -0.1133 -0.1168 -0.1144
  855SOL    HW1 3009   2.591   0.976   4.919 -3.0897 -0.7030  2.6738
  855SOL    HW2 3010   2.661   1.066   5.018  2.1372  0.6922 -1.7565
  856SOL     OW 3011   4.597   4.041   0.017  0.3656  0.6089  0.1508
  856SOL    HW1 3012   4.595   3.951   0.050 -0.0645  1.5212  2.7934
  856SOL    HW2 3013   4.626   4.094   0.091 -0.8603  2.8649 -0.8668
  857SOL     OW 3014   3.258   1.591   2.529  0.0836  0.3816 -0.2796
  857SOL    HW1 3015   3.318   1.574   2.457 -0.8634  1.4238 -1.3526
  857SOL    HW2 3016   3.194   1.520   2.524 -2.3474  2.5225 -3.1121
  858SOL     OW 3017   1.460   2.913   1.339 -0.0052 -0.4241 -0.3678
  858SOL    HW1 3018   1.373   2.878   1.321 -0.3922  0.5450 -0.4232
  858SOL    HW2 3019   1.517   2.868   1.276 -0.4002 -1.2977 -0.1167
  859SOL     OW 3020   0.415   0.526   4.953  0.5398 -0.7014  0.2227
  859SOL    HW1 3021   0.422   0.431   4.956 -0.1086 -0.7727 -0.3884
  859SOL    HW2 3022   0.324   0.543   4.929  0.5545  0.0806  0.7008
  860SOL     OW 3023   3.793   1.725   1.625 -0.0524 -0.0715 -0.0963
  860SOL    HW1 3024   3.794   1.802   1.682 -1.0564  0.0401 -0.2100
  860SOL    HW2 3025   3.885   1.710   1.603  0.1434  1.2244 -0.2434
  861SOL     OW 3026   0.828   1.336   3.148 -0.0654 -0.1819 -0.5538
  861SOL    HW1 3027   0.752   1.336   3.205  0.1834 -1.2165 -0.1929
  861SOL    HW2 3028   0.827   1.421   3.105 -2.4433 -0.8149 -1.9030
  862SOL     OW 3029   0.840   3.909   2.908 -0.2541  0.4845  0.7868
  862SOL    HW1 3030   0.799   3.833   2.950 -0.1166  0.4145  0.7925
  862SOL    HW2 3031   0.780   3.981   2.928 -0.5504  0.3200  0.5159
  863SOL     OW 3032   2.231   0.740   5.384 -0.0044 -0.3560 -0.6625
  863SOL    HW1 3033   2.233   0.789   5.302 -0.0612  1.4516  0.3541
  863SOL    HW2 3034   2.283   0.661   5.367  1.8901  1.0571 -1.7830
  864SOL     OW 3035   3.973   5.142   5.156 -0.1374 -0.0357  0.0938
  864SOL    HW1 3036   3.986   5.142   5.061  0.1164 -0.1453  0.1274
  864SOL    HW2 3037   3.997   5.054   5.184 -1.7196 -0.4947  0.0726
  865SOL     OW 3038   0.405   1.361   1.530 -0.8815  0.3821 -0.6634
  865SOL    HW1 3039   0.425   1.450   1.500 -0.5597  1.1967  1.7811
  865SOL    HW2 3040   0.458   1.305   1.474  0.8149  1.8895 -0.6497
  866SOL     OW 3041   1.556   5.442   4.098 -0.0133  0.4527  0.4038
  866SOL    HW1 3042   1.491   5.388   4.053 -1.5215  3.2157 -1.0038
  866SOL    HW2 3043   1.521   5.453   4.187 -0.7030  0.6792  0.1095
  867SOL     OW 3044   0.442   3.441   1.045  0.0793  0.6897 -0.8111
  867SOL    HW1 3045   0.381   3.474   0.980 -0.2728  1.5367 -0.0759
  867SOL    HW2 3046   0.407   3.471   1.129  0.8490  0.1494 -0.2749
  868SOL     OW 3047   5.461   1.841   1.379 -0.0065  0.0322 -0.4884
  868SOL    HW1 3048   5.483   1.916   1.435 -0.3053  1.5287 -2.2560
  868SOL    HW2 3049   5.366   1.834   1.387  0.0824 -0.5242  0.1025
  869SOL     OW 3050   3.089   3.952   0.606 -0.6486 -0.1294 -0.3593
  869SOL    HW1 3051   3.165   3.894   0.598  0.1313  0.9941 -1.4429
  869SOL    HW2 3052   3.028   3.903   0.660  1.3882 -0.5172  1.7794
  870SOL     OW 3053   3.290   5.301   4.545 -0.5684 -0.0822 -0.4527
  870SOL    HW1 3054   3.282   5.347   4.628  1.2125 -2.1797  0.9676
  870SOL    HW2 3055   3.324   5.367   4.485 -1.7188  1.4169  0.4652
  871SOL     OW 3056   0.248   2.572   4.606 -0.0172  0.0595 -0.2024
  871SOL    HW1 3057   0.230   2.521   4.527  0.0410  1.6909 -1.3210
  871SOL    HW2 3058   0.169   2.625   4.619 -0.8289 -1.5285  1.9940
  872SOL     OW 3059   5.271   5.731   1.530  0.0215 -0.3673 -0.5153
  872SOL    HW1 3060   5.184   5.705   1.559  0.2805  0.0924  0.7158
  872SOL    HW2 3061   5.331   5.691   1.593  0.8193 -1.6349 -1.9865
  873SOL     OW 3062   3.064   5.687   5.800 -0.8531 -0.0769 -0.5932
  873SOL    HW1 3063   3.033   5.670   5.711 -0.7154  2.5341 -1.1974
  873SOL    HW2 3064   3.157   5.667   5.798 -0.8949 -0.2422 -0.9577
  874SOL     OW 3065   2.504   1.294   4.426 -0.2107 -0.2519  0.1977
  874SOL    HW1 3066   2.426   1.239   4.423 -1.0890  0.8697  1.1484
  874SOL    HW2 3067   2.473   1.376   4.465  1.3427  0.4038  0.1139
  875SOL     OW 3068   0.578   1.007   2.647  0.1336  0.6617 -0.1698
  875SOL    HW1 3069   0.590   1.096   2.680 -0.5963  0.2720  1.2310
  875SOL    HW2 3070   0.666   0.970   2.646  0.2202  0.8027  1.0416
  876SOL     OW 3071   1.615   2.367   0.665 -0.1504 -0.2743 -0.0762
  876SOL    HW1 3072   1.648   2.282   0.694 -0.7502 -0.1290  1.0720
  876SOL    HW2 3073   1.581   2.351   0.577  1.8305 -0.6944 -0.8248
  877SOL     OW 3074   1.392   6.120   1.447  0.5942  0.0004 -0.5265
  877SOL    HW1 3075   1.380   6.206   1.488  1.3291  0.2921 -0.8918
  877SOL    HW2 3076   1.438   6.068   1.513 -0.9664 -0.5321  0.1758
  878SOL     OW 3077   0.753   0.348   0.503  0.0954 -0.5819  0.3272
  878SOL    HW1 3078   0.713   0.391   0.578  0.6600  0.9542 -0.2252
  878SOL    HW2 3079   0.719   0.394   0.426 -0.0209 -1.7471 -0.3511
  879SOL     OW 3080   3.824   0.286   0.658 -0.1511 -0.0986 -0.1631
  879SOL    HW1 3081   3.764   0.267   0.729 -0.3285 -1.1919 -0.5727
  879SOL    HW2 3082   3.793   0.231   0.585 -0.3439  1.4276 -1.2855
  880SOL     OW 3083   4.377   3.182   4.669  0.0173  0.3631 -0.4920
  880SOL    HW1 3084   4.444   3.114   4.658 -1.0661 -0.9091  0.4863
  880SOL    HW2 3085   4.427   3.260   4.691  1.1961 -0.6056  0.4485
  881SOL     OW 3086   2.588   2.636   2.095 -0.2303  0.0384  0.3320
  881SOL    HW1 3087   2.554   2.649   2.007 -2.4954  2.7771  1.4712
  881SOL    HW2 3088   2.523   2.581   2.139 -0.5729  0.9999  1.0595
  882SOL     OW 3089   0.918   3.747   2.468  0.6482 -0.4906 -0.0182
  882SOL    HW1 3090   0.916   3.843   2.463  0.4916 -0.5185 -0.5482
  882SOL    HW2 3091   0.869   3.726   2.547  0.8631 -0.1255  0.2170
  883SOL     OW 3092   0.511   2.792   2.050 -0.1674 -0.1571 -0.0555
  883SOL    HW1 3093   0.431   2.742   2.033 -0.1500 -0.0999 -0.3088
  883SOL    HW2 3094   0.480   2.875   2.085 -0.2755  0.3070 -1.2179
  884SOL     OW 3095   4.399   3.650   2.684  0.3198 -0.0364 -0.4469
  884SOL    HW1 3096   4.343   3.629   2.609 -2.1586 -0.4611  1.3714
  884SOL    HW2 3097   4.373   3.738   2.710  0.2594 -0.3301  0.5653
  885SOL     OW 3098   0.738   4.346   4.660 -0.3225 -0.0673 -0.2402
  885SOL    HW1 3099   0.667   4.371   4.719 -0.7336 -1.8074  0.0418
  885SOL    HW2 3100   0.805   4.309   4.718  0.3285  0.4729 -0.6318
  886SOL     OW 3101   0.143   0.089   2.856 -0.4840 -0.0054 -0.6729
  886SOL    HW1 3102   0.106   0.001   2.868 -2.7521  0.8882 -0.7734
  886SOL    HW2 3103   0.153   0.097   2.761  0.5819 -0.4460 -0.6179
  887SOL     OW 3104   3.882   3.033   5.657 -0.6501 -0.0845  0.1649
  887SOL    HW1 3105   3.877   3.127   5.636  0.2724  0.2726  1.4370
  887SOL    HW2 3106   3.801   2.997   5.621 -0.6236  1.0248 -1.1446
  888SOL     OW 3107   0.105   5.933   3.792 -0.3813  0.1562  0.4216
  888SOL    HW1 3108   0.069   5.915   3.879 -0.3848 -1.1980  0.1558
  888SOL    HW2 3109   0.041   5.992   3.751 -1.0716 -0.2955  0.8376
  889SOL     OW 3110   3.015   2.297   1.860  0.0863  0.6165  0.3395
  889SOL    HW1 3111   2.943   2.235   1.866 -0.2032  1.0401  1.3389
  889SOL    HW2 3112   3.081   2.264   1.921  0.8777  0.0845 -0.7580
  890SOL     OW 3113   4.209   4.399   5.969  0.4301  0.2519  0.0774
  890SOL    HW1 3114   4.264   4.468   6.006  2.2391 -0.1403 -1.6885
  890SOL    HW2 3115   4.269   4.327   5.952 -1.0657 -1.0536  0.0869
  891SOL     OW 3116   2.009   5.725   4.873  0.3572 -0.7059  0.1108
  891SOL    HW1 3117   1.920   5.741   4.842  0.5153  0.1646  0.0541
  891SOL    HW2 3118   2.005   5.741   4.967  0.6302  0.2454 -0.0245
  892SOL     OW 3119   0.006   3.474   5.361  0.1942  0.4561  0.4294
  892SOL    HW1 3120   0.026   3.409   5.293  0.6229 -0.9191  1.7913
  892SOL    HW2 3121  -0.045   3.541   5.316  0.7899 -0.1994 -1.3245
  893SOL     OW 3122   0.164   5.780   1.021 -0.5632  0.1658  0.3726
  893SOL    HW1 3123   0.240   5.722   1.029  1.1915  2.4064  0.9414
  893SOL    HW2 3124   0.127   5.784   1.110 -0.3966  0.2956  0.4359
  894SOL     OW 3125   2.115   2.263   0.215 -0.5034  0.2605 -0.2845
  894SOL    HW1 3126   2.113   2.355   0.243  1.1924 -0.2564  1.8179
  894SOL    HW2 3127   2.138   2.267   0.122 -2.0946  1.9667 -0.6760
  895SOL     OW 3128   4.544   0.195   4.209  0.1176  0.0079  0.1162
  895SOL    HW1 3129   4.511   0.275   4.169 -1.5208  0.3804  2.0923
  895SOL    HW2 3130   4.639   0.200   4.198  0.3129  3.3891  2.1876
  896SOL     OW 3131   5.531   1.869   2.498  0.0953 -0.6125  0.6900
  896SOL    HW1 3132   5.594   1.938   2.516 -0.1650 -0.2613  0.2993
  896SOL    HW2 3133   5.584   1.793   2.474  0.3709 -0.1065 -0.3888
  897SOL     OW 3134   4.675   5.296   0.231  0.3857  0.5850 -0.4468
  897SOL    HW1 3135   4.593   5.304   0.279 -0.3839  1.2451 -1.8180
  897SOL    HW2 3136   4.682   5.203   0.211 -0.3344  0.6081 -0.8335
  898SOL     OW 3137   0.851   4.748   0.206 -0.3153  0.1542 -0.2096
  898SOL    HW1 3138   0.941   4.715   0.194 -0.4595 -0.1783 -0.3936
  898SOL    HW2 3139   0.804   4.676   0.247 -0.9219 -0.3196 -1.6648
  899SOL     OW 3140   0.484   5.972   1.186 -0.0634 -0.2031  0.2589
  899SOL    HW1 3141   0.439   6.034   1.129 -1.2877 -2.9752 -2.0120
  899SOL    HW2 3142   0.414   5.933   1.239  0.2223 -1.5513 -0.3118
  900SOL     OW 3143   4.970   3.421   6.017  0.3897  0.2172  0.1793
  900SOL    HW1 3144   4.953   3.341   5.967  0.0846  0.4972 -0.1598
  900SOL    HW2 3145   4.884   3.451   6.046  0.5608  0.0423  0.9086
  901SOL     OW 3146   0.216   4.510   5.959  0.4060 -0.1027  0.4664
  901SOL    HW1 3147   0.137   4.563   5.964  0.7048  0.3639  0.2650
  901SOL    HW2 3148   0.273   4.544   6.027 -0.1097 -1.3710  1.5735
  902SOL     OW 3149   3.965   1.873   3.461  0.1909 -0.0001  0.0153
  902SOL    HW1 3150   4.047   1.824   3.456  0.2414  0.0124  0.7475
  902SOL    HW2 3151   3.978   1.937   3.530 -0.2875  0.2848 -0.1523
  903SOL     OW 3152   2.549   2.527   2.864 -0.3552 -0.0559 -0.2017
  903SOL    HW1 3153   2.628   2.580   2.866 -0.8333  0.7078 -0.9871
  903SOL    HW2 3154   2.478   2.590   2.857 -1.0524 -0.7292  0.6598
  904SOL     OW 3155   0.307   3.657   1.759  0.1408 -0.2247  0.5700
  904SOL    HW1 3156   0.299   3.712   1.681 -1.3890  0.6574  1.3043
  904SOL    HW2 3157   0.222   3.615   1.768  0.3991 -0.5543  1.5837
  905SOL     OW 3158   4.547   0.115   3.748  0.0715  0.0821 -0.2238
  905SOL    HW1 3159   4.575   0.106   3.839 -1.0741 -1.3448  0.0413
  905SOL    HW2 3160   4.491   0.038   3.733  2.0579 -0.9947 -2.8454
  906SOL     OW 3161   1.716   4.599   2.761 -0.0709  0.4214 -0.0392
  906SOL    HW1 3162   1.661   4.583   2.684 -0.1522 -2.4813  0.5165
  906SOL    HW2 3163   1.800   4.558   2.740  0.2917  0.6113  0.9786
  907SOL     OW 3164   1.786   4.768   3.865 -0.0225  0.1935 -0.0159
  907SOL    HW1 3165   1.801   4.677   3.890 -0.5887 -0.7621 -2.8078
  907SOL    HW2 3166   1.752   4.764   3.776 -1.9813  3.0513  0.4340
  908SOL     OW 3167   4.347   4.127   3.671  0.5682 -0.3532 -0.3304
  908SOL    HW1 3168   4.354   4.189   3.598  1.0854 -1.2345 -1.0504
  908SOL    HW2 3169   4.364   4.180   3.749 -1.8204  1.0032 -0.6333
  909SOL     OW 3170   2.901   5.547   4.655 -0.3095 -0.0253  0.3880
  909SOL    HW1 3171   2.819   5.586   4.685 -0.6790 -0.0608 -0.5573
  909SOL    HW2 3172   2.918   5.587   4.570 -0.5778 -1.7079 -0.5129
  910SOL     OW 3173   4.315   3.626   0.713 -0.0704  0.1627 -0.3937
  910SOL    HW1 3174   4.326   3.655   0.804  2.0181 -2.2194  0.2137
  910SOL    HW2 3175   4.402   3.635   0.674 -0.2831 -1.3724 -1.3200
  911SOL     OW 3176   4.018   2.172   4.093  0.3063 -0.5498  0.0807
  911SOL    HW1 3177   3.959   2.105   4.128 -0.2713 -1.3483 -2.2764
  911SOL    HW2 3178   4.105   2.132   4.097  0.1062 -1.0379 -0.3449
  912SOL     OW 3179   2.815   5.404   2.585 -0.3946 -0.5234 -0.3245
  912SOL    HW1 3180   2.909   5.411   2.602  0.0711 -0.5392 -2.5510
  912SOL    HW2 3181   2.795   5.311   2.599  0.2036 -0.7628 -0.9846
  913SOL     OW 3182   3.667   0.769   5.865  0.3245 -0.1805 -0.1578
  913SOL    HW1 3183   3.717   0.843   5.900 -0.7303  1.2103 -1.4501
  913SOL    HW2 3184   3.732   0.713   5.824  1.0607  0.4213  0.1694
  914SOL     OW 3185   3.517   3.031   1.770 -0.0107 -0.0481  0.0034
  914SOL    HW1 3186   3.583   3.006   1.835 -1.0085  0.9074  1.4426
  914SOL    HW2 3187   3.451   2.962   1.775 -0.2191  0.1630  0.2173
  915SOL     OW 3188   2.209   3.303   4.126  0.2615  0.2494  0.0523
  915SOL    HW1 3189   2.261   3.341   4.197  2.5336 -1.0299 -0.8072
  915SOL    HW2 3190   2.233   3.354   4.049  0.6032 -0.6306 -0.4404
  916SOL     OW 3191   1.398   4.400   4.575  0.1918  0.1432  0.4202
  916SOL    HW1 3192   1.399   4.314   4.534 -2.3312  1.1681 -2.0597
  916SOL    HW2 3193   1.443   4.457   4.513 -0.6937  1.1394  0.6765
  917SOL     OW 3194   0.669   2.700   0.287  0.6411  0.1353  0.2358
  917SOL    HW1 3195   0.724   2.626   0.314 -0.2627  0.0107  1.8061
  917SOL    HW2 3196   0.600   2.705   0.353 -0.3393  1.2892 -0.8191
  918SOL     OW 3197   3.461   1.788   2.353  0.6133  0.0814  0.3282
  918SOL    HW1 3198   3.455   1.695   2.331  2.2997 -0.1607  0.7667
  918SOL    HW2 3199   3.413   1.832   2.283 -0.6119 -1.1282  0.3544
  919SOL     OW 3200   3.399   0.472   5.012 -0.1561  0.3031  0.2760
  919SOL    HW1 3201   3.308   0.441   5.022 -0.3970  0.2378 -1.7910
  919SOL    HW2 3202   3.450   0.392   5.004  0.1421  0.3359  1.6165
  920SOL     OW 3203   0.320   3.796   1.997  0.7202 -0.5936  0.3447
  920SOL    HW1 3204   0.344   3.706   2.020  1.4762 -0.2262  1.0400
  920SOL    HW2 3205   0.317   3.796   1.901 -0.4386 -1.6422  0.3431
  921SOL     OW 3206   6.090   3.390   1.956  0.5089  0.5128  0.1235
  921SOL    HW1 3207   6.126   3.322   2.012 -0.2839 -0.3838 -0.4277
  921SOL    HW2 3208   6.014   3.424   2.005  0.7025  0.7693  0.2481
  922SOL     OW 3209   2.821   2.939   0.870  0.1692  0.0516  0.0181
  922SOL    HW1 3210   2.830   3.033   0.883  0.2333 -0.0896  1.0466
  922SOL    HW2 3211   2.899   2.914   0.820 -0.8744  0.8613 -2.1468
  923SOL     OW 3212   3.300   5.227   1.967 -0.0652 -0.6177  0.0037
  923SOL    HW1 3213   3.377   5.231   1.910 -0.8084  0.5064 -0.9928
  923SOL    HW2 3214   3.324   5.167   2.037  0.1818 -3.7343 -2.5494
  924SOL     OW 3215   4.681   4.599   5.207 -0.2312 -0.4189 -0.3165
  924SOL    HW1 3216   4.702   4.654   5.131  0.0607 -0.0551  0.0269
  924SOL    HW2 3217   4.761   4.596   5.259 -0.7065  0.1282  0.4707
  925SOL     OW 3218   5.886   0.606   5.583 -0.3603  0.0149  0.2395
  925SOL    HW1 3219   5.821   0.667   5.619 -0.6768  0.2053 -0.6309
  925SOL    HW2 3220   5.904   0.546   5.655 -0.5586  0.7238  0.8975
  926SOL     OW 3221   2.426   2.476   2.225 -0.0292  0.2875 -0.0843
  926SOL    HW1 3222   2.447   2.455   2.316  2.0417 -0.4160 -0.6686
  926SOL    HW2 3223   2.334   2.453   2.215  0.0110 -0.7021  1.5431
  927SOL     OW 3224   4.075   4.606   5.139 -0.1028  0.0561  0.3224
  927SOL    HW1 3225   4.147   4.606   5.076 -0.8638  0.8052 -0.5732
  927SOL    HW2 3226   3.996   4.597   5.086 -0.6821 -0.8773  1.2992
  928SOL     OW 3227   2.555   0.250   5.843  0.2057 -0.3928 -0.2009
  928SOL    HW1 3228   2.595   0.317   5.787 -0.5399 -0.2571 -0.5881
  928SOL    HW2 3229   2.462   0.268   5.839  0.0502 -1.0632  0.2118
  929SOL     OW 3230   4.838   3.574   0.591  0.0286  0.0826 -0.8544
  929SOL    HW1 3231   4.873   3.487   0.608  0.3393  0.3049 -0.3553
  929SOL    HW2 3232   4.915   3.629   0.575 -0.2048  0.0216 -2.3871
  930SOL     OW 3233   0.232   4.981   0.959  0.1182 -0.0873  0.2161
  930SOL    HW1 3234   0.143   4.947   0.966  0.4549 -1.5734 -1.6515
  930SOL    HW2 3235   0.257   4.961   0.868  2.3875  0.1685  0.7344
  931SOL     OW 3236   5.286   4.335   5.524 -0.1703 -0.2635 -0.1295
  931SOL    HW1 3237   5.356   4.375   5.473  0.6647 -0.4381  0.8536
  931SOL    HW2 3238   5.324   4.254   5.559 -0.8189 -0.3020  0.5189
  932SOL     OW 3239   3.555   5.377   3.942  0.5327  0.2159  0.0341
  932SOL    HW1 3240   3.647   5.353   3.926  0.5716 -0.0169  0.5818
  932SOL    HW2 3241   3.536   5.341   4.028 -0.2993 -0.3611 -0.3868
  933SOL     OW 3242   5.047   0.597   2.500 -0.0298  0.7327 -0.3514
  933SOL    HW1 3243   5.007   0.640   2.576  2.8133  0.7153  1.3150
  933SOL    HW2 3244   5.028   0.504   2.512 -1.7622  0.9477 -1.1305
  934SOL     OW 3245   4.448   3.394   0.860  0.3271 -0.5478  0.5712
  934SOL    HW1 3246   4.470   3.470   0.807 -1.9148 -1.5219 -1.9820
  934SOL    HW2 3247   4.465   3.319   0.804 -0.9632 -1.7232  1.6521
  935SOL     OW 3248   1.309   2.244   0.167  0.6714  0.0481  0.3435
  935SOL    HW1 3249   1.282   2.310   0.231  1.1472  0.8703 -0.2880
  935SOL    HW2 3250   1.326   2.166   0.219 -0.9301  0.0835  0.9893
  936SOL     OW 3251   5.440   6.094   5.840 -0.1489  0.0527 -0.2547
  936SOL    HW1 3252   5.429   6.121   5.749 -0.1699 -1.9405 -0.9049
  936SOL    HW2 3253   5.362   6.041   5.858  0.3128 -0.3471  0.6136
  937SOL     OW 3254   2.854   1.764   5.321 -0.2133  0.3022 -0.3597
  937SOL    HW1 3255   2.923   1.707   5.355 -1.3289 -1.4815 -0.9474
  937SOL    HW2 3256   2.901   1.840   5.286  1.6824 -1.6175 -2.3345
  938SOL     OW 3257   5.478   1.968   4.431 -0.0930 -0.3093  0.0420
  938SOL    HW1 3258   5.519   1.894   4.475 -1.2400  0.5297  2.7329
  938SOL    HW2 3259   5.389   1.938   4.412 -0.3074  0.0851  0.4030
  939SOL     OW 3260   4.173   1.428   4.923  0.1493  0.1322 -0.4458
  939SOL    HW1 3261   4.144   1.414   4.833  0.4294 -0.8569 -0.3987
  939SOL    HW2 3262   4.268   1.413   4.919  0.1466 -0.0081  0.0307
  940SOL     OW 3263   5.635   3.190   4.202 -0.9875  0.4889  0.3247
  940SOL    HW1 3264   5.654   3.282   4.215  3.4083 -0.2093  0.5353
  940SOL    HW2 3265   5.621   3.182   4.107 -0.7889  1.2940  0.2184
  941SOL     OW 3266   5.078   0.771   0.252 -0.2789  0.0237 -0.1812
  941SOL    HW1 3267   5.037   0.791   0.336  2.0963  1.4506  0.7736
  941SOL    HW2 3268   5.105   0.857   0.218 -0.2186 -0.6304 -1.8833
  942SOL     OW 3269   1.386   0.263   3.179 -0.1697 -0.2818  0.2501
  942SOL    HW1 3270   1.465   0.221   3.144  0.3162  1.2942 -0.6238
  942SOL    HW2 3271   1.418   0.321   3.248 -0.8099 -1.0914  1.2651
  943SOL     OW 3272   3.392   4.527   0.152  0.0054  0.0580  0.6131
  943SOL    HW1 3273   3.334   4.558   0.082 -0.5537  0.3586  1.1974
  943SOL    HW2 3274   3.369   4.580   0.228  1.4246  0.5386  0.7343
  944SOL     OW 3275   0.499   0.935   0.225 -0.0719 -0.1872 -0.0568
  944SOL    HW1 3276   0.431   0.945   0.159 -1.0473  0.4708  1.0068
  944SOL    HW2 3277   0.541   1.021   0.230 -0.5944  0.0284  0.7882
  945SOL     OW 3278   3.561   0.722   2.603 -0.2208 -0.1763 -0.3290
  945SOL    HW1 3279   3.566   0.681   2.689 -0.4199  2.4607  1.0479
  945SOL    HW2 3280   3.546   0.649   2.542 -2.9042 -1.8967  2.1483
  946SOL     OW 3281   3.129   4.991   5.560  0.5576  0.4320  0.1949
  946SOL    HW1 3282   3.180   4.910   5.564  1.0408  0.7043 -0.3922
  946SOL    HW2 3283   3.049   4.967   5.512  0.0123 -0.0428  1.2882
  947SOL     OW 3284   2.191   2.999   5.441  0.8922 -0.0913  0.3215
  947SOL    HW1 3285   2.195   2.904   5.434  1.3999 -0.0881  0.5345
  947SOL    HW2 3286   2.111   3.016   5.492  0.9501 -0.4141  0.5216
  948SOL     OW 3287   1.376   1.058   1.905  0.0038 -1.0209 -0.4882
  948SOL    HW1 3288   1.462   1.074   1.868 -0.7621 -0.0656 -1.9350
  948SOL    HW2 3289   1.330   1.008   1.838 -0.2391 -2.5055  0.7247
  949SOL     OW 3290   4.640   2.446   2.603 -0.3678  0.2334 -0.6967
  949SOL    HW1 3291   4.568   2.487   2.650 -0.8450  0.8493 -1.9012
  949SOL    HW2 3292   4.622   2.465   2.511  0.7002 -0.6337 -1.1127
  950SOL     OW 3293   4.594   1.138   0.871 -0.1695 -0.5895 -0.0110
  950SOL    HW1 3294   4.512   1.089   0.866  0.2601 -1.2443 -0.9429
  950SOL    HW2 3295   4.614   1.161   0.780  1.7692 -2.3187 -0.1108
  951SOL     OW 3296   0.700   1.088   0.613 -0.4732  0.2430  0.2169
  951SOL    HW1 3297   0.741   1.056   0.533  0.6275  1.4117  0.2749
  951SOL    HW2 3298   0.618   1.128   0.584 -0.0730  0.6754 -0.3462
  952SOL     OW 3299   2.996   4.789   3.969  0.2634  0.4088  0.0779
  952SOL    HW1 3300   2.934   4.728   3.929 -0.5425  0.5676  1.0370
  952SOL    HW2 3301   3.080   4.745   3.964 -0.3924 -1.0628  1.2562
  953SOL     OW 3302   2.087   4.671   2.738 -0.1441  0.5121 -0.0574
  953SOL    HW1 3303   2.183   4.668   2.739 -0.1670 -0.9454 -0.1639
  953SOL    HW2 3304   2.066   4.750   2.786  1.1068  0.2038  1.0893
  954SOL     OW 3305   3.259   0.524   2.732  0.1591 -0.2847  0.6029
  954SOL    HW1 3306   3.181   0.575   2.754  1.2158  1.2062  1.0572
  954SOL    HW2 3307   3.256   0.515   2.637 -0.8313 -0.7281  0.6618
  955SOL     OW 3308   3.078   0.120   1.054 -0.2501 -0.2457 -0.0977
  955SOL    HW1 3309   3.117   0.177   1.120  0.9879  0.5029 -1.4140
  955SOL    HW2 3310   3.136   0.128   0.978 -0.8785 -2.1061 -0.8389
  956SOL     OW 3311   1.656   1.700   0.498 -0.4282  0.1804  0.0225
  956SOL    HW1 3312   1.631   1.665   0.583 -0.9156  0.3576 -0.0446
  956SOL    HW2 3313   1.657   1.623   0.440  1.7417 -0.2642  0.5671
  957SOL     OW 3314   3.452   0.690   5.651 -0.1208 -0.3615 -0.5395
  957SOL    HW1 3315   3.510   0.686   5.575 -0.6226  0.7372 -1.0100
  957SOL    HW2 3316   3.509   0.677   5.726  0.5391 -0.4886 -1.0503
  958SOL     OW 3317   5.039   4.624   0.651 -0.1596  0.0206  0.2383
  958SOL    HW1 3318   5.015   4.714   0.675 -0.0177  0.2240 -0.3810
  958SOL    HW2 3319   5.047   4.579   0.735  1.8944  1.1136  0.6959
  959SOL     OW 3320   1.485   3.763   1.768 -0.3425 -0.4477 -0.0080
  959SOL    HW1 3321   1.485   3.837   1.829  1.5825 -0.1266 -0.3271
  959SOL    HW2 3322   1.405   3.775   1.717 -0.4786  0.9751  0.4697
  960SOL     OW 3323   5.062   1.041   2.277  0.1474 -0.4328 -0.2082
  960SOL    HW1 3324   5.113   0.962   2.292  0.5577 -0.5381 -1.9570
  960SOL    HW2 3325   5.088   1.070   2.190  0.8986  2.2974  0.8193
  961SOL     OW 3326   3.985   4.160   2.662  0.1552 -0.2967  0.1243
  961SOL    HW1 3327   3.967   4.250   2.690 -0.2835  0.1726 -1.5398
  961SOL    HW2 3328   4.079   4.150   2.676  0.4594  0.8927 -0.8778
  962SOL     OW 3329   5.497   3.109   0.680 -0.6687 -0.0460 -0.2702
  962SOL    HW1 3330   5.470   3.022   0.711  0.3390  0.2449  1.5153
  962SOL    HW2 3331   5.565   3.091   0.615  1.7117 -0.6263  2.2106
  963SOL     OW 3332   2.950   2.541   2.465 -0.3267  0.0614  0.3506
  963SOL    HW1 3333   2.876   2.583   2.422 -0.6462 -2.1495 -1.3962
  963SOL    HW2 3334   2.914   2.507   2.547 -1.1286 -0.4531 -0.1957
  964SOL     OW 3335   4.612   4.554   4.633 -0.3267  0.0190  0.0192
  964SOL    HW1 3336   4.656   4.501   4.700 -0.7311 -0.0276  0.2504
  964SOL    HW2 3337   4.608   4.496   4.556  0.0643  0.0443 -0.0228
  965SOL     OW 3338   2.292   2.036   1.852 -1.2788  0.0448  0.3205
  965SOL    HW1 3339   2.323   2.105   1.910 -0.6600  0.3483 -0.3465
  965SOL    HW2 3340   2.198   2.049   1.846 -1.1833  0.7764  0.2862
  966SOL     OW 3341   4.198   3.021   1.683 -0.2525  0.2932  0.3813
  966SOL    HW1 3342   4.192   3.115   1.666  0.3651  0.3520  0.4562
  966SOL    HW2 3343   4.278   2.994   1.638 -0.2667 -0.1410  0.6135
  967SOL     OW 3344   5.076   3.565   1.679  0.1762  0.1170  0.2314
  967SOL    HW1 3345   5.067   3.550   1.585  0.7273  0.3153  0.1477
  967SOL    HW2 3346   5.170   3.560   1.696  0.1476  0.8663  0.6449
  968SOL     OW 3347   4.271   0.418   0.721  0.0631  0.0328  0.1131
  968SOL    HW1 3348   4.344   0.395   0.779 -1.6889  1.5190  3.1290
  968SOL    HW2 3349   4.227   0.490   0.766 -2.9426 -0.4261 -1.8589
  969SOL     OW 3350   5.710   2.475   2.315  0.8217  0.7112  0.1180
  969SOL    HW1 3351   5.767   2.454   2.389  0.7917  2.3818  0.6340
  969SOL    HW2 3352   5.701   2.570   2.317  0.2046  0.7235 -1.5870
  970SOL     OW 3353   4.850   4.636   2.965 -0.0212  0.1138  0.0460
  970SOL    HW1 3354   4.764   4.610   2.932  0.5149 -1.3615 -0.2540
  970SOL    HW2 3355   4.842   4.631   3.060 -0.1077 -0.6099  0.0059
  971SOL     OW 3356   5.688   5.328   3.132  0.1499 -1.0852 -0.1924
  971SOL    HW1 3357   5.648   5.410   3.102 -0.7563 -1.6096 -0.4540
  971SOL    HW2 3358   5.782   5.344   3.126  0.0900  0.9178  2.4142
  972SOL     OW 3359   3.140   2.760   1.126 -0.0902  0.6069 -0.8320
  972SOL    HW1 3360   3.106   2.678   1.090  0.7104 -0.2217  0.2213
  972SOL    HW2 3361   3.107   2.763   1.216  2.2292 -0.0735  0.1252
  973SOL     OW 3362   2.748   2.478   5.148  0.1876 -0.1879  0.6100
  973SOL    HW1 3363   2.689   2.403   5.153 -0.0231 -0.0921 -0.3206
  973SOL    HW2 3364   2.695   2.553   5.175  0.2003 -0.2615  0.8442
  974SOL     OW 3365   4.047   4.930   2.255 -0.8936  0.6504 -0.1145
  974SOL    HW1 3366   4.028   5.023   2.270 -1.1110  0.3791  1.4985
  974SOL    HW2 3367   4.131   4.930   2.209 -0.2323  1.6335  1.0237
  975SOL     OW 3368   0.178   5.046   4.843 -0.2823 -0.1553  0.0066
  975SOL    HW1 3369   0.086   5.053   4.869 -0.5941  0.6268 -1.2330
  975SOL    HW2 3370   0.175   5.032   4.748  0.8755 -0.4843  0.0034
  976SOL     OW 3371   3.771   4.775   0.134 -0.0693 -0.6327 -0.1076
  976SOL    HW1 3372   3.676   4.767   0.143 -0.0898  0.2806  0.7515
  976SOL    HW2 3373   3.788   4.761   0.041 -1.1846  0.3360 -0.4867
  977SOL     OW 3374   1.209   2.617   0.166  0.0807 -0.7124  0.4760
  977SOL    HW1 3375   1.270   2.690   0.178 -0.4602 -0.0985 -0.3356
  977SOL    HW2 3376   1.136   2.637   0.224 -0.7959  0.2650 -0.8825
  978SOL     OW 3377   2.664   3.416   1.542  0.3901  0.1934 -0.2568
  978SOL    HW1 3378   2.668   3.495   1.489  0.7262  0.0284 -0.4805
  978SOL    HW2 3379   2.572   3.391   1.541  0.2352  0.7342  0.0457
  979SOL     OW 3380   1.869   5.487   3.822  0.1846  0.2579 -0.1077
  979SOL    HW1 3381   1.964   5.478   3.830  0.1005  0.7083  1.7144
  979SOL    HW2 3382   1.837   5.397   3.830  0.4201  0.1492 -0.3307
  980SOL     OW 3383   1.923   0.477   2.897 -0.2486  0.2895 -0.1707
  980SOL    HW1 3384   1.954   0.409   2.956 -0.9761  0.6413  0.6279
  980SOL    HW2 3385   1.995   0.488   2.834 -0.3887 -1.6574 -0.7326
  981SOL     OW 3386   0.111   0.271   5.905 -0.6030 -0.0357 -0.4637
  981SOL    HW1 3387   0.146   0.360   5.908  1.8282 -0.9082 -0.2689
  981SOL    HW2 3388   0.119   0.245   5.813  3.3765 -1.6077  0.1092
  982SOL     OW 3389   0.248   2.291   0.453 -0.2260  0.3176 -0.4083
  982SOL    HW1 3390   0.328   2.255   0.416  0.3172  2.0766 -1.0702
  982SOL    HW2 3391   0.236   2.374   0.407 -1.7714  0.6654  0.5417
  983SOL     OW 3392   4.817   0.253   4.266 -0.3045  0.3983  0.0774
  983SOL    HW1 3393   4.866   0.274   4.187 -0.1367 -0.5936 -0.0938
  983SOL    HW2 3394   4.855   0.170   4.296  0.6043  1.4340  1.9858
  984SOL     OW 3395   5.827   1.531   2.672 -0.1378 -0.0779 -0.1814
  984SOL    HW1 3396   5.863   1.572   2.593  0.3324 -1.1290 -0.5374
  984SOL    HW2 3397   5.736   1.559   2.674 -0.0154  0.3905 -0.8101
  985SOL     OW 3398   3.097   4.228   1.176 -0.2705 -0.3110 -0.1117
  985SOL    HW1 3399   3.086   4.220   1.081  0.4310 -0.5747 -0.1753
  985SOL    HW2 3400   3.189   4.253   1.187 -0.1890 -0.8714  0.5246
  986SOL     OW 3401   5.722   3.636   2.805 -0.9661 -0.4963 -0.0137
  986SOL    HW1 3402   5.779   3.594   2.869  1.6445  2.5252 -0.1015
  986SOL    HW2 3403   5.661   3.687   2.857 -0.9457 -0.5794  0.0907
  987SOL     OW 3404   5.646   5.181   1.334  0.1592 -0.2330  0.2116
  987SOL    HW1 3405   5.599   5.211   1.411  1.7777 -0.9573  1.5345
  987SOL    HW2 3406   5.738   5.191   1.356  0.6666 -0.2953 -1.7084
  988SOL     OW 3407   5.233   5.310   1.478 -0.1916  0.0018  0.2845
  988SOL    HW1 3408   5.181   5.369   1.424  0.2897  0.3370  0.1866
  988SOL    HW2 3409   5.292   5.267   1.417  1.5127  1.5918  0.7226
  989SOL     OW 3410   1.649   5.438   1.920 -0.0388 -0.0155  0.0218
  989SOL    HW1 3411   1.737   5.469   1.942 -0.3791  1.3848 -0.4775
  989SOL    HW2 3412   1.646   5.439   1.824 -1.3235  2.2658  0.0176
  990SOL     OW 3413   6.097   1.418   3.777 -0.4796 -0.3171  0.0648
  990SOL    HW1 3414   6.122   1.426   3.684 -1.3573 -1.7305 -0.3197
  990SOL    HW2 3415   6.179   1.431   3.824 -0.1295  1.1453 -0.8453
  991SOL     OW 3416   0.715   1.899   5.911 -0.1826  0.0336  0.5831
  991SOL    HW1 3417   0.629   1.880   5.875 -1.6500  2.6625  2.3564
  991SOL    HW2 3418   0.772   1.908   5.835 -1.8140 -0.2664 -0.7189
  992SOL     OW 3419   5.705   6.040   5.071  0.1207 -0.0898 -0.9429
  992SOL    HW1 3420   5.721   6.010   4.982  1.7640 -0.9036 -0.4162
  992SOL    HW2 3421   5.790   6.072   5.101 -0.3507 -0.0438  0.4079
  993SOL     OW 3422   4.079   1.053   0.258  0.1405  0.0602  0.2875
  993SOL    HW1 3423   4.142   1.124   0.245  0.8486 -0.6413 -0.2368
  993SOL    HW2 3424   4.027   1.080   0.334  2.7448 -0.4810  2.4152
  994SOL     OW 3425   2.386   1.179   1.752  0.4727 -0.1433  0.4794
  994SOL    HW1 3426   2.299   1.208   1.778  1.0232 -0.5782  3.0751
  994SOL    HW2 3427   2.440   1.258   1.756  0.6219 -0.2671  1.0507
  995SOL     OW 3428   1.675   4.954   5.995 -0.0947  0.5759  0.1134
  995SOL    HW1 3429   1.752   4.906   6.025 -0.9475 -1.1293 -0.3300
  995SOL    HW2 3430   1.605   4.928   6.055 -1.3703 -1.4115 -2.0984
  996SOL     OW 3431   5.383   5.814   3.665  0.1013  0.2145  0.4376
  996SOL    HW1 3432   5.325   5.860   3.727 -0.3380  1.5425 -0.9006
  996SOL    HW2 3433   5.446   5.882   3.637 -0.2994 -0.0872 -1.2769
  997SOL     OW 3434   2.052   0.114   3.674 -0.1967  0.1551 -0.4002
  997SOL    HW1 3435   2.134   0.097   3.722 -0.2038 -0.3369 -0.5515
  997SOL    HW2 3436   2.080   0.155   3.592 -0.1430  0.5014 -0.2081
  998SOL     OW 3437   4.045   0.864   3.690  0.0520 -0.4535  0.0585
  998SOL    HW1 3438   4.121   0.911   3.656 -0.5814 -0.5412 -1.5958
  998SOL    HW2 3439   4.082   0.794   3.743  1.1905 -1.0784 -1.4695
  999SOL     OW 3440   5.691   3.274   6.069  0.4941  0.4677  0.5471
  999SOL    HW1 3441   5.661   3.340   6.131 -2.2877  1.4681 -1.6188
  999SOL    HW2 3442   5.637   3.198   6.087 -0.7779  0.9677 -0.9019
 1000SOL     OW 3443   0.217   2.572   5.956  0.3450 -0.4794  0.5585
 1000SOL    HW1 3444   0.210   2.572   5.860 -0.0672 -2.4266  0.5447
 1000SOL    HW2 3445   0.173   2.652   5.983 -0.6367 -0.5096 -0.8348
 1001SOL     OW 3446   2.665   6.015   5.760  0.0826 -0.4801 -0.0910
 1001SOL    HW1 3447   2.724   6.063   5.818  0.1490 -0.1056 -0.4630
 1001SOL    HW2 3448   2.721   5.985   5.688  0.2261 -1.8827  0.5601
 1002SOL     OW 3449   5.839   4.621   0.334 -0.0278  0.2319  0.1339
 1002SOL    HW1 3450   5.847   4.585   0.245 -0.6936  0.8102 -0.1702
 1002SOL    HW2 3451   5.912   4.583   0.382  0.1886 -0.2949 -0.5966
 1003SOL     OW 3452   0.170   5.032   4.140 -0.0514 -0.2834  0.2245
 1003SOL    HW1 3453   0.101   5.060   4.081 -0.0176 -1.3272 -0.3409
 1003SOL    HW2 3454   0.237   5.100   4.134 -0.9314  0.6341  0.6290
 1004SOL     OW 3455   0.173   1.185   2.869 -0.1124  0.1969 -0.0497
 1004SOL    HW1 3456   0.210   1.266   2.906 -0.3665  0.6002 -0.6698
 1004SOL    HW2 3457   0.246   1.123   2.872 -0.5989 -0.3489  2.7979
 1005SOL     OW 3458   6.077   4.643   1.328  0.4572 -0.5314  0.2829
 1005SOL    HW1 3459   6.134   4.572   1.360  2.3263  0.3747 -0.9008
 1005SOL    HW2 3460   6.059   4.620   1.237  0.6534  0.2507  0.0442
 1006SOL     OW 3461   2.970   2.947   2.092  0.0869  0.6229 -0.5899
 1006SOL    HW1 3462   3.031   2.941   2.018 -0.9495 -0.2668 -1.3992
 1006SOL    HW2 3463   2.900   2.886   2.070  0.4405 -0.7788  1.7894
 1007SOL     OW 3464   1.799   0.961   3.758  0.7879 -0.2307  0.5327
 1007SOL    HW1 3465   1.884   1.003   3.742  0.6359 -0.7171 -1.8514
 1007SOL    HW2 3466   1.752   1.024   3.813  1.3933  1.7138 -1.0449
 1008SOL     OW 3467   2.850   5.526   1.526  0.0576 -0.1462  0.0910
 1008SOL    HW1 3468   2.933   5.480   1.538 -0.1077 -0.6324 -0.5679
 1008SOL    HW2 3469   2.813   5.532   1.614 -0.3052 -2.0162  0.1121
 1009SOL     OW 3470   5.112   5.458   0.653  0.0282  0.0859 -0.2151
 1009SOL    HW1 3471   5.124   5.376   0.607  3.2862 -0.2242  0.9142
 1009SOL    HW2 3472   5.074   5.433   0.738  0.4857 -0.1925 -0.0911
 1010SOL     OW 3473   3.812   2.907   0.380  0.1140  0.6601 -0.0238
 1010SOL    HW1 3474   3.875   2.885   0.448 -1.0902 -4.6283 -0.2061
 1010SOL    HW2 3475   3.830   2.845   0.309 -4.0355  0.0619 -0.8054
 1011SOL     OW 3476   4.035   0.789   2.661  0.2082  0.5565 -0.1766
 1011SOL    HW1 3477   4.086   0.712   2.686 -3.1131 -1.7636  0.0985
 1011SOL    HW2 3478   4.024   0.780   2.566  0.0247  0.8350 -0.1825
 1012SOL     OW 3479   5.633   3.891   2.863  0.1029  0.0643  0.2555
 1012SOL    HW1 3480   5.587   3.932   2.789 -0.6546 -1.1590  0.0312
 1012SOL    HW2 3481   5.708   3.949   2.879 -0.5493  1.1593 -0.4928
 1013SOL     OW 3482   6.089   1.729   3.186  0.0285  0.0470  0.5137
 1013SOL    HW1 3483   6.073   1.731   3.281 -0.2665 -0.2680  0.4731
 1013SOL    HW2 3484   6.001   1.726   3.148  0.1536 -0.9588  0.2643
 1014SOL     OW 3485   2.101   1.689   2.919 -0.5578 -0.0997  0.1093
 1014SOL    HW1 3486   2.104   1.665   2.826 -2.4253  3.1607 -0.9788
 1014SOL    HW2 3487   2.086   1.607   2.965  0.6318 -1.8527 -2.4215
 1015SOL     OW 3488   0.595   5.236   3.270  0.6491  0.1992  0.0440
 1015SOL    HW1 3489   0.585   5.151   3.312  0.8728  0.2774  0.2609
 1015SOL    HW2 3490   0.510   5.254   3.230  0.7536 -0.3617 -0.4452
 1016SOL     OW 3491   3.003   2.323   3.736  0.2862 -0.0441  0.2573
 1016SOL    HW1 3492   3.061   2.250   3.713 -1.1196 -0.8019 -1.0348
 1016SOL    HW2 3493   3.059   2.400   3.735  1.4246 -0.8566 -0.1579
 1017SOL     OW 3494   4.891   4.271   0.599 -0.2143  0.2359  0.4471
 1017SOL    HW1 3495   4.848   4.317   0.670 -1.4359  0.0290 -0.1335
 1017SOL    HW2 3496   4.872   4.178   0.615 -0.4005  0.1790 -0.0714
 1018SOL     OW 3497   1.841   3.120   4.087  0.3732  0.5443  0.1575
 1018SOL    HW1 3498   1.883   3.096   4.004  0.7565  0.6162  0.3292
 1018SOL    HW2 3499   1.753   3.148   4.062  0.1115 -0.5007 -0.1028
 1019SOL     OW 3500   5.573   3.453   5.821 -0.2149 -0.5472 -0.2660
 1019SOL    HW1 3501   5.648   3.394   5.830 -0.0600 -0.6502 -1.8835
 1019SOL    HW2 3502   5.598   3.531   5.870 -0.3832 -1.7517  1.8283
 1020SOL     OW 3503   5.799   2.313   5.839 -0.2910 -0.3788 -0.2687
 1020SOL    HW1 3504   5.859   2.255   5.885  0.8624  0.9370 -0.0545
 1020SOL    HW2 3505   5.836   2.401   5.851 -2.0520  0.4414 -0.4489
 1021SOL     OW 3506   4.461   3.348   2.421 -0.5705  0.0606 -0.6102
 1021SOL    HW1 3507   4.528   3.391   2.475 -0.1394  1.0367 -1.8883
 1021SOL    HW2 3508   4.500   3.265   2.396 -1.4697 -1.2906  2.0129
 1022SOL     OW 3509   4.367   4.277   0.213  0.0050  0.5301 -0.5599
 1022SOL    HW1 3510   4.367   4.372   0.208 -0.4996  0.5048 -1.3409
 1022SOL    HW2 3511   4.458   4.252   0.201  0.1298  0.9095 -0.4188
 1023SOL     OW 3512   5.439   3.864   0.820 -0.1842  0.0748  0.1428
 1023SOL    HW1 3513   5.346   3.852   0.842 -0.4108 -1.3247 -1.3761
 1023SOL    HW2 3514   5.486   3.815   0.888 -0.5953  0.0761  0.4338
 1024SOL     OW 3515   2.299   1.301   4.612  0.1013  0.1624  0.2516
 1024SOL    HW1 3516   2.236   1.278   4.544 -1.3058 -0.5267  1.7381
 1024SOL    HW2 3517   2.249   1.350   4.676  1.1431 -0.1276  1.3272
 1025SOL     OW 3518   2.009   0.081   3.067 -0.3143  0.3798  0.3103
 1025SOL    HW1 3519   2.015   0.175   3.081 -0.2172  0.2100  1.5025
 1025SOL    HW2 3520   2.079   0.044   3.120 -1.7270 -0.5131  1.6274
 1026SOL     OW 3521   2.738   4.117   3.407 -0.1443  0.0741 -0.7524
 1026SOL    HW1 3522   2.707   4.028   3.423 -0.6930  0.2574 -0.7746
 1026SOL    HW2 3523   2.829   4.117   3.438  0.3552 -0.9088 -2.1191
 1027SOL     OW 3524   5.556   4.105   0.871  0.0953 -0.1031  0.3963
 1027SOL    HW1 3525   5.491   4.154   0.922  2.0831  1.8596  1.2257
 1027SOL    HW2 3526   5.510   4.026   0.843 -2.9797  1.6811 -0.0560
 1028SOL     OW 3527   5.638   5.250   0.319 -0.1602  0.6250  0.0984
 1028SOL    HW1 3528   5.701   5.211   0.258 -1.3017 -1.4365  0.1636
 1028SOL    HW2 3529   5.636   5.190   0.394 -1.2420  1.3411  0.6718
 1029SOL     OW 3530   2.381   5.962   4.804 -0.1809 -0.1662  0.0891
 1029SOL    HW1 3531   2.449   5.984   4.867 -0.5927  0.7034  0.2497
 1029SOL    HW2 3532   2.427   5.950   4.721  0.2048  0.0289  0.2741
 1030SOL     OW 3533   3.624   1.890   5.543  0.4733  0.7138 -0.3822
 1030SOL    HW1 3534   3.539   1.934   5.543 -0.3229 -0.6693 -2.0053
 1030SOL    HW2 3535   3.618   1.826   5.614  0.4171  1.0480 -0.0831
 1031SOL     OW 3536   1.329   2.184   4.001 -0.2088  0.5217  0.2401
 1031SOL    HW1 3537   1.272   2.239   3.948 -0.6107  0.9457  1.0896
 1031SOL    HW2 3538   1.270   2.144   4.065 -0.3076 -2.4777 -1.5287
 1032SOL     OW 3539   5.394   3.425   4.014 -0.1152 -0.0767 -0.1997
 1032SOL    HW1 3540   5.408   3.483   4.089 -0.4641  1.2927 -1.1586
 1032SOL    HW2 3541   5.461   3.451   3.952 -0.3682 -0.6211 -0.7065
 1033SOL     OW 3542   6.045   4.500   1.099 -0.6168  0.0209  0.0455
 1033SOL    HW1 3543   5.999   4.478   1.018 -1.3154  1.2669  0.0672
 1033SOL    HW2 3544   6.086   4.419   1.127 -2.2839 -0.9995 -0.3306
 1034SOL     OW 3545   0.041   1.417   3.175 -0.9230  0.1613  0.0776
 1034SOL    HW1 3546   0.076   1.503   3.201 -0.7475 -0.0076  0.4039
 1034SOL    HW2 3547   0.100   1.354   3.215 -1.8470 -0.1413  0.9870
 1035SOL     OW 3548   5.930   0.562   3.861  0.1929  0.2077  0.0742
 1035SOL    HW1 3549   5.918   0.507   3.784  0.2868 -0.9636  0.8842
 1035SOL    HW2 3550   6.001   0.521   3.910  0.7019  1.4071  0.3858
 1036SOL     OW 3551   5.921   5.532   0.136  0.8836  0.1665 -0.2817
 1036SOL    HW1 3552   5.963   5.612   0.168  0.7754  0.2479 -0.3394
 1036SOL    HW2 3553   5.976   5.461   0.169  0.0660  0.1774  1.2052
 1037SOL     OW 3554   5.989   1.634   4.949 -0.1921 -0.9719 -0.4882
 1037SOL    HW1 3555   5.897   1.654   4.969 -0.7538 -1.8573 -2.0159
 1037SOL    HW2 3556   6.038   1.700   4.997 -1.5759 -0.9151  0.9687
 1038SOL     OW 3557   2.929   1.526   2.411  0.3796 -0.4284  0.2469
 1038SOL    HW1 3558   2.984   1.452   2.387 -2.2605 -1.8894 -1.8513
 1038SOL    HW2 3559   2.949   1.593   2.346  0.6056 -0.4719  0.2730
 1039SOL     OW 3560   5.139   5.090   5.647 -0.0373  0.0015  0.0391
 1039SOL    HW1 3561   5.167   5.181   5.634  0.4911 -0.1288  0.2621
 1039SOL    HW2 3562   5.090   5.069   5.568  1.7000 -0.2278 -1.0119
 1040SOL     OW 3563   0.495   5.108   2.839 -0.6762 -0.5121  0.2466
 1040SOL    HW1 3564   0.484   5.150   2.753 -0.7418  1.0480  0.9917
 1040SOL    HW2 3565   0.485   5.179   2.902 -1.6365 -1.8221  1.6157
 1041SOL     OW 3566   4.481   1.026   4.212  0.0616  0.0306 -0.2603
 1041SOL    HW1 3567   4.560   0.971   4.202 -0.4633 -0.9568  0.7874
 1041SOL    HW2 3568   4.430   1.009   4.133 -0.1906 -1.1984  0.1427
 1042SOL     OW 3569   2.833   0.432   0.381  0.1778 -0.5386 -0.1673
 1042SOL    HW1 3570   2.754   0.381   0.395  1.8693 -3.0878  0.9593
 1042SOL    HW2 3571   2.849   0.476   0.465  0.4613 -0.8560 -0.0497
 1043SOL     OW 3572   1.612   0.383   4.895  0.2835  0.1319 -0.1535
 1043SOL    HW1 3573   1.651   0.295   4.898 -0.6619 -0.3305 -0.7551
 1043SOL    HW2 3574   1.645   0.422   4.815  1.3658  0.6673  0.5308
 1044SOL     OW 3575   4.892   2.745   1.943 -0.4182 -0.0500 -0.1626
 1044SOL    HW1 3576   4.941   2.672   1.980  0.8784  0.3845 -0.9364
 1044SOL    HW2 3577   4.904   2.816   2.006 -1.7601 -0.5048  0.6379
 1045SOL     OW 3578   3.356   2.400   2.141  0.1442 -0.4225 -0.6879
 1045SOL    HW1 3579   3.287   2.418   2.205  0.1618  0.7059 -0.9484
 1045SOL    HW2 3580   3.318   2.335   2.082 -1.6320  1.7734 -2.1506
 1046SOL     OW 3581   4.161   2.613   2.538 -0.6527 -0.3115 -0.2578
 1046SOL    HW1 3582   4.078   2.586   2.499 -0.4101 -0.2230 -0.8434
 1046SOL    HW2 3583   4.157   2.582   2.628 -0.2606 -2.6128 -0.9746
 1047SOL     OW 3584   5.583   2.556   1.871 -0.3912  0.0886  0.0134
 1047SOL    HW1 3585   5.590   2.651   1.881 -0.3038  0.2959 -1.6507
 1047SOL    HW2 3586   5.498   2.533   1.910 -1.9844  1.3803 -2.4218
 1048SOL     OW 3587   1.385   1.292   2.852  0.1854  0.3165  0.4246
 1048SOL    HW1 3588   1.345   1.366   2.807  0.5333 -0.9966 -2.2786
 1048SOL    HW2 3589   1.427   1.330   2.929  0.0387  2.8725 -0.6546
 1049SOL     OW 3590   4.584   3.584   3.075  0.0541  0.2718 -0.6450
 1049SOL    HW1 3591   4.594   3.606   3.168  0.5265  0.1248 -0.6611
 1049SOL    HW2 3592   4.515   3.643   3.044  0.1154  0.5390 -0.2807
 1050SOL     OW 3593   2.996   1.362   0.276  0.8174  0.2544  0.1754
 1050SOL    HW1 3594   2.988   1.317   0.191  0.2773  0.1531  0.2746
 1050SOL    HW2 3595   2.973   1.453   0.257  1.4689  0.4030  0.0639
 1051SOL     OW 3596   4.591   0.044   2.253  0.4275 -0.0583 -0.0851
 1051SOL    HW1 3597   4.550  -0.021   2.310  1.4101  0.0727  0.7928
 1051SOL    HW2 3598   4.615  -0.005   2.174  2.5890 -1.1818  1.1875
 1052SOL     OW 3599   4.639   0.440   1.603 -0.5856 -0.1797 -0.4797
 1052SOL    HW1 3600   4.629   0.411   1.694  0.5189  1.9278  0.3827
 1052SOL    HW2 3601   4.698   0.376   1.564 -0.9987 -1.0595  0.2938
 1053SOL     OW 3602   3.898   0.524   0.556  0.4563  0.3259  0.2385
 1053SOL    HW1 3603   3.855   0.449   0.598  0.5400  0.5636  0.7663
 1053SOL    HW2 3604   3.964   0.485   0.499  2.8149 -0.0221  2.9833
 1054SOL     OW 3605   5.152   5.680   2.524  0.0301 -0.8394  0.3648
 1054SOL    HW1 3606   5.173   5.652   2.613  2.4835 -3.1150 -0.8056
 1054SOL    HW2 3607   5.196   5.765   2.515  0.0993 -0.7823  1.1695
 1055SOL     OW 3608   2.971   4.029   3.031 -0.3310 -0.0994 -0.0284
 1055SOL    HW1 3609   3.037   4.084   2.988 -2.7602  2.0932 -1.2270
 1055SOL    HW2 3610   2.966   4.062   3.120 -0.2796  0.1717 -0.1253
 1056SOL     OW 3611   1.936   4.095   2.201  0.1365 -0.4046 -0.2552
 1056SOL    HW1 3612   1.896   4.027   2.256  1.7579 -0.5893  0.7832
 1056SOL    HW2 3613   2.025   4.063   2.186  0.3788  0.6737 -1.2398
 1057SOL     OW 3614   1.914   0.871   3.180 -0.2520  0.2186  0.3713
 1057SOL    HW1 3615   1.850   0.934   3.149 -0.7504  0.1417  1.2119
 1057SOL    HW2 3616   1.999   0.915   3.169 -0.4090  0.2215 -0.9815
 1058SOL     OW 3617   3.840   3.234   2.768 -0.1298 -0.1585  0.0611
 1058SOL    HW1 3618   3.806   3.317   2.736 -1.7304 -1.4426 -1.8653
 1058SOL    HW2 3619   3.765   3.193   2.812  0.5631 -0.6798  0.7762
 1059SOL     OW 3620   0.176   2.253   1.203 -0.2552  0.1940  0.1660
 1059SOL    HW1 3621   0.204   2.248   1.294 -1.6409 -1.2343  0.5801
 1059SOL    HW2 3622   0.248   2.295   1.156  0.4918  0.9111  1.9054
 1060SOL     OW 3623   3.639   5.401   4.495  0.3128 -0.0234  0.1514
 1060SOL    HW1 3624   3.732   5.425   4.499  0.7047 -1.2118 -0.8813
 1060SOL    HW2 3625   3.626   5.342   4.569 -0.2011  1.8078  1.5995
 1061SOL     OW 3626   3.993   1.921   1.260  0.0673 -0.4224 -0.9196
 1061SOL    HW1 3627   3.939   1.960   1.191  1.2086 -0.9762 -2.1706
 1061SOL    HW2 3628   4.079   1.961   1.249 -0.1591  0.8975  1.4249
 1062SOL     OW 3629   3.607   1.152   6.098  0.6580 -0.1051 -0.3317
 1062SOL    HW1 3630   3.584   1.233   6.144  3.1637 -0.2727  1.4681
 1062SOL    HW2 3631   3.624   1.179   6.008  1.5323  1.4543  0.2621
 1063SOL     OW 3632   3.193   0.940   2.625  0.3545  0.7895 -0.3981
 1063SOL    HW1 3633   3.281   0.976   2.636  0.6731  0.1572 -0.8454
 1063SOL    HW2 3634   3.193   0.902   2.537  0.2007 -0.7729  0.2418
 1064SOL     OW 3635   2.946   0.777   5.687  0.0850  0.2654 -0.0685
 1064SOL    HW1 3636   2.910   0.730   5.762 -0.0459 -0.4559 -0.5733
 1064SOL    HW2 3637   3.041   0.765   5.694  0.0188 -0.6458 -0.5479
 1065SOL     OW 3638   2.134   2.791   4.008 -0.3255 -0.0114 -0.7249
 1065SOL    HW1 3639   2.109   2.849   4.079  1.1959  0.6416 -0.6749
 1065SOL    HW2 3640   2.058   2.735   3.994 -0.5073 -0.4591  1.7133
 1066SOL     OW 3641   1.776   0.141   2.894  0.0011 -0.0693  0.6315
 1066SOL    HW1 3642   1.831   0.152   2.816 -1.4653 -0.7059 -0.5493
 1066SOL    HW2 3643   1.837   0.143   2.967  1.2654  2.4137 -0.3741
 1067SOL     OW 3644   0.550   0.492   1.420 -0.1426 -0.2904 -0.1297
 1067SOL    HW1 3645   0.636   0.514   1.385  0.0251 -0.7252  0.0119
 1067SOL    HW2 3646   0.514   0.428   1.359  1.0763 -2.8152  1.6242
 1068SOL     OW 3647   0.627   0.608   4.526 -0.0284  0.5809  0.5492
 1068SOL    HW1 3648   0.721   0.601   4.514 -0.3136  0.7952 -2.6422
 1068SOL    HW2 3649   0.596   0.517   4.524  0.0722  0.4983  1.7727
 1069SOL     OW 3650   3.341   1.550   5.917 -0.2619 -0.0500  0.0771
 1069SOL    HW1 3651   3.274   1.551   5.985  0.3305  1.5101  0.7010
 1069SOL    HW2 3652   3.421   1.577   5.962  1.1822 -3.1941 -0.3340
 1070SOL     OW 3653   0.778   3.245   5.447  0.2843  0.1417 -0.0913
 1070SOL    HW1 3654   0.730   3.303   5.387 -1.7970  0.2865  1.6082
 1070SOL    HW2 3655   0.780   3.161   5.401 -0.5122  0.4555 -0.7418
 1071SOL     OW 3656   1.866   0.229   3.380  0.2806  0.1753 -0.8883
 1071SOL    HW1 3657   1.802   0.162   3.406  0.6269  0.0933 -0.2108
 1071SOL    HW2 3658   1.849   0.244   3.287 -2.1355  1.7199 -0.2574
 1072SOL     OW 3659   3.998   5.846   3.526  0.1714  0.4879 -0.4584
 1072SOL    HW1 3660   3.932   5.915   3.534 -0.1533  0.0256  1.1087
 1072SOL    HW2 3661   4.080   5.893   3.512 -0.2132  1.1402 -0.5559
 1073SOL     OW 3662   1.949   3.879   3.191 -0.2922  0.8237 -0.0691
 1073SOL    HW1 3663   1.980   3.846   3.275 -1.3487  0.7048  0.2932
 1073SOL    HW2 3664   1.938   3.801   3.137  2.6260  1.0591 -1.1588
 1074SOL     OW 3665   2.839   4.556   0.382  0.4626  0.2414  0.0099
 1074SOL    HW1 3666   2.841   4.460   0.387  0.3309  0.3011  1.9409
 1074SOL    HW2 3667   2.925   4.580   0.347 -0.1656 -0.6134 -2.2943
 1075SOL     OW 3668   4.993   0.651   3.885 -0.8758 -0.0548 -0.0942
 1075SOL    HW1 3669   5.046   0.630   3.809 -0.7138  0.2904 -0.0783
 1075SOL    HW2 3670   5.054   0.645   3.959 -1.2269 -1.2632  0.1228
 1076SOL     OW 3671   3.669   5.322   5.749 -0.2144  0.3530  0.4133
 1076SOL    HW1 3672   3.662   5.333   5.654 -0.4138  1.2680  0.5186
 1076SOL    HW2 3673   3.761   5.337   5.768 -0.4479  1.7845  0.5295
 1077SOL     OW 3674   1.663   1.065   3.115 -0.0924  0.1178  0.5374
 1077SOL    HW1 3675   1.632   1.031   3.031  1.6239 -0.9648  0.2863
 1077SOL    HW2 3676   1.589   1.056   3.174 -1.8592  2.2803 -1.1445
 1078SOL     OW 3677   5.149   4.446   4.554 -0.4362 -0.5626 -0.2137
 1078SOL    HW1 3678   5.190   4.408   4.632  0.1881 -0.7653 -0.6338
 1078SOL    HW2 3679   5.127   4.535   4.579  0.3968 -0.4058 -0.0293
 1079SOL     OW 3680   3.591   5.507   0.741 -0.0922 -0.5401  0.6000
 1079SOL    HW1 3681   3.601   5.561   0.819  0.8081  2.2246 -1.3013
 1079SOL    HW2 3682   3.642   5.428   0.760  0.9031  0.4936  2.4578
 1080SOL     OW 3683   4.113   3.558   3.667 -0.0238 -0.3961  0.5656
 1080SOL    HW1 3684   4.126   3.480   3.722 -0.1163 -0.3535  0.6477
 1080SOL    HW2 3685   4.186   3.616   3.691  1.7282 -1.5832 -1.4952
 1081SOL     OW 3686   2.702   1.426   1.523  0.4199 -0.0193 -0.0498
 1081SOL    HW1 3687   2.788   1.388   1.506  0.0350 -0.1361 -2.0371
 1081SOL    HW2 3688   2.642   1.374   1.470 -0.8563  0.2132  1.1107
 1082SOL     OW 3689   3.500   4.409   2.421 -0.1923 -0.0134 -0.1151
 1082SOL    HW1 3690   3.439   4.425   2.492 -0.8353  0.9280 -0.8603
 1082SOL    HW2 3691   3.453   4.351   2.361  0.2118 -0.5093  0.0348
 1083SOL     OW 3692   4.149   5.608   4.525 -0.0083 -0.0575  0.0127
 1083SOL    HW1 3693   4.227   5.663   4.531  0.5937 -0.7012 -1.4168
 1083SOL    HW2 3694   4.182   5.519   4.536 -0.9022 -0.2037  1.8113
 1084SOL     OW 3695   1.045   1.293   4.308  0.1876 -0.0156  0.5604
 1084SOL    HW1 3696   0.954   1.308   4.282  0.5225 -2.1747 -2.3294
 1084SOL    HW2 3697   1.087   1.379   4.298 -1.1062  0.5984  0.1149
 1085SOL     OW 3698   1.747   4.374   1.094  0.2616  0.5506 -0.3751
 1085SOL    HW1 3699   1.836   4.402   1.073  0.2629  1.6867  1.0110
 1085SOL    HW2 3700   1.749   4.352   1.187 -0.8313  0.3089 -0.3916
 1086SOL     OW 3701   0.191   1.758   4.241 -0.5560  0.2154  0.1980
 1086SOL    HW1 3702   0.181   1.760   4.336 -1.4000 -0.8165  0.1490
 1086SOL    HW2 3703   0.143   1.834   4.210  0.4962  1.0938  0.6332
 1087SOL     OW 3704   2.797   3.896   2.023 -0.2502  0.0141  0.3172
 1087SOL    HW1 3705   2.891   3.903   2.006 -0.2997  0.3624  0.1685
 1087SOL    HW2 3706   2.781   3.803   2.035  0.1313 -0.0371  0.4379
 1088SOL     OW 3707   3.381   1.921   1.027  0.3444  0.3017  0.4282
 1088SOL    HW1 3708   3.475   1.938   1.017  0.3127  1.5458  1.8615
 1088SOL    HW2 3709   3.339   1.982   0.967  0.4146  1.4334  1.4816
 1089SOL     OW 3710   1.587   0.927   1.590 -0.2999 -0.9055 -0.5853
 1089SOL    HW1 3711   1.522   0.993   1.566 -0.6409 -0.7715  0.6601
 1089SOL    HW2 3712   1.626   0.959   1.672 -1.7646 -3.0786  1.0738
 1090SOL     OW 3713   0.224   3.900   5.386  0.9430 -0.0574  0.2756
 1090SOL    HW1 3714   0.163   3.827   5.396  0.2113  0.0276 -2.5996
 1090SOL    HW2 3715   0.275   3.877   5.308  0.2828  2.7269 -1.0757
 1091SOL     OW 3716   2.218   4.754   5.531  0.6622 -0.0142 -0.3728
 1091SOL    HW1 3717   2.155   4.694   5.492 -0.2293  0.3121  0.5296
 1091SOL    HW2 3718   2.179   4.841   5.521  1.4567  0.3121 -0.7335
 1092SOL     OW 3719   3.252   4.281   1.722  0.5056  0.3956 -0.1202
 1092SOL    HW1 3720   3.346   4.300   1.713  0.6420 -0.8423 -1.8092
 1092SOL    HW2 3721   3.215   4.300   1.636 -0.9280  1.3446  0.6596
 1093SOL     OW 3722   5.922   4.003   4.950 -0.2986  0.3525 -0.1668
 1093SOL    HW1 3723   5.948   4.029   5.038 -0.6016  0.6885 -0.1739
 1093SOL    HW2 3724   5.884   4.082   4.912  2.6101  1.1611 -1.7003
 1094SOL     OW 3725   3.386   5.849   0.983 -0.4026  0.3237  0.0137
 1094SOL    HW1 3726   3.473   5.822   0.953 -0.3455 -1.6789  1.7396
 1094SOL    HW2 3727   3.401   5.924   1.040  0.0002  0.8819 -0.8024
 1095SOL     OW 3728   0.607   0.480   0.234 -0.6744  0.3443  0.6223
 1095SOL    HW1 3729   0.540   0.411   0.234  0.4639 -0.8924 -1.5094
 1095SOL    HW2 3730   0.563   0.556   0.271 -2.9798 -0.6725  0.1793
 1096SOL     OW 3731   6.020   0.998   4.774  0.3529  0.2060 -0.5370
 1096SOL    HW1 3732   5.989   1.083   4.805 -0.4615 -0.3655  0.2574
 1096SOL    HW2 3733   6.115   1.007   4.770  0.2106  1.5450 -1.6597
 1097SOL     OW 3734   4.271   4.992   3.073 -0.1045 -0.5995  0.3341
 1097SOL    HW1 3735   4.337   5.022   3.136 -0.6444  0.4339  0.4199
 1097SOL    HW2 3736   4.224   5.071   3.048  0.2935 -0.9337 -1.6263
 1098SOL     OW 3737   1.135   1.042   4.343  0.3740 -0.0654 -0.4837
 1098SOL    HW1 3738   1.134   1.136   4.325  0.8261 -0.2490 -1.5804
 1098SOL    HW2 3739   1.089   1.004   4.267 -0.0041 -0.7142  0.0624
 1099SOL     OW 3740   2.275   4.780   3.076  0.0703 -0.6851 -0.2415
 1099SOL    HW1 3741   2.228   4.697   3.071  1.2941 -1.4423  0.1976
 1099SOL    HW2 3742   2.362   4.756   3.108  1.0105  0.5610 -1.7252
 1100SOL     OW 3743   4.960   2.085   2.868  0.1506  0.3923  0.3995
 1100SOL    HW1 3744   4.953   2.084   2.963 -1.6291 -0.1264  0.2966
 1100SOL    HW2 3745   5.051   2.061   2.850 -0.4948 -3.8623  1.8759
 1101SOL     OW 3746   2.449   1.826   5.261 -0.4619  0.5498 -0.0649
 1101SOL    HW1 3747   2.519   1.774   5.222 -1.1308  0.1164 -0.7127
 1101SOL    HW2 3748   2.476   1.838   5.352  0.6730  0.7821 -0.4150
 1102SOL     OW 3749   0.669   5.065   4.550 -0.5359  0.2410 -0.0950
 1102SOL    HW1 3750   0.616   5.065   4.471  0.0704  0.8522 -0.5161
 1102SOL    HW2 3751   0.662   4.976   4.585  0.6036 -0.5592 -1.8021
 1103SOL     OW 3752   1.195   4.587   4.932 -0.1130  0.4804 -0.1035
 1103SOL    HW1 3753   1.240   4.505   4.913  0.2842  0.4547  0.8799
 1103SOL    HW2 3754   1.213   4.643   4.856 -0.3254 -0.3024 -0.7463
 1104SOL     OW 3755   1.474   3.710   4.708  0.1627  0.0799 -0.7175
 1104SOL    HW1 3756   1.524   3.630   4.726  0.3675 -0.2645 -2.6057
 1104SOL    HW2 3757   1.540   3.772   4.676 -0.3057  0.2562 -1.3630
 1105SOL     OW 3758   1.064   5.801   2.937  0.0749  0.2175  0.4278
 1105SOL    HW1 3759   0.986   5.824   2.987  0.4627  0.6010  0.8639
 1105SOL    HW2 3760   1.034   5.796   2.847 -0.3649  0.7915  0.5375
 1106SOL     OW 3761   1.832   0.459   3.491  0.2233  0.6584 -0.0379
 1106SOL    HW1 3762   1.856   0.509   3.413  0.6095  0.5974  0.0372
 1106SOL    HW2 3763   1.836   0.368   3.463  1.3094  0.5895  0.2973
 1107SOL     OW 3764   2.450   3.946   1.819  0.2709  0.0772 -0.0248
 1107SOL    HW1 3765   2.411   3.861   1.841 -2.4604  1.5142  1.1182
 1107SOL    HW2 3766   2.458   3.944   1.724 -1.3604 -0.8490 -0.1875
 1108SOL     OW 3767   6.045   4.571   5.551 -0.5399 -0.1406 -0.0521
 1108SOL    HW1 3768   6.021   4.606   5.637 -0.4600 -2.1352  0.8266
 1108SOL    HW2 3769   6.085   4.486   5.570  3.1181  0.9954 -1.7525
 1109SOL     OW 3770   0.986   4.085   1.631 -0.2812 -0.0352 -0.0106
 1109SOL    HW1 3771   0.942   4.014   1.584 -0.5569 -0.9533  1.5374
 1109SOL    HW2 3772   0.914   4.131   1.675  0.0442  0.1909  0.2820
 1110SOL     OW 3773   5.575   1.533   6.106 -0.5262 -0.0966  0.7086
 1110SOL    HW1 3774   5.581   1.626   6.087 -0.2985 -0.3160 -0.3140
 1110SOL    HW2 3775   5.616   1.490   6.031 -2.6899 -1.1110  0.0366
 1111SOL     OW 3776   1.850   5.176   0.156  0.5067  0.2854  0.3310
 1111SOL    HW1 3777   1.764   5.144   0.130  1.1089 -1.7051  0.5968
 1111SOL    HW2 3778   1.861   5.259   0.109 -2.4246  1.7533  1.9722
 1112SOL     OW 3779   5.117   4.257   1.656  0.1186 -0.0667  0.0925
 1112SOL    HW1 3780   5.095   4.285   1.567  0.6592  0.9487  0.2635
 1112SOL    HW2 3781   5.041   4.281   1.709  0.1821  0.1834  0.0692
 1113SOL     OW 3782   1.527   2.388   6.109 -0.4635  0.1538 -0.2536
 1113SOL    HW1 3783   1.485   2.326   6.169  0.3733  1.3047  1.6329
 1113SOL    HW2 3784   1.570   2.332   6.044 -0.2358 -1.2601  1.0262
 1114SOL     OW 3785   4.201   0.056   1.543 -0.0807  0.7730  0.4329
 1114SOL    HW1 3786   4.190   0.137   1.592  1.7006  0.6128  1.1762
 1114SOL    HW2 3787   4.268   0.076   1.478  0.5767 -0.1486  0.7975
 1115SOL     OW 3788   0.083   5.922   2.680 -0.2044  0.5422  0.5033
 1115SOL    HW1 3789   0.088   5.996   2.619 -2.6320  1.1516  0.9335
 1115SOL    HW2 3790   0.010   5.869   2.648 -0.4587 -0.0139  1.9206
 1116SOL     OW 3791   4.574   0.352   1.845 -0.1640  0.5476 -0.1815
 1116SOL    HW1 3792   4.550   0.420   1.908  0.2328  1.8215 -1.3559
 1116SOL    HW2 3793   4.557   0.269   1.891 -1.7054  1.4133  0.8957
 1117SOL     OW 3794   1.214   3.522   3.150  0.0783 -0.9627  0.4101
 1117SOL    HW1 3795   1.224   3.600   3.203  2.2535 -2.1915  1.9661
 1117SOL    HW2 3796   1.139   3.476   3.189 -0.0176 -0.5773  0.6880
 1118SOL     OW 3797   1.283   1.952   1.681 -0.1943 -0.1151  0.6852
 1118SOL    HW1 3798   1.250   2.034   1.717  1.0999  0.5733  0.3893
 1118SOL    HW2 3799   1.235   1.884   1.728 -0.6212  0.7949  1.6116
 1119SOL     OW 3800   2.489   2.623   0.820  0.0606  0.0020 -0.2392
 1119SOL    HW1 3801   2.408   2.659   0.855  0.5329  1.0113 -0.1662
 1119SOL    HW2 3802   2.556   2.650   0.881  0.2186 -2.7102  0.9493
 1120SOL     OW 3803   0.709   6.015   5.477  0.1656 -0.3098 -0.5494
 1120SOL    HW1 3804   0.684   5.996   5.567 -0.8253 -0.2466 -0.8071
 1120SOL    HW2 3805   0.804   6.028   5.481 -0.1209  1.7595  0.8476
 1121SOL     OW 3806   0.312   2.848   3.181  0.0100 -0.4589  0.3815
 1121SOL    HW1 3807   0.351   2.926   3.143 -1.4743 -0.8146 -2.1284
 1121SOL    HW2 3808   0.245   2.881   3.241 -1.6601  0.3415 -1.7823
 1122SOL     OW 3809   0.817   4.385   1.992  0.2244 -0.1054  0.2633
 1122SOL    HW1 3810   0.796   4.295   2.019 -2.2513  0.7860  1.6180
 1122SOL    HW2 3811   0.734   4.420   1.959  0.6417  2.2405  1.5075
 1123SOL     OW 3812   2.213   5.917   3.653 -0.1569 -0.3162  0.3815
 1123SOL    HW1 3813   2.253   5.984   3.597 -0.6349 -0.2927  0.0547
 1123SOL    HW2 3814   2.247   5.935   3.740 -2.1252  1.9186  0.8164
 1124SOL     OW 3815   5.973   2.181   6.013  0.2551 -0.6048  0.3661
 1124SOL    HW1 3816   6.035   2.161   6.083  2.3553  0.3435 -1.1214
 1124SOL    HW2 3817   6.023   2.232   5.950 -2.0944  0.3044 -0.9057
 1125SOL     OW 3818   1.541   3.459   2.899  0.2220  0.0045  0.2612
 1125SOL    HW1 3819   1.556   3.531   2.838  0.8639 -1.2077 -1.0942
 1125SOL    HW2 3820   1.567   3.493   2.984  0.0957  1.4947 -0.2761
 1126SOL     OW 3821   2.037   3.222   1.551  0.1281  0.9456 -0.2662
 1126SOL    HW1 3822   2.037   3.284   1.478 -0.8353  0.9607 -0.2581
 1126SOL    HW2 3823   2.054   3.276   1.628  2.3246  0.7818 -0.5710
 1127SOL     OW 3824   4.510   4.239   5.149  0.4215 -0.0879  0.2967
 1127SOL    HW1 3825   4.493   4.227   5.055 -3.9870 -1.3099  1.0199
 1127SOL    HW2 3826   4.471   4.324   5.169  0.1311 -0.4414  1.2569
 1128SOL     OW 3827   3.905   5.906   5.944 -0.1184 -0.1412  0.1262
 1128SOL    HW1 3828   3.887   5.823   5.987  1.3560 -0.2719  0.5314
 1128SOL    HW2 3829   3.963   5.884   5.871 -0.1381  0.4598 -0.0826
 1129SOL     OW 3830   2.783   3.892   1.378  0.6427 -0.2892  0.2040
 1129SOL    HW1 3831   2.844   3.933   1.317  0.0377 -0.7491 -0.7260
 1129SOL    HW2 3832   2.777   3.954   1.450 -0.0667  1.1739 -1.0588
 1130SOL     OW 3833   2.336   5.372   0.731 -0.0089  0.3069  0.3742
 1130SOL    HW1 3834   2.356   5.464   0.745  0.2488  0.1336  1.1997
 1130SOL    HW2 3835   2.251   5.359   0.774 -0.1725  0.2139  0.0308
 1131SOL     OW 3836   5.445   2.005   5.074  0.1209 -0.2199  0.0830
 1131SOL    HW1 3837   5.526   1.977   5.117  0.7336 -1.3607 -1.7094
 1131SOL    HW2 3838   5.408   1.925   5.037 -1.5009  0.3924  0.2855
 1132SOL     OW 3839   3.554   4.151   5.296  0.0653  0.0548 -0.0242
 1132SOL    HW1 3840   3.484   4.114   5.242 -1.3191  3.0269 -0.4867
 1132SOL    HW2 3841   3.603   4.208   5.237  0.3561  1.0985  1.1849
 1133SOL     OW 3842   3.351   2.672   2.301  0.2579  0.1247 -0.3249
 1133SOL    HW1 3843   3.261   2.693   2.325  0.3306  0.2965 -0.2043
 1133SOL    HW2 3844   3.342   2.619   2.221  0.0132 -0.5792  0.1572
 1134SOL     OW 3845   1.635   4.940   4.522  0.3897  0.1695  0.2250
 1134SOL    HW1 3846   1.580   5.014   4.496  0.1451 -0.3267 -0.7175
 1134SOL    HW2 3847   1.629   4.879   4.449  0.3031 -0.9516  1.1500
 1135SOL     OW 3848   6.070   2.145   3.170  0.1925 -0.3842  0.4227
 1135SOL    HW1 3849   6.125   2.069   3.153 -0.0619 -0.5024  0.1153
 1135SOL    HW2 3850   6.115   2.217   3.126 -0.7740 -0.8028 -1.3325
 1136SOL     OW 3851   5.566   3.553   1.477 -0.1004 -0.6986  0.0278
 1136SOL    HW1 3852   5.532   3.502   1.550 -0.1676 -0.8067 -0.0780
 1136SOL    HW2 3853   5.489   3.571   1.423 -0.5509  1.6816  1.3409
 1137SOL     OW 3854   1.563   1.357   4.221 -0.1662  0.6257 -0.2082
 1137SOL    HW1 3855   1.483   1.349   4.168  0.0850 -0.0850 -0.4816
 1137SOL    HW2 3856   1.531   1.371   4.310 -0.6168 -1.0760 -0.0802
 1138SOL     OW 3857   5.819   6.034   4.111  0.0080  0.0303  0.4040
 1138SOL    HW1 3858   5.767   6.055   4.034 -1.0473  0.3759  1.1826
 1138SOL    HW2 3859   5.772   6.075   4.184  1.9442  1.3276  1.0221
 1139SOL     OW 3860   2.704   4.228   2.437 -0.5953  0.5309 -0.1108
 1139SOL    HW1 3861   2.678   4.218   2.528  1.0458  0.5057  0.3915
 1139SOL    HW2 3862   2.708   4.139   2.402  2.2646  0.1697  0.8809
 1140SOL     OW 3863   3.127   0.151   5.950  0.2199 -0.7130 -0.4139
 1140SOL    HW1 3864   3.084   0.236   5.947 -1.4323 -1.4775  0.4055
 1140SOL    HW2 3865   3.113   0.119   6.039  1.7096 -1.4240 -0.3884
 1141SOL     OW 3866   0.380   4.562   5.700 -0.0045  0.0958  0.1127
 1141SOL    HW1 3867   0.333   4.588   5.779 -1.7974  0.6079 -1.0665
 1141SOL    HW2 3868   0.440   4.494   5.729 -3.1528 -2.3908  1.3506
 1142SOL     OW 3869   2.606   4.252   4.419 -0.1694 -0.2765  0.4673
 1142SOL    HW1 3870   2.547   4.280   4.348  0.6891  2.2358  0.6471
 1142SOL    HW2 3871   2.547   4.227   4.490 -1.0345 -0.6204 -0.3519
 1143SOL     OW 3872   5.067   2.225   3.889  0.1293 -0.4343  0.2534
 1143SOL    HW1 3873   5.146   2.271   3.915  1.8262 -1.9566 -1.8231
 1143SOL    HW2 3874   5.059   2.242   3.795 -2.5235  0.3205  0.5392
 1144SOL     OW 3875   5.497   5.933   1.434 -0.0572  0.8311  0.2363
 1144SOL    HW1 3876   5.572   5.880   1.407 -0.6142  0.4330 -0.5677
 1144SOL    HW2 3877   5.427   5.870   1.447 -0.4913  1.2903  0.1376
 1145SOL     OW 3878   2.742   1.634   4.400  0.0050  0.7062 -0.0202
 1145SOL    HW1 3879   2.704   1.721   4.393 -1.1709  0.1410 -0.9560
 1145SOL    HW2 3880   2.678   1.584   4.452  0.0357  0.0599 -0.5890
 1146SOL     OW 3881   3.632   4.709   5.146  0.0376  0.0924  0.0213
 1146SOL    HW1 3882   3.683   4.774   5.194  0.9718  0.1373 -0.9911
 1146SOL    HW2 3883   3.689   4.683   5.074 -1.5660  0.5412 -1.4745
 1147SOL     OW 3884   0.775   3.728   5.471 -0.4886 -0.1758  0.5570
 1147SOL    HW1 3885   0.867   3.751   5.481 -0.3272 -1.1671  1.7050
 1147SOL    HW2 3886   0.765   3.649   5.525 -2.1006  0.1715  0.8081
 1148SOL     OW 3887   1.817   0.628   2.251  0.3401 -0.0138  0.4193
 1148SOL    HW1 3888   1.735   0.584   2.229  0.6184 -0.4666  0.2641
 1148SOL    HW2 3889   1.876   0.607   2.178  1.3052 -1.5977  1.5830
 1149SOL     OW 3890   3.294   4.439   2.627 -0.2054  0.6656  0.4037
 1149SOL    HW1 3891   3.202   4.415   2.613 -0.1446 -0.6245  1.8903
 1149SOL    HW2 3892   3.293   4.490   2.708  0.2407  2.0243 -0.4021
 1150SOL     OW 3893   3.667   1.979   2.256  0.0232  0.2052 -0.3381
 1150SOL    HW1 3894   3.675   1.949   2.347 -1.1774  0.8030 -0.0113
 1150SOL    HW2 3895   3.606   2.053   2.260 -1.0279 -0.5200 -1.7685
 1151SOL     OW 3896   0.969   2.848   5.996 -0.2326 -0.0610  0.0969
 1151SOL    HW1 3897   0.898   2.839   5.932 -0.0330 -0.3828 -0.0801
 1151SOL    HW2 3898   0.937   2.805   6.075 -0.6166  0.6309  0.3316
 1152SOL     OW 3899   5.324   4.974   2.455  0.0894 -0.1170 -0.0547
 1152SOL    HW1 3900   5.322   4.907   2.386 -2.0718 -1.0187  0.8066
 1152SOL    HW2 3901   5.413   4.970   2.489  1.3046  0.4920 -2.8514
 1153SOL     OW 3902   0.372   0.414   5.625  0.2345  0.0797  0.7035
 1153SOL    HW1 3903   0.378   0.327   5.665 -1.0830 -0.4368 -0.1169
 1153SOL    HW2 3904   0.443   0.464   5.664  1.6437 -1.6524  0.4937
 1154SOL     OW 3905   2.604   2.609   1.832  0.2983 -0.0046 -0.2800
 1154SOL    HW1 3906   2.619   2.515   1.833  0.2986 -0.0097 -0.6946
 1154SOL    HW2 3907   2.519   2.620   1.790  0.5114  0.2048 -0.6695
 1155SOL     OW 3908   5.569   5.297   5.008  0.0616  0.4403  0.1712
 1155SOL    HW1 3909   5.486   5.343   5.004 -0.1943 -0.0043  0.2888
 1155SOL    HW2 3910   5.553   5.215   4.961  1.0387  1.2617 -1.7051
 1156SOL     OW 3911   2.142   1.220   3.621  0.6949  0.1285 -0.3110
 1156SOL    HW1 3912   2.149   1.172   3.538  0.5854 -0.9547  0.2905
 1156SOL    HW2 3913   2.233   1.240   3.645  0.7829 -0.3164 -0.2648
 1157SOL     OW 3914   4.909   4.522   1.282  0.0199 -0.0751  0.2169
 1157SOL    HW1 3915   4.834   4.510   1.223 -0.8897 -0.1227  1.3440
 1157SOL    HW2 3916   4.909   4.616   1.301 -0.8284 -0.3251  1.5626
 1158SOL     OW 3917   2.966   0.205   3.193  0.1513 -0.1308  0.0236
 1158SOL    HW1 3918   3.036   0.258   3.232  0.6809  1.4569 -2.7888
 1158SOL    HW2 3919   3.011   0.149   3.130 -0.8672 -1.1545  0.1626
 1159SOL     OW 3920   1.504   5.407   4.608 -0.1943  0.1871  0.1950
 1159SOL    HW1 3921   1.455   5.418   4.690 -1.0534 -0.4097 -0.2212
 1159SOL    HW2 3922   1.449   5.449   4.542 -0.4925 -1.0564 -0.3850
 1160SOL     OW 3923   5.551   4.890   3.199  0.2097  0.1146 -0.0762
 1160SOL    HW1 3924   5.528   4.948   3.126 -1.7615  0.5211  0.8171
 1160SOL    HW2 3925   5.498   4.921   3.272  2.1743 -0.2341  1.5989
 1161SOL     OW 3926   2.765   3.678   0.004  0.2778 -0.3851  0.0981
 1161SOL    HW1 3927   2.751   3.650  -0.087 -0.0365  0.0697  0.0059
 1161SOL    HW2 3928   2.854   3.649   0.024  1.6532  2.3780 -1.4482
 1162SOL     OW 3929   4.125   0.995   2.352 -0.3516  0.1399  0.2145
 1162SOL    HW1 3930   4.055   1.047   2.310  0.2153  0.4139 -0.4139
 1162SOL    HW2 3931   4.195   0.994   2.287  0.3391  0.0975  0.9530
 1163SOL     OW 3932   3.383   2.385   4.822 -0.4038 -0.3429  0.3870
 1163SOL    HW1 3933   3.443   2.413   4.891  0.0663 -0.5397  0.0692
 1163SOL    HW2 3934   3.391   2.454   4.755  1.2103 -1.4773 -0.6635
 1164SOL     OW 3935   3.184   4.192   2.836  0.0254 -0.2268  0.6907
 1164SOL    HW1 3936   3.100   4.186   2.789  0.3864 -1.5495  0.1441
 1164SOL    HW2 3937   3.240   4.128   2.792  1.1145  0.1518  1.4837
 1165SOL     OW 3938   0.260   5.989   4.254  0.5376  0.1947 -0.4723
 1165SOL    HW1 3939   0.209   5.965   4.331 -0.2472  1.1597 -0.6762
 1165SOL    HW2 3940   0.260   5.909   4.200 -0.0411 -0.0732 -0.0866
 1166SOL     OW 3941   2.202   2.626   5.746 -0.0893  0.5022  0.9310
 1166SOL    HW1 3942   2.293   2.627   5.776 -0.0389  1.0755  0.7681
 1166SOL    HW2 3943   2.190   2.538   5.710 -0.1116 -0.1505  2.4546
 1167SOL     OW 3944   2.770   0.048   0.896 -0.0225  0.0846 -0.9636
 1167SOL    HW1 3945   2.805   0.073   0.811 -0.8615 -2.1934 -2.0731
 1167SOL    HW2 3946   2.678   0.072   0.892 -0.5220 -1.7488 -1.5256
 1168SOL     OW 3947   5.578   1.615   1.116 -0.3622 -0.4575 -0.0289
 1168SOL    HW1 3948   5.559   1.625   1.022  0.4751 -2.3778 -0.4606
 1168SOL    HW2 3949   5.663   1.658   1.127 -1.6255  2.0464  0.4410
 1169SOL     OW 3950   3.355   2.026   0.205 -0.2454  0.4757  0.1387
 1169SOL    HW1 3951   3.288   1.987   0.149 -0.1285  1.4519 -0.6958
 1169SOL    HW2 3952   3.312   2.104   0.242 -0.7317 -0.7611  2.3667
 1170SOL     OW 3953   5.462   5.448   2.568  0.2525 -0.3153 -0.3931
 1170SOL    HW1 3954   5.421   5.412   2.646 -0.5618 -1.1951 -1.2030
 1170SOL    HW2 3955   5.554   5.458   2.592 -0.2178  0.7115  1.1094
 1171SOL     OW 3956   2.555   5.310   5.673  0.2026  0.5948 -0.0061
 1171SOL    HW1 3957   2.625   5.253   5.705 -1.2846 -1.6150 -0.4334
 1171SOL    HW2 3958   2.597   5.394   5.659  2.3718 -0.1669  1.3816
 1172SOL     OW 3959   4.822   1.850   5.826 -0.0220  0.1996  0.0795
 1172SOL    HW1 3960   4.784   1.809   5.903  3.5740  1.1346  2.6511
 1172SOL    HW2 3961   4.854   1.777   5.772  1.4931 -0.5342  1.8748
 1173SOL     OW 3962   5.287   2.787   5.042  0.6133  0.3595 -0.8004
 1173SOL    HW1 3963   5.362   2.772   5.100 -0.1397  0.4309  0.2088
 1173SOL    HW2 3964   5.309   2.737   4.963  0.6710 -1.5874  0.3691
 1174SOL     OW 3965   2.651   2.093   4.105 -0.6768  0.0970 -0.3657
 1174SOL    HW1 3966   2.698   2.045   4.174 -1.0197 -1.1513 -0.9732
 1174SOL    HW2 3967   2.689   2.061   4.023 -0.7348  1.0730 -0.7943
 1175SOL     OW 3968   5.575   0.210   1.524  0.5999 -0.2108 -0.0502
 1175SOL    HW1 3969   5.550   0.264   1.449  1.9510  0.1771 -0.2466
 1175SOL    HW2 3970   5.497   0.157   1.542 -0.4029  1.0256 -0.5274
 1176SOL     OW 3971   5.298   1.731   5.563 -0.1617  0.1701  0.3485
 1176SOL    HW1 3972   5.341   1.647   5.552 -2.2153 -0.9904  0.7630
 1176SOL    HW2 3973   5.271   1.733   5.655  1.2583  2.0252  0.7873
 1177SOL     OW 3974   5.442   5.190   0.543  0.3208 -0.2468 -0.1891
 1177SOL    HW1 3975   5.408   5.100   0.545 -1.9696  0.5702 -0.0476
 1177SOL    HW2 3976   5.523   5.186   0.594 -1.0890 -1.7301  2.0961
 1178SOL     OW 3977   1.378   3.430   3.463  0.0611  0.0857  0.2488
 1178SOL    HW1 3978   1.377   3.526   3.456 -2.4011  0.1361  0.2580
 1178SOL    HW2 3979   1.296   3.403   3.420  0.0519 -1.9027  1.4413
 1179SOL     OW 3980   3.982   4.541   5.826 -0.2934 -0.2897  0.0283
 1179SOL    HW1 3981   4.047   4.508   5.888 -2.0865 -0.5641  1.8379
 1179SOL    HW2 3982   4.022   4.620   5.789  2.7240 -2.5261 -1.9909
 1180SOL     OW 3983   3.020   5.640   0.638 -0.1178 -0.6017  0.7674
 1180SOL    HW1 3984   3.026   5.547   0.659 -1.8093 -0.6075  1.3802
 1180SOL    HW2 3985   3.062   5.684   0.712 -1.0508 -0.8390  1.4660
 1181SOL     OW 3986   1.394   3.939   1.981 -0.2756  0.6204 -0.5949
 1181SOL    HW1 3987   1.377   3.852   2.016 -0.0526  0.8937  0.2119
 1181SOL    HW2 3988   1.471   3.970   2.029 -0.6376  1.4455 -0.5258
 1182SOL     OW 3989   3.996   5.323   0.728 -0.0099 -0.2092  0.5727
 1182SOL    HW1 3990   3.904   5.335   0.754 -0.0991  0.0549  0.1666
 1182SOL    HW2 3991   4.047   5.355   0.802 -0.2536  0.6485  0.3792
 1183SOL     OW 3992   5.943   1.010   0.363 -0.7184  0.5063 -0.7121
 1183SOL    HW1 3993   5.932   1.051   0.449 -0.7695  1.1328 -1.0070
 1183SOL    HW2 3994   5.854   0.990   0.335 -0.6211 -1.2382  0.0838
 1184SOL     OW 3995   5.736   4.531   3.445 -0.2973 -0.0064 -0.0202
 1184SOL    HW1 3996   5.752   4.459   3.384  0.5191  0.5724 -0.4987
 1184SOL    HW2 3997   5.821   4.546   3.487 -0.4320  0.7646 -0.0146
 1185SOL     OW 3998   2.779   1.913   4.297 -0.1560 -0.3737  0.2111
 1185SOL    HW1 3999   2.833   1.957   4.362 -0.0289  0.4230 -0.4200
 1185SOL    HW2 4000   2.843   1.869   4.240 -0.2909 -1.8273  1.1130
 1186SOL     OW 4001   2.756   4.666   3.333  0.1775 -0.1965 -0.0301
 1186SOL    HW1 4002   2.767   4.751   3.374 -0.2389 -0.1091 -0.0957
 1186SOL    HW2 4003   2.797   4.604   3.393  0.3591  0.0307  0.0823
 1187SOL     OW 4004   4.176   0.329   1.343  0.5249  0.7393  0.3602
 1187SOL    HW1 4005   4.138   0.307   1.428  0.9183  1.6797  0.7966
 1187SOL    HW2 4006   4.216   0.247   1.313  1.4147  0.6736  1.6367
 1188SOL     OW 4007   0.478   3.774   0.463  0.0206  0.2720  0.0699
 1188SOL    HW1 4008   0.524   3.831   0.402 -0.1485 -1.9119 -2.2923
 1188SOL    HW2 4009   0.507   3.686   0.440 -3.3997 -1.0231  0.1389
 1189SOL     OW 4010   3.262   4.975   4.406 -0.6271  0.2140 -0.1276
 1189SOL    HW1 4011   3.246   5.033   4.481  0.9678  2.5962 -1.5012
 1189SOL    HW2 4012   3.357   4.966   4.403 -0.7934 -1.9377 -0.4305
 1190SOL     OW 4013   5.816   2.207   2.482 -0.1543  0.3956  0.0790
 1190SOL    HW1 4014   5.805   2.145   2.410  0.3804  1.2578 -0.7707
 1190SOL    HW2 4015   5.878   2.271   2.449 -1.0250  1.6349  0.7654
 1191SOL     OW 4016   2.653   0.559   5.266  0.7529  0.3143 -1.0516
 1191SOL    HW1 4017   2.660   0.464   5.275  1.9975  0.2604 -2.3564
 1191SOL    HW2 4018   2.702   0.594   5.341  0.0270 -0.0431 -0.3925
 1192SOL     OW 4019   1.225   4.178   2.784 -0.8304 -0.0842  0.3377
 1192SOL    HW1 4020   1.261   4.266   2.790 -4.3953  1.6969 -0.9082
 1192SOL    HW2 4021   1.171   4.169   2.862  1.1026 -2.1394  1.5395
 1193SOL     OW 4022   5.196   0.810   2.337 -0.3656 -0.0889  0.0395
 1193SOL    HW1 4023   5.266   0.813   2.403 -0.4082 -0.6970  0.1180
 1193SOL    HW2 4024   5.134   0.745   2.371 -0.8120  0.2122 -0.1865
 1194SOL     OW 4025   5.780   3.963   0.455 -0.5072  0.1680  0.3329
 1194SOL    HW1 4026   5.836   4.039   0.443 -1.0786  0.4052 -0.9405
 1194SOL    HW2 4027   5.828   3.891   0.413 -1.9862  0.7703 -2.6454
 1195SOL     OW 4028   1.701   2.715   2.784  0.4061  0.4542 -0.8061
 1195SOL    HW1 4029   1.661   2.791   2.825  0.3299  0.6765 -1.2858
 1195SOL    HW2 4030   1.643   2.642   2.806  0.8401  0.3991  0.2344
 1196SOL     OW 4031   2.912   0.008   5.243  0.5345  0.3496  0.4819
 1196SOL    HW1 4032   2.966   0.001   5.164  0.4742 -0.2877  0.4893
 1196SOL    HW2 4033   2.822   0.014   5.210  0.2941 -2.0677  0.4969
 1197SOL     OW 4034   5.788   5.423   3.434  0.2001 -0.6251 -0.8153
 1197SOL    HW1 4035   5.724   5.355   3.412 -2.2639  0.3924  2.5077
 1197SOL    HW2 4036   5.806   5.467   3.351 -3.1214 -1.2366 -1.9809
 1198SOL     OW 4037   3.682   0.808   3.243 -0.2814  0.3119  0.2882
 1198SOL    HW1 4038   3.599   0.855   3.229 -0.3125 -0.0483 -0.8418
 1198SOL    HW2 4039   3.725   0.857   3.313 -1.1708  0.8790  0.4651
 1199SOL     OW 4040   3.173   0.576   2.466  0.6920 -1.0437 -0.2263
 1199SOL    HW1 4041   3.248   0.633   2.446  0.3343 -1.2352 -2.3291
 1199SOL    HW2 4042   3.097   0.632   2.454  0.2895 -2.0379 -3.0819
 1200SOL     OW 4043   0.212   4.355   3.308 -0.2176  0.0307 -0.4879
 1200SOL    HW1 4044   0.189   4.398   3.226  1.3242  1.4189 -0.2431
 1200SOL    HW2 4045   0.189   4.419   3.376  0.8227 -0.0666 -0.0239
 1201SOL     OW 4046   4.008   5.055   4.866 -0.1224  0.1169 -0.2448
 1201SOL    HW1 4047   4.099   5.026   4.868 -0.0097  0.4772 -0.1540
 1201SOL    HW2 4048   4.008   5.132   4.809 -0.5025 -0.3309 -0.8656
 1202SOL     OW 4049   1.959   1.695   3.327 -0.4071  0.2817 -0.0531
 1202SOL    HW1 4050   2.050   1.725   3.337 -0.2024  0.1644 -1.3601
 1202SOL    HW2 4051   1.967   1.608   3.288 -1.0689 -0.3101  1.0795
 1203SOL     OW 4052   3.226   3.941   1.787 -0.1028 -0.1240 -0.4993
 1203SOL    HW1 4053   3.256   3.852   1.769  0.5671  0.1488 -0.7762
 1203SOL    HW2 4054   3.298   3.997   1.758  0.6765  0.3969  2.1896
 1204SOL     OW 4055   5.250   5.960   0.536 -0.6009 -0.2087 -0.8767
 1204SOL    HW1 4056   5.339   5.970   0.569 -0.6164  1.4714 -1.2666
 1204SOL    HW2 4057   5.214   5.887   0.587  0.5632 -0.0571  0.2113
 1205SOL     OW 4058   4.419   5.043   2.446  0.5590  0.1653 -0.3393
 1205SOL    HW1 4059   4.401   5.130   2.411  0.0725  0.0964 -0.2736
 1205SOL    HW2 4060   4.428   5.057   2.541  0.2872  0.1183 -0.3052
 1206SOL     OW 4061   2.295   1.773   3.378  0.1197 -0.5779 -0.0229
 1206SOL    HW1 4062   2.325   1.864   3.382 -0.9849 -0.2436  1.3823
 1206SOL    HW2 4063   2.375   1.723   3.360  1.2495  0.4303  1.8765
 1207SOL     OW 4064   0.818   4.407   5.690  0.6081 -0.2802 -0.5910
 1207SOL    HW1 4065   0.861   4.419   5.606 -1.1715 -2.7010 -1.9464
 1207SOL    HW2 4066   0.877   4.350   5.739  0.3883 -1.1162 -1.2815
 1208SOL     OW 4067   1.391   4.346   0.327  0.4945  0.4643  0.3750
 1208SOL    HW1 4068   1.311   4.383   0.365 -0.0389 -0.4913  0.2285
 1208SOL    HW2 4069   1.410   4.270   0.382  2.3073  1.6419  1.4750
 1209SOL     OW 4070   5.845   1.691   0.926  0.1480  0.4728  0.4294
 1209SOL    HW1 4071   5.919   1.630   0.924  0.4984  0.8395  1.8511
 1209SOL    HW2 4072   5.877   1.768   0.972 -0.8229  1.0532  0.1686
 1210SOL     OW 4073   1.462   0.343   5.420 -0.0981  0.4339 -0.4659
 1210SOL    HW1 4074   1.370   0.316   5.426 -0.3713  1.5189  0.9486
 1210SOL    HW2 4075   1.461   0.413   5.354 -0.1236 -0.1764 -1.1148
 1211SOL     OW 4076   5.345   0.994   0.988 -0.1907  0.2100 -0.2230
 1211SOL    HW1 4077   5.375   0.990   0.897 -3.6430 -0.1979 -1.5063
 1211SOL    HW2 4078   5.332   0.903   1.014 -1.1666  0.3616 -0.1145
 1212SOL     OW 4079   2.646   2.119   3.500 -0.3502  0.4887  0.1909
 1212SOL    HW1 4080   2.614   2.166   3.577 -0.7503  1.1327 -0.3618
 1212SOL    HW2 4081   2.733   2.155   3.485 -0.9531  1.6535 -0.6949
 1213SOL     OW 4082   4.995   4.009   0.752  0.0298 -0.5351  0.0912
 1213SOL    HW1 4083   5.079   4.003   0.706 -0.2878 -0.5630 -0.4949
 1213SOL    HW2 4084   5.016   4.051   0.835  0.4817  0.2483 -0.4108
 1214SOL     OW 4085   3.007   2.467   5.543  0.2812 -0.2158 -0.6845
 1214SOL    HW1 4086   3.025   2.405   5.614 -1.7483 -0.3083 -0.1969
 1214SOL    HW2 4087   3.078   2.452   5.480  1.2888 -1.1779  0.6222
 1215SOL     OW 4088   5.706   4.323   2.723 -0.0863 -0.3481 -0.4176
 1215SOL    HW1 4089   5.663   4.245   2.758  1.3108 -1.1291 -0.3475
 1215SOL    HW2 4090   5.738   4.369   2.800 -0.6469  0.1384 -0.4746
 1216SOL     OW 4091   2.601   5.897   1.827 -0.2077 -0.3872 -1.1981
 1216SOL    HW1 4092   2.566   5.929   1.744  0.4128  1.2496 -0.8610
 1216SOL    HW2 4093   2.537   5.832   1.856 -0.5452 -0.8362 -2.8343
 1217SOL     OW 4094   2.716   3.307   4.542 -0.3697  0.5176  0.4128
 1217SOL    HW1 4095   2.797   3.291   4.494 -0.4567  0.4776  0.2809
 1217SOL    HW2 4096   2.653   3.246   4.505  0.0910 -0.9656  1.9705
 1218SOL     OW 4097   4.416   3.430   4.429 -0.0999  0.1128  0.5795
 1218SOL    HW1 4098   4.452   3.372   4.362  0.3558 -0.2466  1.1204
 1218SOL    HW2 4099   4.491   3.451   4.485  0.2322  2.8711 -0.7313
 1219SOL     OW 4100   1.287   2.427   3.890  0.0492  0.2847 -0.3257
 1219SOL    HW1 4101   1.311   2.473   3.970 -1.3825  1.3571 -0.4921
 1219SOL    HW2 4102   1.192   2.435   3.884  0.0977  0.0695 -2.0295
 1220SOL     OW 4103   3.513   5.678   4.005 -0.5900  0.3221  0.4164
 1220SOL    HW1 4104   3.428   5.688   3.964 -1.0428  1.9043  1.6277
 1220SOL    HW2 4105   3.537   5.587   3.990 -1.8085  0.2192 -1.1962
 1221SOL     OW 4106   4.234   0.712   3.987  0.3466 -0.0649  0.1697
 1221SOL    HW1 4107   4.278   0.643   4.037  0.8041  0.2393  0.1911
 1221SOL    HW2 4108   4.181   0.758   4.052  1.4630  0.7628  0.5350
 1222SOL     OW 4109   0.632   5.968   3.300 -0.0273 -0.0212  0.0485
 1222SOL    HW1 4110   0.575   5.917   3.358 -1.5967  1.0665 -0.4793
 1222SOL    HW2 4111   0.703   5.999   3.357 -0.8522 -0.0175  1.0983
 1223SOL     OW 4112   2.293   1.796   5.709 -0.0012  0.1575  0.2052
 1223SOL    HW1 4113   2.302   1.815   5.803  1.3225 -3.7552  1.0835
 1223SOL    HW2 4114   2.208   1.752   5.701 -1.8701  3.6828 -1.2622
 1224SOL     OW 4115   5.146   0.791   0.716 -0.0580 -0.3925 -0.5042
 1224SOL    HW1 4116   5.219   0.737   0.747  0.8771  1.0191 -0.1610
 1224SOL    HW2 4117   5.113   0.833   0.795 -1.1658 -0.8838 -0.6842
 1225SOL     OW 4118   4.460   4.987   4.084  0.0727  0.1775  0.7863
 1225SOL    HW1 4119   4.500   5.070   4.110 -0.4709  0.4896  0.6392
 1225SOL    HW2 4120   4.370   4.992   4.116  0.0648 -0.4046  0.8724
 1226SOL     OW 4121   5.850   1.734   3.399  0.3117  0.6720  0.1815
 1226SOL    HW1 4122   5.830   1.647   3.431 -2.7235  1.0564 -0.4457
 1226SOL    HW2 4123   5.785   1.751   3.332 -1.3050  4.5848  2.4092
 1227SOL     OW 4124   2.361   0.207   3.192 -0.6017 -0.2036  0.4594
 1227SOL    HW1 4125   2.342   0.254   3.273  0.0465 -1.0932  1.1472
 1227SOL    HW2 4126   2.457   0.206   3.187 -0.6355 -0.3353 -0.2104
 1228SOL     OW 4127   4.545   4.204   2.529  0.3130  0.1267  0.3669
 1228SOL    HW1 4128   4.450   4.195   2.522  0.2030  0.6735  1.0740
 1228SOL    HW2 4129   4.579   4.115   2.516 -0.3269 -0.1606  0.6379
 1229SOL     OW 4130   3.689   5.468   3.296  0.1185 -0.0611 -0.0263
 1229SOL    HW1 4131   3.741   5.406   3.245 -2.0332 -2.0596  0.0329
 1229SOL    HW2 4132   3.660   5.418   3.373  0.3437  1.8025  1.3368
 1230SOL     OW 4133   5.472   3.200   1.694 -0.5751  0.2339  0.1575
 1230SOL    HW1 4134   5.441   3.112   1.672  0.5449 -0.0775 -0.2626
 1230SOL    HW2 4135   5.568   3.191   1.697 -0.4749  1.3212  0.6429
 1231SOL     OW 4136   1.591   3.616   0.394 -0.2432  0.5752 -0.0601
 1231SOL    HW1 4137   1.625   3.629   0.305 -0.4102 -0.3298 -0.2711
 1231SOL    HW2 4138   1.613   3.696   0.440  1.0056  0.5454 -0.5666
 1232SOL     OW 4139   5.949   4.621   2.109  0.0119  0.0545 -0.6472
 1232SOL    HW1 4140   5.938   4.539   2.159  1.3939 -0.4156 -1.0830
 1232SOL    HW2 4141   6.024   4.664   2.150 -2.3245  2.5744  1.4526
 1233SOL     OW 4142   4.247   3.440   1.386 -0.2914  0.4151 -0.6973
 1233SOL    HW1 4143   4.284   3.527   1.401  1.1519 -0.2223 -0.4289
 1233SOL    HW2 4144   4.232   3.436   1.291  2.9055 -0.2373 -1.2838
 1234SOL     OW 4145   0.183   0.167   5.328  1.0663  0.1680  0.1093
 1234SOL    HW1 4146   0.126   0.179   5.252 -0.2295  1.5669  1.2380
 1234SOL    HW2 4147   0.220   0.079   5.316 -1.1465 -0.7081 -0.8045
 1235SOL     OW 4148   0.797   4.428   4.190 -0.4308 -0.1121  0.1215
 1235SOL    HW1 4149   0.826   4.340   4.164  1.4463  0.3826  0.3889
 1235SOL    HW2 4150   0.808   4.429   4.285 -0.3198  0.4531  0.1029
 1236SOL     OW 4151   5.977   0.182   1.671 -0.0981  0.4520  0.0876
 1236SOL    HW1 4152   5.955   0.091   1.691  0.2625  0.1544 -0.8276
 1236SOL    HW2 4153   6.036   0.209   1.742 -2.3868  0.9140  1.9760
 1237SOL     OW 4154   5.531   1.340   1.143  0.4082  0.4405 -0.1725
 1237SOL    HW1 4155   5.442   1.336   1.176  0.5990 -0.0412  0.3011
 1237SOL    HW2 4156   5.551   1.434   1.139  0.4335  0.5307  1.2689
 1238SOL     OW 4157   3.516   4.954   0.848 -0.2910  0.5198 -0.2179
 1238SOL    HW1 4158   3.609   4.974   0.861 -0.4419  0.4110  1.2316
 1238SOL    HW2 4159   3.488   4.916   0.932 -1.3394 -0.6306 -1.0495
 1239SOL     OW 4160   3.211   4.651   3.909 -0.2570 -0.5472  0.2524
 1239SOL    HW1 4161   3.289   4.688   3.951  0.6319 -1.0012 -0.9180
 1239SOL    HW2 4162   3.225   4.556   3.912 -0.1490 -0.5870 -1.0689
 1240SOL     OW 4163   2.977   1.835   5.655  0.7277  0.5498 -0.3852
 1240SOL    HW1 4164   3.029   1.835   5.735 -1.1737  0.0040  0.9317
 1240SOL    HW2 4165   2.942   1.924   5.649  0.6009  0.4994 -0.4114
 1241SOL     OW 4166   4.253   1.512   5.320 -0.3594  0.4088 -0.4911
 1241SOL    HW1 4167   4.321   1.454   5.284  0.0663  0.3221  0.4041
 1241SOL    HW2 4168   4.188   1.452   5.356 -0.5781  0.4921 -0.7470
 1242SOL     OW 4169   1.198   0.567   3.284  0.7195  0.0231 -0.1221
 1242SOL    HW1 4170   1.114   0.612   3.288  1.2792  1.0457  0.5823
 1242SOL    HW2 4171   1.229   0.567   3.374  1.9010  0.4879 -0.5146
 1243SOL     OW 4172   6.123   0.602   3.471  0.1720 -0.2219  0.2234
 1243SOL    HW1 4173   6.033   0.617   3.501  0.5120  1.8523  0.3353
 1243SOL    HW2 4174   6.153   0.529   3.525 -1.1749 -0.4433  0.7340
 1244SOL     OW 4175   5.031   1.028   5.194 -0.0482 -0.4013  0.5013
 1244SOL    HW1 4176   5.069   1.017   5.106  0.8750 -1.6594  1.0134
 1244SOL    HW2 4177   5.071   0.957   5.245 -0.8704  0.0761  1.8391
 1245SOL     OW 4178   3.531   2.005   1.420 -0.5660  0.4157 -0.1436
 1245SOL    HW1 4179   3.501   1.914   1.423  0.4039  0.1062  1.4313
 1245SOL    HW2 4180   3.626   1.999   1.416 -0.4646  1.3674  0.4975
 1246SOL     OW 4181   5.567   1.662   4.769  0.0970  0.1391 -0.1580
 1246SOL    HW1 4182   5.483   1.708   4.762 -0.3149 -0.3297  1.3794
 1246SOL    HW2 4183   5.544   1.571   4.788  0.9425  0.0088  0.3293
 1247SOL     OW 4184   3.933   5.198   4.358  0.4741  0.2035 -0.6125
 1247SOL    HW1 4185   3.865   5.159   4.303 -1.6615  0.5937  1.5419
 1247SOL    HW2 4186   4.000   5.227   4.297 -0.2790 -2.0903 -2.7171
 1248SOL     OW 4187   0.788   5.570   5.174  0.1244 -0.3758 -0.2234
 1248SOL    HW1 4188   0.806   5.504   5.107 -2.2697 -1.5908  0.2299
 1248SOL    HW2 4189   0.856   5.558   5.240  0.2222 -1.8259 -0.5687
 1249SOL     OW 4190   4.998   4.567   0.967 -0.0715  0.3850 -0.2284
 1249SOL    HW1 4191   5.076   4.541   1.016 -0.9411 -1.4302  0.2793
 1249SOL    HW2 4192   4.925   4.538   1.021 -1.0975  0.8089 -1.3376
 1250SOL     OW 4193   3.124   5.094   0.106 -0.3213  0.2270 -0.6050
 1250SOL    HW1 4194   3.039   5.055   0.128  0.0726  1.4797  3.9295
 1250SOL    HW2 4195   3.113   5.124   0.015 -5.3091  1.7202  0.1977
 1251SOL     OW 4196   1.872   1.096   0.541 -0.7698  0.5940  0.1730
 1251SOL    HW1 4197   1.819   1.101   0.462 -1.5100 -0.7381  0.5456
 1251SOL    HW2 4198   1.946   1.155   0.525  0.2925 -1.2433 -2.4048
 1252SOL     OW 4199   4.987   2.532   4.810  0.7901  0.0246  0.1044
 1252SOL    HW1 4200   5.004   2.508   4.718 -0.2216 -0.8971  0.1363
 1252SOL    HW2 4201   5.071   2.518   4.854  1.1396 -0.0667 -0.5789
 1253SOL     OW 4202   5.502   0.945   2.931  0.9548 -0.1523 -0.0604
 1253SOL    HW1 4203   5.495   0.951   2.836  2.8979  2.8186 -0.1593
 1253SOL    HW2 4204   5.422   0.986   2.964  0.8493 -0.0422 -0.4532
 1254SOL     OW 4205   5.780   3.459   2.554 -0.2385 -0.4759  0.0676
 1254SOL    HW1 4206   5.845   3.438   2.621  0.2780  0.5459 -0.0901
 1254SOL    HW2 4207   5.712   3.392   2.564  1.7048 -2.7380 -0.9800
 1255SOL     OW 4208   3.800   4.137   2.427  0.3105  0.4843  0.3915
 1255SOL    HW1 4209   3.783   4.087   2.506  0.1009 -0.0755 -0.0039
 1255SOL    HW2 4210   3.744   4.214   2.435  0.4240  0.5213  0.8689
 1256SOL     OW 4211   0.608   4.750   4.209 -0.1973  0.3003  0.6248
 1256SOL    HW1 4212   0.703   4.749   4.219 -0.2078 -3.3543  1.6044
 1256SOL    HW2 4213   0.575   4.743   4.298 -1.3755  0.2627  0.1994
 1257SOL     OW 4214   3.503   3.796   3.946  0.4079 -0.2865 -0.4440
 1257SOL    HW1 4215   3.495   3.822   4.038  0.7408  0.0839 -0.5163
 1257SOL    HW2 4216   3.550   3.868   3.905  0.3558 -0.5001 -0.8857
 1258SOL     OW 4217   2.067   1.358   2.096  0.1664 -0.5545 -0.0623
 1258SOL    HW1 4218   1.999   1.298   2.127  0.8922 -1.1548  0.4074
 1258SOL    HW2 4219   2.021   1.441   2.082 -0.4253 -0.5882  1.4953
 1259SOL     OW 4220   3.064   2.337   5.778  0.0684  0.7066 -0.8569
 1259SOL    HW1 4221   3.155   2.365   5.766  1.2233 -2.8565 -1.5712
 1259SOL    HW2 4222   3.070   2.245   5.803 -3.3609  0.4842 -0.4026
 1260SOL     OW 4223   2.887   0.837   4.282 -0.1527 -0.3444  0.3165
 1260SOL    HW1 4224   2.959   0.858   4.222  0.8472 -0.2375  1.5061
 1260SOL    HW2 4225   2.816   0.895   4.256  0.9350  1.1286  0.4853
 1261SOL     OW 4226   3.971   5.205   2.291  0.1626  0.4134 -0.2979
 1261SOL    HW1 4227   3.883   5.203   2.252 -0.4222  2.7821  0.7746
 1261SOL    HW2 4228   3.984   5.296   2.317  2.3637 -0.1876  0.9245
 1262SOL     OW 4229   3.700   1.165   2.586  0.6779 -0.8720 -0.0259
 1262SOL    HW1 4230   3.673   1.081   2.549 -0.5087 -0.8460  0.7183
 1262SOL    HW2 4231   3.717   1.221   2.511  0.0190 -1.3338 -0.5273
 1263SOL     OW 4232   1.668   3.371   0.821 -0.5619  0.3411  0.5547
 1263SOL    HW1 4233   1.729   3.315   0.773 -0.5038  0.1459  0.8546
 1263SOL    HW2 4234   1.697   3.366   0.912  0.2725  1.9389  0.4114
 1264SOL     OW 4235   1.194   0.665   4.132  0.0508 -0.2779 -0.6377
 1264SOL    HW1 4236   1.241   0.743   4.160 -1.8908  0.4530  0.7415
 1264SOL    HW2 4237   1.251   0.625   4.066  0.9928  2.3963 -1.5493
 1265SOL     OW 4238   4.885   4.286   1.034  0.0177 -0.1411  0.3361
 1265SOL    HW1 4239   4.969   4.244   1.020  1.1700  1.8758  0.7819
 1265SOL    HW2 4240   4.841   4.231   1.099  0.8587 -1.3725 -0.1039
 1266SOL     OW 4241   1.875   1.262   1.605  0.9882  0.0251  1.0834
 1266SOL    HW1 4242   1.924   1.294   1.680  1.3272 -2.8263  2.2184
 1266SOL    HW2 4243   1.801   1.215   1.642 -0.5360  1.0568 -0.4995
 1267SOL     OW 4244   0.842   3.818   4.462  0.4870  0.1703 -0.1728
 1267SOL    HW1 4245   0.882   3.732   4.464 -2.5558 -1.3912  1.0451
 1267SOL    HW2 4246   0.862   3.856   4.548  0.6553  0.0727 -0.1697
 1268SOL     OW 4247   2.020   5.812   2.348 -0.0192  0.1717  0.5593
 1268SOL    HW1 4248   1.960   5.737   2.347  0.0913  0.0600 -1.0464
 1268SOL    HW2 4249   2.013   5.849   2.259  4.0264 -1.2452 -0.5425
 1269SOL     OW 4250   2.705   1.037   2.407 -0.5446  0.1572  0.5489
 1269SOL    HW1 4251   2.671   1.126   2.397 -1.1487 -0.2340 -1.1213
 1269SOL    HW2 4252   2.798   1.044   2.386 -0.1560  0.7018  2.2814
 1270SOL     OW 4253   4.708   5.016   0.220  0.0626 -0.8177 -0.2019
 1270SOL    HW1 4254   4.680   4.981   0.305  0.9072  0.0587  0.4459
 1270SOL    HW2 4255   4.763   4.947   0.182 -0.3800 -1.2421 -0.0827
 1271SOL     OW 4256   3.846   4.071   1.026 -0.2737 -0.5705 -0.3411
 1271SOL    HW1 4257   3.863   4.124   0.948  2.8006 -0.8777 -0.0405
 1271SOL    HW2 4258   3.871   4.127   1.099  0.3180 -1.4370  0.1440
 1272SOL     OW 4259   1.410   4.165   3.132 -0.0189  0.2022  0.3626
 1272SOL    HW1 4260   1.336   4.213   3.170 -0.3879  0.7108 -0.9146
 1272SOL    HW2 4261   1.369   4.103   3.071  0.5654 -0.0140  0.1851
 1273SOL     OW 4262   3.015   0.642   1.185  0.0456  0.4385 -0.5250
 1273SOL    HW1 4263   3.049   0.730   1.167  0.8559  0.1786 -0.2897
 1273SOL    HW2 4264   3.064   0.585   1.127  1.8606 -0.2637  1.5632
 1274SOL     OW 4265   1.088   1.024   2.551 -0.1279  0.3821 -0.4202
 1274SOL    HW1 4266   1.112   0.958   2.616 -0.6872  0.8161  0.2385
 1274SOL    HW2 4267   1.132   0.995   2.471 -0.8328 -1.1151 -0.3046
 1275SOL     OW 4268   1.955   3.084   2.530  0.0322  0.7494  0.0480
 1275SOL    HW1 4269   1.910   3.143   2.590  1.7817  0.9351  1.2258
 1275SOL    HW2 4270   1.942   2.997   2.567  1.3735  0.8947  0.9110
 1276SOL     OW 4271   4.694   5.835   2.286 -0.0285 -0.1525 -0.1586
 1276SOL    HW1 4272   4.629   5.855   2.354  0.2802  0.7702 -0.1246
 1276SOL    HW2 4273   4.777   5.827   2.334  0.2136  0.6417 -0.4338
 1277SOL     OW 4274   1.108   3.222   0.233 -0.1166  0.6951  0.3587
 1277SOL    HW1 4275   1.190   3.270   0.225  1.1925 -1.1812  1.7063
 1277SOL    HW2 4276   1.111   3.156   0.164 -0.4590  0.5788  0.4520
 1278SOL     OW 4277   4.727   3.686   6.013  0.0759 -0.1923 -0.1878
 1278SOL    HW1 4278   4.695   3.751   6.076 -1.3732 -2.1089  1.1843
 1278SOL    HW2 4279   4.798   3.641   6.059  0.7519  0.0778 -0.9491
 1279SOL     OW 4280   3.679   3.474   1.838 -0.2071  0.0297  0.3161
 1279SOL    HW1 4281   3.741   3.415   1.881 -0.0923 -0.5108 -0.5650
 1279SOL    HW2 4282   3.597   3.425   1.835  0.2851 -0.7678 -1.8339
 1280SOL     OW 4283   2.076   5.404   0.439 -0.3082 -0.2422  0.1169
 1280SOL    HW1 4284   2.060   5.311   0.458  0.7713 -0.7604 -1.2794
 1280SOL    HW2 4285   2.166   5.418   0.469  0.1818 -0.1627 -1.3287
 1281SOL     OW 4286   5.597   1.631   2.774 -0.4827 -0.1720 -0.2157
 1281SOL    HW1 4287   5.544   1.709   2.755  0.5547  0.2813 -1.3776
 1281SOL    HW2 4288   5.623   1.641   2.866 -2.4393 -0.4484  0.4124
 1282SOL     OW 4289   1.250   4.413   0.875 -0.1076 -0.7565 -0.3093
 1282SOL    HW1 4290   1.162   4.396   0.910 -0.7115 -1.9859 -2.2857
 1282SOL    HW2 4291   1.309   4.372   0.939 -0.8882  0.4939  1.2931
 1283SOL     OW 4292   4.030   1.006   5.187 -0.1838 -0.0690 -0.2142
 1283SOL    HW1 4293   4.117   1.008   5.225  0.1771  0.2558 -1.0369
 1283SOL    HW2 4294   4.024   1.085   5.134 -0.5179 -0.6890 -1.1411
 1284SOL     OW 4295   1.725   0.434   3.189 -0.1158 -0.5242 -0.1704
 1284SOL    HW1 4296   1.746   0.514   3.140  0.5028 -1.2976 -1.2170
 1284SOL    HW2 4297   1.638   0.450   3.224 -0.9835 -0.2533 -2.2868
 1285SOL     OW 4298   3.468   4.757   5.786  0.0550  0.2965 -0.0268
 1285SOL    HW1 4299   3.404   4.779   5.718 -0.1986 -0.8902 -0.1788
 1285SOL    HW2 4300   3.488   4.665   5.771 -0.1941 -0.0536  1.6687
 1286SOL     OW 4301   0.737   1.137   3.000  0.3185  0.1246  0.4072
 1286SOL    HW1 4302   0.767   1.206   3.057  0.7146 -0.2955  0.7112
 1286SOL    HW2 4303   0.731   1.178   2.913  1.3089  0.3367  0.4298
 1287SOL     OW 4304   4.369   5.170   1.704  0.3453  0.2157 -0.7687
 1287SOL    HW1 4305   4.302   5.141   1.643  1.1705 -1.4070 -0.9807
 1287SOL    HW2 4306   4.413   5.242   1.660  0.2902 -0.2946 -1.6832
 1288SOL     OW 4307   3.045   4.551   0.182  0.6820 -0.0527  0.3035
 1288SOL    HW1 4308   3.072   4.639   0.155 -0.5353 -0.4227 -2.5105
 1288SOL    HW2 4309   3.125   4.500   0.181  0.9652  0.3752 -1.1346
 1289SOL     OW 4310   3.152   4.637   5.379 -0.0071  0.9948 -0.3161
 1289SOL    HW1 4311   3.182   4.614   5.291 -0.7615 -2.1946  0.1095
 1289SOL    HW2 4312   3.061   4.666   5.367 -0.1373  0.4792 -0.6126
 1290SOL     OW 4313   3.644   0.970   0.198  0.6192 -0.5377 -0.9787
 1290SOL    HW1 4314   3.620   0.878   0.188 -0.3716 -0.2421 -1.4069
 1290SOL    HW2 4315   3.666   0.999   0.109 -1.6761  0.3236 -1.3293
 1291SOL     OW 4316   5.664   3.598   0.648 -0.4380  0.1213 -0.0740
 1291SOL    HW1 4317   5.635   3.657   0.578 -1.8676  2.2372  2.1025
 1291SOL    HW2 4318   5.588   3.542   0.665 -0.4574  0.2777  0.3874
 1292SOL     OW 4319   4.237   5.295   4.917 -0.0654  0.4704 -0.0543
 1292SOL    HW1 4320   4.308   5.329   4.970 -1.3036 -0.3358  2.2311
 1292SOL    HW2 4321   4.269   5.211   4.884  1.1669  1.5310 -1.6830
 1293SOL     OW 4322   2.423   2.171   5.324  0.0792 -0.4298  0.1518
 1293SOL    HW1 4323   2.345   2.137   5.280 -1.4665  1.1082  1.5756
 1293SOL    HW2 4324   2.462   2.231   5.262 -0.6358 -0.2031 -0.0858
 1294SOL     OW 4325   1.211   4.034   3.378  0.4759  0.1633 -0.4156
 1294SOL    HW1 4326   1.291   4.077   3.407  0.2300 -0.0811  0.6918
 1294SOL    HW2 4327   1.145   4.059   3.443 -0.5598  1.0031 -1.7373
 1295SOL     OW 4328   5.791   2.028   4.577 -0.0439 -0.1873 -0.6718
 1295SOL    HW1 4329   5.810   2.076   4.497  1.4472  2.1748  0.9800
 1295SOL    HW2 4330   5.749   2.093   4.635  1.0863 -1.0993  1.2832
 1296SOL     OW 4331   3.024   2.158   0.741  0.5301  0.0111 -0.3002
 1296SOL    HW1 4332   2.933   2.187   0.746  0.5401  0.0906 -0.5780
 1296SOL    HW2 4333   3.074   2.237   0.719  0.5367 -0.2303 -1.2254
 1297SOL     OW 4334   5.584   4.371   4.371  0.3694  0.3116  0.2240
 1297SOL    HW1 4335   5.641   4.436   4.329  0.1923 -0.4108 -1.1530
 1297SOL    HW2 4336   5.600   4.290   4.324 -1.9523  0.1229 -0.3496
 1298SOL     OW 4337   2.053   1.087   4.966 -0.6300  0.5829 -0.0123
 1298SOL    HW1 4338   2.025   1.141   5.040 -0.7060 -1.0222  1.1987
 1298SOL    HW2 4339   2.016   1.000   4.985 -0.6388  0.1178 -1.9490
 1299SOL     OW 4340   0.637   1.300   0.889 -0.5514  0.2899  0.8518
 1299SOL    HW1 4341   0.561   1.301   0.947 -0.6211  0.2177  0.7621
 1299SOL    HW2 4342   0.625   1.223   0.834  0.0243 -0.2145  1.4105
 1300SOL     OW 4343   2.779   5.436   1.806  0.2881  0.2859 -0.3592
 1300SOL    HW1 4344   2.723   5.361   1.787  0.3034  0.1411  0.1717
 1300SOL    HW2 4345   2.833   5.409   1.880 -1.3612  1.6392  1.4455
 1301SOL     OW 4346   5.853   5.703   1.991 -0.4478  0.0601  0.6126
 1301SOL    HW1 4347   5.899   5.787   1.991 -0.1059 -0.1256  0.9609
 1301SOL    HW2 4348   5.890   5.655   2.065  0.2424 -0.8768 -0.2954
 1302SOL     OW 4349   3.635   0.897   2.008  0.0581 -0.2621 -0.4652
 1302SOL    HW1 4350   3.567   0.874   1.944 -0.2549  1.7195 -0.8873
 1302SOL    HW2 4351   3.717   0.881   1.962 -0.1646  0.8811 -1.3074
 1303SOL     OW 4352   2.426   5.622   2.276  0.1119 -0.4853 -0.9352
 1303SOL    HW1 4353   2.503   5.591   2.323 -0.4083 -0.2007  0.1330
 1303SOL    HW2 4354   2.366   5.652   2.345 -1.8524 -2.6694 -1.5478
 1304SOL     OW 4355   5.533   4.194   5.361  0.0842 -0.1426  0.1773
 1304SOL    HW1 4356   5.571   4.126   5.417  2.8076  2.5100  1.7996
 1304SOL    HW2 4357   5.546   4.275   5.409 -2.0653  1.7274 -2.1510
 1305SOL     OW 4358   3.958   2.823   5.847 -0.4295 -0.1712 -0.0728
 1305SOL    HW1 4359   4.029   2.785   5.794 -0.1075  0.4801 -0.1245
 1305SOL    HW2 4360   3.923   2.893   5.793  0.4491  1.0595  0.8677
 1306SOL     OW 4361   1.722   1.450   2.455 -0.1666  0.1545  0.0767
 1306SOL    HW1 4362   1.816   1.433   2.454  0.1125  1.5429 -1.3133
 1306SOL    HW2 4363   1.684   1.374   2.499  1.3447 -1.8979 -1.9532
 1307SOL     OW 4364   2.400   4.106   0.434  0.2940  0.2703  0.1780
 1307SOL    HW1 4365   2.307   4.129   0.443  0.4348  0.4546  1.3259
 1307SOL    HW2 4366   2.421   4.060   0.516  0.6556 -1.7730 -0.9861
 1308SOL     OW 4367   1.019   1.682   0.527  0.7233 -0.0570  0.0813
 1308SOL    HW1 4368   0.971   1.717   0.452  1.9810 -2.3105 -1.9269
 1308SOL    HW2 4369   0.966   1.607   0.556  0.8961  0.0184  0.6002
 1309SOL     OW 4370   6.090   4.931   0.945 -0.2972 -0.0297  0.8421
 1309SOL    HW1 4371   6.079   5.026   0.950  0.6497  0.0499  1.6893
 1309SOL    HW2 4372   6.087   4.911   0.852 -0.7175  0.7977  0.6674
 1310SOL     OW 4373   2.790   2.183   6.081  0.2897  0.7361 -0.1277
 1310SOL    HW1 4374   2.788   2.221   5.993 -0.4009  3.3471  0.9265
 1310SOL    HW2 4375   2.883   2.168   6.098  0.4689  0.6726 -1.1045
 1311SOL     OW 4376   1.851   3.668   2.688  0.0733  0.6721 -0.3409
 1311SOL    HW1 4377   1.940   3.660   2.723 -0.0470  2.6556  0.5967
 1311SOL    HW2 4378   1.857   3.633   2.599  1.3933 -0.7099  0.2485
 1312SOL     OW 4379   2.411   3.641   0.828  0.3132  0.0018 -0.5660
 1312SOL    HW1 4380   2.466   3.671   0.900 -0.0200 -1.7334  0.4630
 1312SOL    HW2 4381   2.472   3.625   0.756  0.8138  0.4681 -0.2523
 1313SOL     OW 4382   0.447   6.086   4.758 -0.1996  0.1220  0.2571
 1313SOL    HW1 4383   0.438   6.108   4.665 -0.0932 -0.1801  0.1737
 1313SOL    HW2 4384   0.458   5.990   4.759 -0.4166  0.1003  0.5945
 1314SOL     OW 4385   1.803   3.860   0.724  0.0290 -0.5515  0.0997
 1314SOL    HW1 4386   1.727   3.802   0.719  0.6870 -1.2812 -2.9765
 1314SOL    HW2 4387   1.864   3.826   0.660  2.0589  1.3557  0.8971
 1315SOL     OW 4388   4.638   1.304   0.624  0.2131 -1.1355  0.2510
 1315SOL    HW1 4389   4.565   1.319   0.564  1.8002  1.7453 -1.1349
 1315SOL    HW2 4390   4.628   1.372   0.691  1.6694 -0.6366 -0.0214
 1316SOL     OW 4391   1.510   4.544   2.584  0.4153  0.1904 -0.4276
 1316SOL    HW1 4392   1.484   4.455   2.609 -1.2481  0.4632 -1.1126
 1316SOL    HW2 4393   1.461   4.562   2.504  0.5497  1.8231 -0.1681
 1317SOL     OW 4394   1.599   4.253   2.428  0.6157  0.1917  0.4760
 1317SOL    HW1 4395   1.612   4.195   2.503  1.2971 -0.0761  0.1651
 1317SOL    HW2 4396   1.655   4.328   2.446  0.2713  0.4328  0.5453
 1318SOL     OW 4397   4.500   4.778   4.293 -0.5231  0.3521 -0.1100
 1318SOL    HW1 4398   4.583   4.754   4.335 -1.6131 -1.6573  1.0633
 1318SOL    HW2 4399   4.520   4.858   4.245  2.0638  0.0039  0.2202
 1319SOL     OW 4400   5.858   2.907   5.203  0.6172 -0.0143 -0.0400
 1319SOL    HW1 4401   5.856   2.951   5.288 -2.1354 -2.1642  1.1632
 1319SOL    HW2 4402   5.812   2.967   5.144 -1.6626 -0.4223  1.1910
 1320SOL     OW 4403   4.782   5.600   3.001 -0.5617 -0.3538 -0.4774
 1320SOL    HW1 4404   4.762   5.658   3.074  0.9771 -1.0637  0.5645
 1320SOL    HW2 4405   4.810   5.659   2.931  1.4263  0.2011  0.7100
 1321SOL     OW 4406   0.896   3.278   0.422  0.4034 -0.1195 -0.1317
 1321SOL    HW1 4407   0.954   3.272   0.346  1.5688  1.6977  0.5428
 1321SOL    HW2 4408   0.942   3.336   0.483 -0.9752 -0.6789  1.5279
 1322SOL     OW 4409   4.508   2.273   1.505  0.3129 -0.3805  0.4934
 1322SOL    HW1 4410   4.544   2.254   1.591  3.8720 -1.9977 -1.1315
 1322SOL    HW2 4411   4.565   2.226   1.444 -0.6119  2.4395 -2.9163
 1323SOL     OW 4412   1.650   3.925   2.131  0.2933  0.1395  0.5313
 1323SOL    HW1 4413   1.656   4.009   2.175  0.1404 -0.0782  0.9684
 1323SOL    HW2 4414   1.718   3.928   2.064 -1.8901  1.9911 -1.8057
 1324SOL     OW 4415   3.601   0.146   3.156  0.0886  0.6791 -0.2871
 1324SOL    HW1 4416   3.644   0.092   3.090  1.6454  1.3413  0.1387
 1324SOL    HW2 4417   3.543   0.204   3.107 -0.2703 -0.1866 -0.8911
 1325SOL     OW 4418   1.723   2.112   0.655 -0.3514  0.3303  0.0106
 1325SOL    HW1 4419   1.819   2.108   0.659 -0.3822 -0.7482  0.1105
 1325SOL    HW2 4420   1.702   2.074   0.570 -0.7048  0.1309  0.1866
 1326SOL     OW 4421   2.858   5.730   0.427  0.1138  0.1240  0.2441
 1326SOL    HW1 4422   2.797   5.661   0.400 -0.4540  0.4729  0.6112
 1326SOL    HW2 4423   2.923   5.685   0.480  0.4540 -0.3365 -0.5385
 1327SOL     OW 4424   5.797   0.496   0.355 -0.2568 -0.1153 -0.6332
 1327SOL    HW1 4425   5.776   0.511   0.447  1.3525  0.8750 -0.3881
 1327SOL    HW2 4426   5.859   0.424   0.355 -1.1504 -0.9104 -1.0735
 1328SOL     OW 4427   5.621   2.334   1.118  0.3352  0.8832 -0.3835
 1328SOL    HW1 4428   5.612   2.408   1.059  1.7697 -0.4019 -2.3445
 1328SOL    HW2 4429   5.534   2.293   1.118  0.0016  1.5756 -0.6524
 1329SOL     OW 4430   3.432   1.702   4.819 -0.1286  0.0754 -0.0335
 1329SOL    HW1 4431   3.439   1.770   4.886 -0.3851  0.7000 -0.6184
 1329SOL    HW2 4432   3.353   1.653   4.842 -0.6269  0.7414 -0.2647
 1330SOL     OW 4433   3.106   4.281   2.177  0.4325  0.2361  0.0198
 1330SOL    HW1 4434   3.107   4.193   2.140  1.9782  0.5026 -0.6679
 1330SOL    HW2 4435   3.017   4.313   2.162  0.4451 -0.4344 -1.6313
 1331SOL     OW 4436   4.322   1.083   6.020 -0.0735 -0.1476 -0.0197
 1331SOL    HW1 4437   4.327   1.159   5.962  0.8163 -0.9582 -1.0267
 1331SOL    HW2 4438   4.375   1.109   6.096 -0.8893  0.7485  0.2640
 1332SOL     OW 4439   0.723   4.575   5.895 -0.4534 -0.2289 -0.4729
 1332SOL    HW1 4440   0.793   4.550   5.835 -0.5341 -1.8363  0.0414
 1332SOL    HW2 4441   0.675   4.493   5.911 -0.7286  0.2503  1.3873
 1333SOL     OW 4442   5.919   1.442   5.527 -0.1202  0.4477 -0.0678
 1333SOL    HW1 4443   5.937   1.505   5.458 -0.7112 -0.1718 -0.8072
 1333SOL    HW2 4444   5.855   1.382   5.489  0.5883 -0.7312  0.5456
 1334SOL     OW 4445   5.495   5.355   5.790 -0.0510 -0.2699  0.1885
 1334SOL    HW1 4446   5.416   5.408   5.783  0.3321  0.3658  0.5528
 1334SOL    HW2 4447   5.464   5.268   5.816 -0.7284 -0.3715 -0.8800
 1335SOL     OW 4448   4.681   3.889   4.888 -0.0822 -0.5590  0.0920
 1335SOL    HW1 4449   4.636   3.825   4.943  0.7183 -1.1440  0.0812
 1335SOL    HW2 4450   4.774   3.874   4.904  0.1412 -0.0451 -0.6437
 1336SOL     OW 4451   3.201   4.709   1.398 -0.9624  1.0185 -0.1780
 1336SOL    HW1 4452   3.130   4.773   1.389  0.1767  2.2755 -0.6013
 1336SOL    HW2 4453   3.262   4.750   1.459 -0.2144  0.3295 -0.4460
 1337SOL     OW 4454   4.319   4.763   2.507 -0.6208 -0.5259  0.1216
 1337SOL    HW1 4455   4.415   4.761   2.502 -0.5774 -1.9255  1.0441
 1337SOL    HW2 4456   4.298   4.855   2.521  0.4210  0.1886 -2.5443
 1338SOL     OW 4457   0.302   5.254   5.915  0.2642  0.0935  0.1551
 1338SOL    HW1 4458   0.297   5.335   5.864  0.4549  0.7348  1.1265
 1338SOL    HW2 4459   0.230   5.261   5.978 -0.8792 -1.3498 -0.9255
 1339SOL     OW 4460   0.305   4.935   5.445 -0.0035 -0.2990  0.5120
 1339SOL    HW1 4461   0.287   5.000   5.514  1.2211  2.0170 -1.2247
 1339SOL    HW2 4462   0.252   4.963   5.371 -0.6613 -2.2660  0.1808
 1340SOL     OW 4463   0.178   3.339   1.037 -0.0653  0.0994 -0.3197
 1340SOL    HW1 4464   0.212   3.276   0.974 -1.5598 -1.0093 -0.0765
 1340SOL    HW2 4465   0.110   3.386   0.989 -0.3898  0.0787  0.1164
 1341SOL     OW 4466   3.447   5.241   4.144  0.2169  0.2452  0.0118
 1341SOL    HW1 4467   3.365   5.268   4.104 -0.1959  1.2565  1.4440
 1341SOL    HW2 4468   3.481   5.173   4.086 -1.5594 -0.1156 -0.6753
 1342SOL     OW 4469   1.570   3.361   4.214  0.8327  0.3416  0.0490
 1342SOL    HW1 4470   1.627   3.296   4.255 -0.1135 -0.9704 -0.6370
 1342SOL    HW2 4471   1.484   3.347   4.255  0.2050 -0.0453 -1.3622
 1343SOL     OW 4472   5.717   0.051   3.352 -0.2523 -0.0471 -0.5709
 1343SOL    HW1 4473   5.750  -0.039   3.357 -1.6725 -0.6257 -1.0358
 1343SOL    HW2 4474   5.778   0.096   3.293  0.6067 -0.6398 -0.1434
 1344SOL     OW 4475   3.429   5.042   3.460  0.7285 -0.1662  0.0412
 1344SOL    HW1 4476   3.381   5.024   3.541  1.2960  1.2062  0.7244
 1344SOL    HW2 4477   3.477   4.961   3.441  0.0025 -0.7483  0.6579
 1345SOL     OW 4478   1.512   3.235   2.744 -0.6516 -0.1133 -0.4107
 1345SOL    HW1 4479   1.527   3.284   2.825 -1.2430 -1.0888  0.3132
 1345SOL    HW2 4480   1.440   3.281   2.702  0.3198  1.0051 -0.9172
 1346SOL     OW 4481   2.019   2.656   2.467 -0.0903 -0.2473  0.0375
 1346SOL    HW1 4482   2.105   2.678   2.502  0.2304  0.7137 -1.2445
 1346SOL    HW2 4483   1.960   2.719   2.508 -0.1245 -0.6694  0.6407
 1347SOL     OW 4484   0.868   5.497   0.372 -0.1626 -0.4173  0.0155
 1347SOL    HW1 4485   0.821   5.421   0.340  0.3690  0.2515 -2.5531
 1347SOL    HW2 4486   0.871   5.558   0.298  0.5812  1.5599  1.5571
 1348SOL     OW 4487   1.068   5.478   1.634 -0.5454 -0.2575  0.7577
 1348SOL    HW1 4488   1.092   5.387   1.612 -1.8826 -0.4687  0.0759
 1348SOL    HW2 4489   1.108   5.493   1.719 -0.7770 -1.6871  1.1421
 1349SOL     OW 4490   5.637   4.964   2.197  0.5880  0.6416 -0.4764
 1349SOL    HW1 4491   5.628   5.054   2.166  2.3571  0.0477 -3.0864
 1349SOL    HW2 4492   5.548   4.932   2.206 -0.0561  2.0845 -1.3629
 1350SOL     OW 4493   1.874   1.375   5.920  0.2851 -0.0503 -0.3630
 1350SOL    HW1 4494   1.880   1.339   6.009 -0.4079 -1.0342 -0.6916
 1350SOL    HW2 4495   1.888   1.469   5.931  0.9648 -0.2543  0.6900
 1351SOL     OW 4496   2.632   1.731   1.645  0.3335 -0.1684  0.4670
 1351SOL    HW1 4497   2.715   1.694   1.673  0.1341 -2.6422 -1.7631
 1351SOL    HW2 4498   2.580   1.737   1.725  1.0646 -3.0992  1.2859
 1352SOL     OW 4499   0.992   1.123   2.128  0.1374  0.4060 -0.1585
 1352SOL    HW1 4500   1.066   1.161   2.176 -0.8987  1.6695  0.4774
 1352SOL    HW2 4501   1.012   1.029   2.126  2.1208  0.7817 -0.6561
 1353SOL     OW 4502   4.819   4.063   3.047 -0.0864 -0.3566 -0.2716
 1353SOL    HW1 4503   4.830   4.130   3.115  1.8998 -2.2882  1.4745
 1353SOL    HW2 4504   4.728   4.035   3.055 -0.2114  0.2844  0.7933
 1354SOL     OW 4505   0.921   3.728   1.718  0.6494  0.0675 -0.4675
 1354SOL    HW1 4506   0.889   3.638   1.710  0.2983  0.0748  0.7137
 1354SOL    HW2 4507   0.905   3.752   1.809 -0.1810  1.6789 -0.9971
 1355SOL     OW 4508   2.788   6.120   1.595  0.1877 -0.3097  0.8252
 1355SOL    HW1 4509   2.854   6.107   1.663  1.7543  0.7146 -0.4374
 1355SOL    HW2 4510   2.747   6.203   1.617  1.5505  0.6434 -0.1153
 1356SOL     OW 4511   1.353   2.496   0.679 -0.0359  0.6130  0.1205
 1356SOL    HW1 4512   1.429   2.439   0.667 -0.9655 -0.9502  1.2366
 1356SOL    HW2 4513   1.357   2.558   0.606  1.9993  0.2375 -0.1294
 1357SOL     OW 4514   3.245   4.305   3.447 -0.2472 -0.3376 -0.2095
 1357SOL    HW1 4515   3.291   4.335   3.525  0.2743 -0.9057 -0.2889
 1357SOL    HW2 4516   3.168   4.259   3.481 -1.5562  1.7958 -0.1017
 1358SOL     OW 4517   0.135   3.989   2.365  0.3577 -1.0016  0.9873
 1358SOL    HW1 4518   0.121   3.986   2.271 -0.6576 -2.5644  1.1559
 1358SOL    HW2 4519   0.065   4.047   2.397  0.4510 -0.7957  0.8191
 1359SOL     OW 4520   0.696   5.092   4.231  0.2487  0.5031 -0.2468
 1359SOL    HW1 4521   0.787   5.069   4.245  0.0135 -1.3639 -1.4278
 1359SOL    HW2 4522   0.698   5.183   4.199  1.6044  0.7428  0.4762
 1360SOL     OW 4523   1.307   4.964   0.411 -0.1811  0.6386 -0.6398
 1360SOL    HW1 4524   1.241   4.951   0.479 -0.1397 -3.2965 -1.1482
 1360SOL    HW2 4525   1.385   4.921   0.444  0.1351 -0.5244 -2.7094
 1361SOL     OW 4526   1.645   1.963   0.452 -0.2929  0.0491 -0.5201
 1361SOL    HW1 4527   1.644   1.885   0.507 -0.4143 -0.0147 -0.6118
 1361SOL    HW2 4528   1.640   1.928   0.362 -1.7488  0.2071 -0.5256
 1362SOL     OW 4529   0.261   4.141   1.497 -0.6508  0.5641 -0.5136
 1362SOL    HW1 4530   0.335   4.195   1.526  1.0503 -1.6714 -0.3664
 1362SOL    HW2 4531   0.184   4.183   1.535  0.7185  2.1197  0.6868
 1363SOL     OW 4532   0.778   1.901   3.466 -0.1353 -0.1718  0.1689
 1363SOL    HW1 4533   0.715   1.945   3.410 -0.0448 -1.1249 -0.7109
 1363SOL    HW2 4534   0.736   1.818   3.489  0.6349 -0.6643 -0.1377
 1364SOL     OW 4535   1.535   5.781   3.604  0.0690 -0.3377  0.0900
 1364SOL    HW1 4536   1.542   5.690   3.635 -0.7982 -0.8368 -1.0946
 1364SOL    HW2 4537   1.614   5.795   3.553  0.5543 -0.1680  0.8691
 1365SOL     OW 4538   4.478   5.848   0.635 -0.8057  0.3212  0.0450
 1365SOL    HW1 4539   4.468   5.810   0.723  0.3119 -2.1731 -0.8216
 1365SOL    HW2 4540   4.391   5.883   0.615 -1.9517 -1.8077  0.9556
 1366SOL     OW 4541   5.199   4.321   2.089 -0.2113  0.0489  0.2579
 1366SOL    HW1 4542   5.159   4.348   2.006  0.8128 -0.0046 -0.2760
 1366SOL    HW2 4543   5.172   4.230   2.101  0.7008 -0.3605 -0.6998
 1367SOL     OW 4544   1.615   3.887   0.456  0.0378  0.2198  0.1965
 1367SOL    HW1 4545   1.601   3.946   0.382  0.1633  0.4094  0.3232
 1367SOL    HW2 4546   1.609   3.943   0.533 -1.2733 -0.1706  0.4004
 1368SOL     OW 4547   1.362   2.735   2.819  0.2751  0.4024 -0.2690
 1368SOL    HW1 4548   1.416   2.670   2.864 -0.9691 -0.4146  0.0990
 1368SOL    HW2 4549   1.341   2.800   2.887 -1.3623 -0.6788  0.3244
 1369SOL     OW 4550   4.735   5.181   2.703 -0.1714 -0.6646 -0.0823
 1369SOL    HW1 4551   4.739   5.089   2.729 -1.5506 -1.0446 -1.0716
 1369SOL    HW2 4552   4.715   5.179   2.609  0.8653  0.6534 -0.3705
 1370SOL     OW 4553   2.548   0.609   0.183 -0.1268  0.5251  0.2334
 1370SOL    HW1 4554   2.624   0.628   0.237  1.0022 -1.7903 -0.4156
 1370SOL    HW2 4555   2.573   0.637   0.095  0.0742 -0.4327 -0.0197
 1371SOL     OW 4556   2.469   0.787   4.045  0.3300 -0.1235 -0.5839
 1371SOL    HW1 4557   2.415   0.731   3.988  0.1256  2.2528 -2.9198
 1371SOL    HW2 4558   2.559   0.762   4.024  0.3130  1.4915 -2.9874
 1372SOL     OW 4559   3.617   2.544   4.050 -0.0187 -0.4031  0.5383
 1372SOL    HW1 4560   3.573   2.472   4.005  0.8828 -0.4663 -0.2768
 1372SOL    HW2 4561   3.552   2.613   4.057 -0.3661 -0.6475 -0.2697
 1373SOL     OW 4562   0.021   4.349   3.635 -0.7413 -0.1127  0.2337
 1373SOL    HW1 4563  -0.039   4.311   3.699 -1.6784  0.3089 -0.3775
 1373SOL    HW2 4564   0.064   4.274   3.594  0.2754 -0.3775  1.7108
 1374SOL     OW 4565   1.038   3.069   1.619 -0.2597 -0.1735 -0.1216
 1374SOL    HW1 4566   1.082   3.151   1.595 -0.7742  0.1368 -0.0395
 1374SOL    HW2 4567   0.994   3.089   1.702  0.9108 -1.0209  0.7244
 1375SOL     OW 4568   5.714   0.420   4.218 -0.3173  0.6100 -0.0772
 1375SOL    HW1 4569   5.621   0.398   4.221 -0.2324  0.1638 -0.6304
 1375SOL    HW2 4570   5.717   0.505   4.174 -0.3887  0.1096 -1.0845
 1376SOL     OW 4571   3.035   4.785   4.348  0.6009 -0.0081 -0.4760
 1376SOL    HW1 4572   2.991   4.834   4.416 -0.1773  0.1910 -1.1132
 1376SOL    HW2 4573   3.126   4.815   4.352  0.1010  1.6992 -1.0229
 1377SOL     OW 4574   4.195   4.131   0.397 -0.1082 -0.5064 -0.5332
 1377SOL    HW1 4575   4.225   4.050   0.356  3.9558  0.2045  0.6588
 1377SOL    HW2 4576   4.218   4.200   0.335 -1.0091 -0.0062 -0.3342
 1378SOL     OW 4577   1.554   3.098   5.779 -0.1732 -0.1176 -0.3576
 1378SOL    HW1 4578   1.590   3.157   5.845 -1.1994 -0.3439  0.4324
 1378SOL    HW2 4579   1.560   3.011   5.818  0.9890 -0.5115 -1.3646
 1379SOL     OW 4580   1.227   4.434   4.206 -0.4700 -0.0693 -0.2569
 1379SOL    HW1 4581   1.285   4.366   4.171 -0.1632 -0.3075  0.7078
 1379SOL    HW2 4582   1.243   4.509   4.149  1.1143  0.0007  0.2447
 1380SOL     OW 4583   3.344   2.886   5.452 -0.5598 -0.2170  0.2961
 1380SOL    HW1 4584   3.336   2.791   5.464 -2.0550  0.1132  2.5212
 1380SOL    HW2 4585   3.265   2.910   5.404 -0.0395 -0.1176 -0.5193
 1381SOL     OW 4586   3.520   5.705   6.082  0.3494  0.4190 -0.0954
 1381SOL    HW1 4587   3.505   5.636   6.017  2.9257  0.4506 -0.8258
 1381SOL    HW2 4588   3.501   5.786   6.035 -0.3461  0.3482  0.0408
 1382SOL     OW 4589   5.684   2.853   1.148 -0.2247 -0.1388  0.3009
 1382SOL    HW1 4590   5.732   2.883   1.226  0.0665 -1.2590  0.5675
 1382SOL    HW2 4591   5.752   2.843   1.082 -0.3011 -0.3664  0.2590
 1383SOL     OW 4592   1.141   1.662   3.744 -0.9004  0.0092 -0.1746
 1383SOL    HW1 4593   1.068   1.679   3.685 -1.4479  1.0981  0.7956
 1383SOL    HW2 4594   1.208   1.622   3.688 -1.5250  0.7111 -1.4537
 1384SOL     OW 4595   5.949   0.110   5.826  0.4381  0.0812  0.3697
 1384SOL    HW1 4596   5.997   0.070   5.898  0.1640 -0.6569  0.1474
 1384SOL    HW2 4597   5.985   0.070   5.747  1.3306  1.4945  0.0061
 1385SOL     OW 4598   4.167   0.863   4.437 -0.1880  0.0362 -0.3490
 1385SOL    HW1 4599   4.139   0.854   4.345  0.7804 -1.8810 -0.5109
 1385SOL    HW2 4600   4.261   0.846   4.435 -0.4109 -1.7947  1.1755
 1386SOL     OW 4601   1.272   3.511   5.789 -0.1024  0.0223  0.0714
 1386SOL    HW1 4602   1.259   3.423   5.755 -0.6128 -0.1850  0.7851
 1386SOL    HW2 4603   1.330   3.500   5.865  0.8349  0.4541 -0.5550
 1387SOL     OW 4604   3.599   3.940   4.633  0.3003 -0.2281  0.1258
 1387SOL    HW1 4605   3.587   4.035   4.629  0.1871 -0.2451  0.0287
 1387SOL    HW2 4606   3.621   3.915   4.543 -0.9670 -0.4564 -0.1414
 1388SOL     OW 4607   0.168   0.332   2.588  0.0864 -0.0710  0.4331
 1388SOL    HW1 4608   0.140   0.407   2.537 -2.6750 -1.2654  0.0040
 1388SOL    HW2 4609   0.251   0.305   2.549 -0.5559  0.7448 -1.6133
 1389SOL     OW 4610   3.334   1.906   1.947 -0.1448  0.3433 -0.7963
 1389SOL    HW1 4611   3.402   1.934   1.885  1.8614  1.2532  1.6425
 1389SOL    HW2 4612   3.346   1.811   1.955  3.1682  0.8118  1.9385
 1390SOL     OW 4613   4.969   3.589   3.947 -0.2111  0.9899  0.7674
 1390SOL    HW1 4614   5.030   3.548   3.885 -1.1608 -1.2953  1.2568
 1390SOL    HW2 4615   4.914   3.645   3.892 -0.3776 -0.1948 -0.3267
 1391SOL     OW 4616   5.696   4.516   4.138 -0.2092  0.3154 -0.3526
 1391SOL    HW1 4617   5.745   4.591   4.172 -0.9219  0.2386  0.8786
 1391SOL    HW2 4618   5.651   4.550   4.061 -0.6030  1.1924  0.2459
 1392SOL     OW 4619   6.065   4.322   2.141 -0.2105 -0.2873  0.1147
 1392SOL    HW1 4620   6.022   4.327   2.226 -1.0266 -1.5419 -0.2038
 1392SOL    HW2 4621   6.049   4.233   2.110  1.2861 -0.2981 -0.7328
 1393SOL     OW 4622   5.514   6.084   4.050  0.2356 -0.1323  0.0400
 1393SOL    HW1 4623   5.567   6.039   3.983 -0.0650 -2.2449  1.1253
 1393SOL    HW2 4624   5.426   6.086   4.012  0.4949  0.7061 -0.5388
 1394SOL     OW 4625   3.245   5.464   6.111 -0.0623  0.2959  0.3326
 1394SOL    HW1 4626   3.283   5.378   6.126 -0.6584 -0.0003  0.1601
 1394SOL    HW2 4627   3.256   5.480   6.017 -1.4070 -0.3101  0.0464
 1395SOL     OW 4628   3.048   2.554   0.947  0.4618 -0.0225 -0.3290
 1395SOL    HW1 4629   2.975   2.524   0.892 -2.9015  1.1793  3.0298
 1395SOL    HW2 4630   3.085   2.474   0.984 -0.5127 -0.6068 -0.5691
 1396SOL     OW 4631   4.207   3.193   5.050 -0.1287 -0.7335 -0.1117
 1396SOL    HW1 4632   4.177   3.158   5.135 -1.0533 -1.7610 -0.8332
 1396SOL    HW2 4633   4.241   3.280   5.071  1.6924 -1.7673  1.6745
 1397SOL     OW 4634   3.410   1.974   3.111 -0.4510  0.1835  0.4193
 1397SOL    HW1 4635   3.346   1.905   3.129 -0.8484  0.0265 -1.3915
 1397SOL    HW2 4636   3.464   1.938   3.041  1.3635  0.5091  1.5766
 1398SOL     OW 4637   1.991   5.274   1.488 -0.7558 -0.0609 -0.1175
 1398SOL    HW1 4638   2.025   5.185   1.487  0.6384  0.4529 -0.6058
 1398SOL    HW2 4639   1.933   5.279   1.412  0.3413 -0.1279 -0.9743
 1399SOL     OW 4640   4.667   0.649   6.032 -0.1137  0.2737  0.2541
 1399SOL    HW1 4641   4.643   0.676   6.121  0.8348  1.4187  0.1816
 1399SOL    HW2 4642   4.761   0.663   6.026 -0.0891 -0.1979 -0.8014
 1400SOL     OW 4643   5.326   3.458   0.229 -0.1073  0.1721 -0.0464
 1400SOL    HW1 4644   5.246   3.504   0.255  0.0910  0.7985 -0.5299
 1400SOL    HW2 4645   5.297   3.397   0.161 -0.5447 -1.1436  1.2842
 1401SOL     OW 4646   4.399   0.713   2.489  0.7005  0.1889 -0.3566
 1401SOL    HW1 4647   4.311   0.677   2.484  0.6628  0.0291  1.1260
 1401SOL    HW2 4648   4.457   0.638   2.480  0.6931  0.2532 -1.0008
 1402SOL     OW 4649   3.782   2.143   5.817 -0.0959 -0.6569 -0.5586
 1402SOL    HW1 4650   3.752   2.061   5.858  2.3052 -1.8421 -1.0016
 1402SOL    HW2 4651   3.862   2.119   5.771  0.8435  2.0274 -0.4912
 1403SOL     OW 4652   5.641   0.652   0.181 -0.7063 -0.2999 -0.3919
 1403SOL    HW1 4653   5.609   0.570   0.143 -0.7421 -0.0813 -0.8400
 1403SOL    HW2 4654   5.677   0.627   0.266  1.9678 -1.2863 -1.7168
 1404SOL     OW 4655   4.352   3.402   5.363  0.1891  0.0906  0.1150
 1404SOL    HW1 4656   4.408   3.466   5.406  0.1404 -0.6148  1.2656
 1404SOL    HW2 4657   4.267   3.412   5.406 -0.0627 -0.1260 -0.3266
 1405SOL     OW 4658   5.214   0.935   6.012 -0.0244 -0.0282  0.1178
 1405SOL    HW1 4659   5.270   0.969   5.941  1.5024  0.1597  1.3599
 1405SOL    HW2 4660   5.275   0.913   6.082 -1.4541 -0.7146  1.1937
 1406SOL     OW 4661   1.185   0.640   2.929  0.1746 -0.7021 -0.3909
 1406SOL    HW1 4662   1.090   0.636   2.940  0.1663 -0.7459 -0.4762
 1406SOL    HW2 4663   1.217   0.561   2.972  0.0676 -1.3501 -1.4552
 1407SOL     OW 4664   1.186   2.597   5.452  0.1479 -0.1225 -0.2843
 1407SOL    HW1 4665   1.276   2.627   5.450 -0.3361  1.6292  1.1132
 1407SOL    HW2 4666   1.139   2.665   5.500 -1.8340 -1.2066 -0.5607
 1408SOL     OW 4667   4.149   2.807   5.160  0.0136  0.2944  0.0065
 1408SOL    HW1 4668   4.158   2.740   5.092  1.0515  0.2301  0.1910
 1408SOL    HW2 4669   4.134   2.758   5.241  2.4300  0.1325  0.4416
 1409SOL     OW 4670   4.223   1.887   6.056 -0.2435 -0.4024 -0.0684
 1409SOL    HW1 4671   4.290   1.924   5.999  1.3683 -0.6797  1.5618
 1409SOL    HW2 4672   4.183   1.964   6.098 -1.6514 -0.1793 -1.7348
 1410SOL     OW 4673   1.933   3.297   2.942  0.2981  0.9274 -0.4936
 1410SOL    HW1 4674   1.906   3.276   2.853  0.6138  2.2192 -0.9195
 1410SOL    HW2 4675   2.017   3.343   2.932  1.1961 -0.4003  0.5916
 1411SOL     OW 4676   1.928   2.481   4.790  0.1187 -0.3607 -0.2274
 1411SOL    HW1 4677   1.937   2.549   4.724 -2.7534  1.0478  0.6458
 1411SOL    HW2 4678   1.998   2.498   4.853  0.3257  0.8816 -0.7805
 1412SOL     OW 4679   3.047   4.357   5.138 -0.1884  0.3514 -0.4990
 1412SOL    HW1 4680   3.005   4.404   5.210  0.3307  0.2919 -0.1472
 1412SOL    HW2 4681   2.996   4.277   5.129  0.0035  0.1517  0.1067
 1413SOL     OW 4682   2.548   2.623   0.557 -0.0090 -0.3673 -0.6598
 1413SOL    HW1 4683   2.513   2.706   0.525  0.5499  0.4300  0.7046
 1413SOL    HW2 4684   2.563   2.638   0.650  0.7166 -1.7967 -0.5246
 1414SOL     OW 4685   5.976   0.374   0.019 -0.8875  0.0819 -0.4992
 1414SOL    HW1 4686   6.013   0.350  -0.066 -0.5867 -1.7353  0.1025
 1414SOL    HW2 4687   5.888   0.338   0.018 -0.8912  0.0748 -0.0541
 1415SOL     OW 4688   3.979   2.638   5.375  0.2128  0.3060 -0.0223
 1415SOL    HW1 4689   4.007   2.585   5.449 -0.2172  0.3814  0.2005
 1415SOL    HW2 4690   3.895   2.675   5.402  2.4985  5.0161  1.8285
 1416SOL     OW 4691   0.689   1.603   3.916 -0.0531 -0.2842  0.3673
 1416SOL    HW1 4692   0.706   1.691   3.950 -0.5275 -0.0054 -0.0980
 1416SOL    HW2 4693   0.631   1.617   3.841 -0.9378 -1.0733  0.8830
 1417SOL     OW 4694   4.057   0.211   5.942 -0.0230 -1.0117  0.1994
 1417SOL    HW1 4695   4.000   0.282   5.972 -0.1912 -0.7393 -0.7271
 1417SOL    HW2 4696   4.083   0.237   5.854  2.5313 -0.5429  1.0271
 1418SOL     OW 4697   0.118   0.802   3.342 -0.9084  0.1393 -0.0646
 1418SOL    HW1 4698   0.105   0.709   3.361 -0.5320 -0.1853 -1.3125
 1418SOL    HW2 4699   0.030   0.835   3.324 -0.7807 -0.7718 -2.9013
 1419SOL     OW 4700   4.312   5.496   2.689 -0.5770  0.3707 -0.4274
 1419SOL    HW1 4701   4.362   5.542   2.621  0.2270 -2.0617 -1.6160
 1419SOL    HW2 4702   4.328   5.403   2.671 -0.1297 -0.4281  3.2821
 1420SOL     OW 4703   5.750   2.676   1.394 -0.1104 -0.1936  0.1006
 1420SOL    HW1 4704   5.809   2.722   1.335  0.1395 -3.4223 -2.4994
 1420SOL    HW2 4705   5.785   2.586   1.397 -4.0274 -1.9688 -0.5389
 1421SOL     OW 4706   5.807   4.731   0.709 -0.2527  0.1052  0.1369
 1421SOL    HW1 4707   5.895   4.696   0.722 -0.4769 -0.9998 -1.0999
 1421SOL    HW2 4708   5.749   4.657   0.728 -0.7162 -0.5803 -3.2597
 1422SOL     OW 4709   3.419   1.566   1.441 -0.1466  0.5899 -0.4122
 1422SOL    HW1 4710   3.506   1.590   1.408  0.4428  0.1635  0.7848
 1422SOL    HW2 4711   3.396   1.638   1.500  0.1080 -0.0580  0.4996
 1423SOL     OW 4712   2.891   3.063   3.647 -0.6381  0.4860  0.2631
 1423SOL    HW1 4713   2.974   3.086   3.689 -0.1899 -1.2479  0.4145
 1423SOL    HW2 4714   2.917   3.019   3.566 -1.4091  0.0778  0.2326
 1424SOL     OW 4715   3.455   4.027   1.622 -0.4119 -0.2872 -0.1410
 1424SOL    HW1 4716   3.546   4.033   1.651 -0.5417  0.0917  0.2118
 1424SOL    HW2 4717   3.451   4.081   1.543 -0.4442  0.1522  0.1534
 1425SOL     OW 4718   3.593   3.465   5.309  0.0248 -0.4776  0.2623
 1425SOL    HW1 4719   3.510   3.446   5.352  0.0405 -2.7599 -0.5731
 1425SOL    HW2 4720   3.587   3.420   5.225  3.2130 -3.3126  1.3551
 1426SOL     OW 4721   2.292   3.017   0.105 -0.2014  0.1252  0.0629
 1426SOL    HW1 4722   2.252   2.937   0.139 -0.5606  0.7512  1.1906
 1426SOL    HW2 4723   2.333   3.058   0.182  0.7590  0.5707 -0.6642
 1427SOL     OW 4724   3.475   0.051   2.699  0.4536  0.7411 -0.1321
 1427SOL    HW1 4725   3.509  -0.010   2.634 -3.4482 -1.3650 -0.5292
 1427SOL    HW2 4726   3.426   0.115   2.648 -0.2503  0.7704  0.5614
 1428SOL     OW 4727   4.234   6.042   2.854 -0.0739 -0.1687  0.5178
 1428SOL    HW1 4728   4.197   6.007   2.935 -0.4816 -0.1774  0.3336
 1428SOL    HW2 4729   4.283   5.969   2.817 -1.8667 -0.9617 -0.4466
 1429SOL     OW 4730   5.314   0.414   5.192 -0.0980 -0.0678 -0.6166
 1429SOL    HW1 4731   5.336   0.331   5.235 -1.0914  0.3144  0.6766
 1429SOL    HW2 4732   5.398   0.460   5.186  0.0111  0.0991  1.4378
 1430SOL     OW 4733   4.112   3.001   1.043  0.3402 -0.0899  0.3808
 1430SOL    HW1 4734   4.153   3.075   0.998  0.9147 -1.2904 -1.1646
 1430SOL    HW2 4735   4.022   3.001   1.012  0.2710  0.1238  0.5846
 1431SOL     OW 4736   5.242   1.772   5.849 -0.7267  0.1200 -0.1094
 1431SOL    HW1 4737   5.299   1.819   5.909  0.9248  0.0583 -1.5489
 1431SOL    HW2 4738   5.164   1.828   5.840 -2.0419 -0.8453  3.6268
 1432SOL     OW 4739   5.067   5.345   5.457 -1.7104 -0.1041  0.7181
 1432SOL    HW1 4740   5.159   5.320   5.466 -1.6880 -0.4174 -0.2711
 1432SOL    HW2 4741   5.043   5.380   5.543 -0.2343  1.4156  0.5556
 1433SOL     OW 4742   4.664   5.456   2.771 -0.4085 -0.3299  0.4341
 1433SOL    HW1 4743   4.653   5.477   2.863  0.8512 -1.3258  0.8492
 1433SOL    HW2 4744   4.664   5.361   2.768 -1.6487 -0.3232 -0.7826
 1434SOL     OW 4745   3.932   2.512   1.672  0.8861  0.0227 -0.5837
 1434SOL    HW1 4746   3.972   2.450   1.611 -1.8891 -3.6941  0.9667
 1434SOL    HW2 4747   3.853   2.542   1.627  0.7984  0.2785 -0.2619
 1435SOL     OW 4748   5.704   4.840   4.086  0.2758 -0.2867  0.4444
 1435SOL    HW1 4749   5.695   4.796   4.002  0.4957 -0.1457  0.3458
 1435SOL    HW2 4750   5.616   4.837   4.124 -0.1498  0.8810 -0.3947
 1436SOL     OW 4751   6.122   2.920   1.137 -0.1590 -0.0595 -0.3770
 1436SOL    HW1 4752   6.188   2.964   1.191  0.8159 -0.7226 -0.9909
 1436SOL    HW2 4753   6.093   2.988   1.076 -0.1377  0.2787 -0.0135
 1437SOL     OW 4754   2.984   0.646   3.769 -0.1391 -0.5944  0.3033
 1437SOL    HW1 4755   3.013   0.697   3.845  1.0647  0.5317 -0.8720
 1437SOL    HW2 4756   3.020   0.693   3.693 -1.9299 -1.2708 -1.0232
 1438SOL     OW 4757   4.857   4.991   4.337  0.5363 -0.3595  1.0165
 1438SOL    HW1 4758   4.835   4.899   4.320 -0.2108 -0.0770  0.3941
 1438SOL    HW2 4759   4.820   5.039   4.262 -1.4076  0.7495  2.6039
 1439SOL     OW 4760   1.281   1.653   4.973  0.1524  0.3588  0.4044
 1439SOL    HW1 4761   1.325   1.736   4.993  0.9949 -0.0069  0.1247
 1439SOL    HW2 4762   1.352   1.594   4.950 -0.6005  0.2379 -1.8711
 1440SOL     OW 4763   0.203   3.372   1.307  0.7938  0.6341  0.1613
 1440SOL    HW1 4764   0.175   3.356   1.217 -0.0766  3.6710 -0.2104
 1440SOL    HW2 4765   0.228   3.464   1.308 -0.9144  1.2042  3.4411
 1441SOL     OW 4766   4.591   4.222   0.950 -0.4991 -0.2764 -0.2981
 1441SOL    HW1 4767   4.520   4.272   0.989 -0.6873  0.8037 -1.9014
 1441SOL    HW2 4768   4.644   4.192   1.024 -1.4660  0.6540  0.8042
 1442SOL     OW 4769   1.286   4.278   3.706  0.2152 -0.6699  0.4356
 1442SOL    HW1 4770   1.262   4.216   3.774  0.3771 -0.5807  0.5769
 1442SOL    HW2 4771   1.230   4.354   3.721  1.3455 -0.0045  1.4692
 1443SOL     OW 4772   5.372   4.580   2.932 -0.8257 -0.3248  0.9640
 1443SOL    HW1 4773   5.278   4.585   2.950 -1.2730 -2.6018 -0.3843
 1443SOL    HW2 4774   5.414   4.615   3.010 -2.7803 -0.6212  2.1887
 1444SOL     OW 4775   1.953   0.822   1.646 -0.3584 -0.4686 -0.0175
 1444SOL    HW1 4776   2.043   0.851   1.632 -0.5340  0.2711  0.3379
 1444SOL    HW2 4777   1.933   0.846   1.737 -0.4517 -1.9048  0.3776
 1445SOL     OW 4778   4.488   3.295   5.998 -0.7857 -0.8026 -0.1466
 1445SOL    HW1 4779   4.424   3.239   5.955 -0.7732 -0.5552 -0.4903
 1445SOL    HW2 4780   4.540   3.236   6.052 -1.3414 -0.9966  0.1786
 1446SOL     OW 4781   3.889   5.861   0.929 -0.2033  0.4095  0.0556
 1446SOL    HW1 4782   3.943   5.784   0.942 -2.0329 -0.9991 -0.3274
 1446SOL    HW2 4783   3.918   5.897   0.845  0.4371 -0.0234  0.0873
 1447SOL     OW 4784   5.577   5.392   6.080 -0.1218  0.1214  0.0600
 1447SOL    HW1 4785   5.514   5.342   6.131 -0.4055 -0.5588 -0.9326
 1447SOL    HW2 4786   5.551   5.379   5.989  1.7914 -0.6513 -0.4275
 1448SOL     OW 4787   0.011   3.258   3.860  0.2709  0.4108  0.2026
 1448SOL    HW1 4788   0.088   3.229   3.909  0.0623  2.0403  1.5727
 1448SOL    HW2 4789  -0.063   3.233   3.915 -0.1100  0.2445 -0.3740
 1449SOL     OW 4790   1.994   5.522   1.054  1.1630  0.0358  0.0604
 1449SOL    HW1 4791   1.920   5.583   1.050  2.2396  1.4583  0.9329
 1449SOL    HW2 4792   1.953   5.437   1.070 -0.2870  0.8595  1.0318
 1450SOL     OW 4793   4.765   4.998   3.916 -0.2400 -0.0250 -0.0938
 1450SOL    HW1 4794   4.774   5.031   4.005 -1.8012  1.5952 -0.4800
 1450SOL    HW2 4795   4.686   4.944   3.919  1.1777 -2.2379  0.0571
 1451SOL     OW 4796   5.470   2.917   5.817  0.1945  0.3510 -0.8078
 1451SOL    HW1 4797   5.465   2.956   5.730 -2.4569 -0.7967 -1.2586
 1451SOL    HW2 4798   5.469   2.823   5.802 -0.1504  0.1304  0.4392
 1452SOL     OW 4799   5.611   1.015   1.370  0.0996  0.3124  0.3024
 1452SOL    HW1 4800   5.556   0.942   1.396  0.0547  0.1118 -0.3407
 1452SOL    HW2 4801   5.595   1.026   1.276  0.1104  1.1405  0.3854
 1453SOL     OW 4802   0.253   2.762   1.049 -0.0705 -0.1699 -1.0498
 1453SOL    HW1 4803   0.179   2.791   1.102  0.0534 -1.2925 -0.2244
 1453SOL    HW2 4804   0.330   2.777   1.104  0.6210  2.7900 -2.6008
 1454SOL     OW 4805   2.793   5.452   2.161  0.0745  0.0566  0.0234
 1454SOL    HW1 4806   2.832   5.501   2.234  3.0626 -1.1680 -0.5793
 1454SOL    HW2 4807   2.711   5.417   2.196 -0.4218  2.5032  1.5641
 1455SOL     OW 4808   2.292   2.263   1.255 -0.0964  0.1751 -0.5151
 1455SOL    HW1 4809   2.268   2.336   1.198  0.5528  0.5979 -0.2551
 1455SOL    HW2 4810   2.292   2.300   1.343  2.9074  0.6277 -0.6012
 1456SOL     OW 4811   0.777   1.227   5.735  0.2783  1.0695 -0.9268
 1456SOL    HW1 4812   0.758   1.215   5.641 -1.9972  1.2469 -0.5427
 1456SOL    HW2 4813   0.713   1.292   5.764  0.3092  0.3067  0.9628
 1457SOL     OW 4814   1.805   1.677   0.807  0.7248 -0.4798 -0.1203
 1457SOL    HW1 4815   1.840   1.686   0.719  0.6866 -0.6854 -0.1576
 1457SOL    HW2 4816   1.712   1.657   0.794  0.3096  1.2409 -0.0066
 1458SOL     OW 4817   2.575   4.849   4.565 -0.1270  0.0631  0.2016
 1458SOL    HW1 4818   2.603   4.940   4.552  0.1013 -0.1175 -0.6118
 1458SOL    HW2 4819   2.656   4.800   4.573 -0.2022 -0.3251 -1.2098
 1459SOL     OW 4820   1.058   5.843   5.281 -0.0450  0.1365  0.5724
 1459SOL    HW1 4821   1.135   5.831   5.224 -0.6454 -1.6917  0.0991
 1459SOL    HW2 4822   1.001   5.902   5.231  0.3081  0.1392  0.1639
 1460SOL     OW 4823   3.861   3.514   3.471 -0.5273 -0.2402  0.0503
 1460SOL    HW1 4824   3.926   3.562   3.523  0.0649 -0.1435 -0.7605
 1460SOL    HW2 4825   3.826   3.449   3.531  0.6205 -0.5633  0.4047
 1461SOL     OW 4826   0.888   2.808   5.429  0.4437  0.6953 -0.3357
 1461SOL    HW1 4827   0.812   2.831   5.483  0.6080  3.1524 -1.0211
 1461SOL    HW2 4828   0.950   2.770   5.491 -1.3109 -1.4932  0.2197
 1462SOL     OW 4829   3.246   3.987   3.691 -0.0593 -0.2062  0.4829
 1462SOL    HW1 4830   3.187   4.042   3.641 -1.0003 -0.4415  1.3216
 1462SOL    HW2 4831   3.311   4.048   3.727  0.2031  0.0551 -0.4020
 1463SOL     OW 4832   5.261   4.901   5.413 -0.5237 -0.1380  0.4865
 1463SOL    HW1 4833   5.327   4.966   5.440 -0.5622  0.5652 -1.0216
 1463SOL    HW2 4834   5.274   4.828   5.473 -0.4191  1.2081  2.2078
 1464SOL     OW 4835   1.753   1.216   4.469  0.4821 -0.4046  0.2594
 1464SOL    HW1 4836   1.697   1.284   4.507 -0.3967  1.0231 -3.1415
 1464SOL    HW2 4837   1.720   1.134   4.504 -3.4281  0.4119 -0.9735
 1465SOL     OW 4838   2.554   0.733   5.827 -0.5717 -0.1758 -0.2253
 1465SOL    HW1 4839   2.482   0.707   5.769 -0.2620 -0.2766 -0.5693
 1465SOL    HW2 4840   2.539   0.826   5.844  0.5953  0.4673 -2.3461
 1466SOL     OW 4841   1.278   4.042   6.079  0.8712  0.0527 -0.0749
 1466SOL    HW1 4842   1.324   4.035   5.996  1.9831 -1.1674  0.6069
 1466SOL    HW2 4843   1.304   4.128   6.113  1.4186  0.0302 -0.4225
 1467SOL     OW 4844   5.303   0.658   0.355 -0.3824  0.5023 -0.2996
 1467SOL    HW1 4845   5.340   0.607   0.283 -1.6799  2.6337 -2.6420
 1467SOL    HW2 4846   5.224   0.697   0.319 -0.5114  2.5872  1.9387
 1468SOL     OW 4847   3.529   0.195   2.253 -0.0147  0.3234 -0.0329
 1468SOL    HW1 4848   3.605   0.139   2.270 -0.3691 -0.1872 -0.0874
 1468SOL    HW2 4849   3.566   0.279   2.227  0.5315  0.2379  0.4521
 1469SOL     OW 4850   0.005   3.801   4.568 -0.0496 -0.4130 -0.1032
 1469SOL    HW1 4851  -0.087   3.788   4.546 -0.0033 -0.5966 -0.1894
 1469SOL    HW2 4852   0.041   3.846   4.492 -0.6914  2.2642  1.0401
 1470SOL     OW 4853   0.743   0.661   2.007 -0.2898  0.0463 -0.4690
 1470SOL    HW1 4854   0.742   0.755   2.028  0.3430 -0.2906  1.2617
 1470SOL    HW2 4855   0.672   0.624   2.060 -0.7712 -0.4110 -1.4193
 1471SOL     OW 4856   2.207   4.657   2.333 -0.0911 -0.3328 -0.7004
 1471SOL    HW1 4857   2.256   4.617   2.405 -3.0002 -2.0385  0.5316
 1471SOL    HW2 4858   2.175   4.740   2.369 -0.6659 -0.6926 -0.3599
 1472SOL     OW 4859   0.339   3.985   1.744 -1.0586 -0.1043 -0.1032
 1472SOL    HW1 4860   0.365   3.951   1.829 -0.5287  0.1349 -0.1641
 1472SOL    HW2 4861   0.245   4.000   1.752 -1.0298 -0.1722  0.4072
 1473SOL     OW 4862   0.550   4.316   5.764 -0.2039  0.2715 -0.4316
 1473SOL    HW1 4863   0.638   4.346   5.741  0.2277  0.0955  0.8850
 1473SOL    HW2 4864   0.561   4.276   5.850 -1.7219  0.9852  0.1276
 1474SOL     OW 4865   5.044   3.594   3.071 -0.2706  0.5529  0.2502
 1474SOL    HW1 4866   4.963   3.643   3.058 -0.0028  1.7067  2.4206
 1474SOL    HW2 4867   5.092   3.645   3.136  0.2543 -2.3071  2.2785
 1475SOL     OW 4868   0.511   5.114   2.509  0.1162 -0.2082  0.8064
 1475SOL    HW1 4869   0.586   5.054   2.502  0.8660  0.7701  0.1152
 1475SOL    HW2 4870   0.548   5.200   2.488 -1.1392  0.3450  0.8106
 1476SOL     OW 4871   1.397   2.324   3.088  0.4885 -0.0097 -0.2525
 1476SOL    HW1 4872   1.456   2.342   3.161  0.8613  2.1415 -1.0165
 1476SOL    HW2 4873   1.397   2.228   3.080  1.0035 -0.2677  2.0656
 1477SOL     OW 4874   4.775   4.275   5.093  0.8909  0.2655 -0.5594
 1477SOL    HW1 4875   4.685   4.305   5.104  0.3356 -1.0888 -1.1037
 1477SOL    HW2 4876   4.775   4.230   5.008  2.5082  1.6772 -1.3670
 1478SOL     OW 4877   6.082   5.120   5.708 -0.5207  0.0455 -0.0533
 1478SOL    HW1 4878   6.076   5.031   5.743 -0.0308  0.2730  0.6378
 1478SOL    HW2 4879   6.016   5.170   5.756 -1.7198 -0.2114 -1.3688
 1479SOL     OW 4880   2.845   3.458   4.126  0.1702 -0.1466  0.1895
 1479SOL    HW1 4881   2.755   3.486   4.145  0.2205 -0.3376  0.7098
 1479SOL    HW2 4882   2.880   3.528   4.070  0.5290  1.2337  2.0405
 1480SOL     OW 4883   2.128   4.999   1.546 -0.4706 -0.0543  0.5052
 1480SOL    HW1 4884   2.206   4.982   1.599 -0.8257  0.4861  1.2234
 1480SOL    HW2 4885   2.059   4.948   1.589 -0.6152 -0.1687  0.1426
 1481SOL     OW 4886   5.166   3.442   3.824  0.6999 -0.0202  0.0610
 1481SOL    HW1 4887   5.183   3.387   3.747  0.2154 -2.6104  1.6783
 1481SOL    HW2 4888   5.251   3.446   3.869  1.0910  1.8484 -0.7329
 1482SOL     OW 4889   0.018   1.923   4.706 -0.4218 -0.1715  0.0339
 1482SOL    HW1 4890  -0.047   1.854   4.691  0.8376 -1.5001  0.4798
 1482SOL    HW2 4891   0.086   1.907   4.641  0.5612 -0.2343  1.0440
 1483SOL     OW 4892   3.997   4.580   0.269  0.5799  0.3220 -0.0250
 1483SOL    HW1 4893   4.011   4.656   0.212  1.0914  0.7655  0.6807
 1483SOL    HW2 4894   3.937   4.524   0.219  1.9363  0.1301 -1.5251
 1484SOL     OW 4895   3.154   5.935   4.153 -0.4725  0.2584  0.4319
 1484SOL    HW1 4896   3.180   5.843   4.159  0.1178  0.4596  1.1455
 1484SOL    HW2 4897   3.116   5.955   4.239  2.1231  1.4672  1.4003
 1485SOL     OW 4898   0.284   0.508   4.073 -0.1280 -0.0229  0.5570
 1485SOL    HW1 4899   0.325   0.456   4.004 -1.9918 -1.3694  0.3739
 1485SOL    HW2 4900   0.321   0.475   4.155  0.3190 -0.0986  0.3239
 1486SOL     OW 4901   2.720   3.911   0.953 -0.0460 -0.1822  0.6947
 1486SOL    HW1 4902   2.686   3.841   1.009  1.1654 -0.6254  0.8918
 1486SOL    HW2 4903   2.713   3.990   1.007  1.3020 -0.6351  1.5872
 1487SOL     OW 4904   1.360   4.950   3.331 -0.0928  0.0346  0.5430
 1487SOL    HW1 4905   1.373   4.947   3.236 -0.5650  0.0877  0.4748
 1487SOL    HW2 4906   1.415   4.879   3.365  1.4414  1.1082  0.3991
 1488SOL     OW 4907   4.081   5.605   5.580 -0.5237 -0.8778 -0.3880
 1488SOL    HW1 4908   4.165   5.587   5.623 -0.7553 -0.0547  0.4337
 1488SOL    HW2 4909   4.102   5.611   5.487  0.3916 -0.3239 -0.1566
 1489SOL     OW 4910   2.668   5.060   6.001 -0.1278 -0.6424  0.1735
 1489SOL    HW1 4911   2.741   5.012   6.040  1.1060  1.5271  0.6440
 1489SOL    HW2 4912   2.702   5.093   5.918 -0.6241  0.2208  0.3004
 1490SOL     OW 4913   1.287   0.519   5.786  0.0747  0.0406  0.0955
 1490SOL    HW1 4914   1.204   0.535   5.829  0.4559  0.7133  0.6087
 1490SOL    HW2 4915   1.265   0.511   5.693 -0.7340 -1.2956  0.3833
 1491SOL     OW 4916   5.818   0.235   3.799 -0.1314 -0.3252 -0.2004
 1491SOL    HW1 4917   5.754   0.232   3.870  0.1109  0.8945  0.0913
 1491SOL    HW2 4918   5.780   0.296   3.735  0.4284 -0.1058 -0.3301
 1492SOL     OW 4919   4.855   3.765   4.473 -0.4328 -0.4880  0.1616
 1492SOL    HW1 4920   4.869   3.859   4.472  0.8167 -0.6192  1.8482
 1492SOL    HW2 4921   4.858   3.739   4.380  0.7995  0.9078 -0.2223
 1493SOL     OW 4922   5.384   5.406   5.299 -0.3777  0.1826  0.0803
 1493SOL    HW1 4923   5.467   5.368   5.271 -0.3166  0.7176 -0.4791
 1493SOL    HW2 4924   5.381   5.391   5.394 -0.2185 -0.9425 -0.0717
 1494SOL     OW 4925   4.035   1.823   5.324 -0.2064 -0.5607  0.0345
 1494SOL    HW1 4926   4.113   1.866   5.358 -0.2416  0.2574 -0.8756
 1494SOL    HW2 4927   4.007   1.764   5.394  0.4479  0.1250  0.8895
 1495SOL     OW 4928   0.424   4.654   2.676 -0.3189 -0.1869 -0.4325
 1495SOL    HW1 4929   0.384   4.584   2.728 -0.8701 -0.1970 -0.8619
 1495SOL    HW2 4930   0.357   4.722   2.672  0.0701  0.2055 -0.3471
 1496SOL     OW 4931   2.155   0.711   2.377 -0.4845 -0.2484  0.1616
 1496SOL    HW1 4932   2.138   0.623   2.412 -2.9159  0.2641  0.4465
 1496SOL    HW2 4933   2.195   0.758   2.450  0.6272 -1.0262  0.0786
 1497SOL     OW 4934   4.213   2.600   0.006  0.0221  0.6307  0.0034
 1497SOL    HW1 4935   4.194   2.691  -0.014 -2.0363  0.3994  0.6917
 1497SOL    HW2 4936   4.197   2.553  -0.076 -0.4073  0.7015  0.0464
 1498SOL     OW 4937   5.213   2.027   2.785  0.4881  0.5653  0.5336
 1498SOL    HW1 4938   5.224   2.043   2.691  2.0219 -1.5956  0.2535
 1498SOL    HW2 4939   5.282   2.079   2.826  0.9664  0.1359  0.2857
 1499SOL     OW 4940   1.492   4.002   4.190  0.1313  0.4550  0.1567
 1499SOL    HW1 4941   1.550   3.958   4.128 -2.5102 -1.0412 -1.4200
 1499SOL    HW2 4942   1.458   3.932   4.246 -1.0724  1.0704  0.2325
 1500SOL     OW 4943   2.310   2.788   5.981  0.2361  0.4209  0.1374
 1500SOL    HW1 4944   2.393   2.829   6.007  0.5560 -0.9443  1.4393
 1500SOL    HW2 4945   2.266   2.854   5.927  1.5661  1.6885  0.5379
 1501SOL     OW 4946   6.065   2.018   0.984  0.4711 -0.4967  0.5639
 1501SOL    HW1 4947   6.100   1.985   1.066 -1.1873 -1.2293  1.0108
 1501SOL    HW2 4948   5.970   2.025   0.999  0.4576  2.6028 -0.1398
 1502SOL     OW 4949   0.190   0.709   3.693  0.2815  0.0023 -0.0423
 1502SOL    HW1 4950   0.139   0.628   3.680  0.4029 -0.3321  1.3627
 1502SOL    HW2 4951   0.129   0.779   3.672 -0.1764 -0.4410 -0.2162
 1503SOL     OW 4952   4.478   4.704   1.275  0.1878 -0.1462 -0.0786
 1503SOL    HW1 4953   4.466   4.658   1.358 -0.1923  0.9392  0.4861
 1503SOL    HW2 4954   4.455   4.795   1.294  2.8835  0.7379 -0.6260
 1504SOL     OW 4955   3.782   4.231   5.146  0.5538  0.4326  0.5033
 1504SOL    HW1 4956   3.861   4.285   5.157 -0.3345  1.4539  2.5921
 1504SOL    HW2 4957   3.801   4.150   5.194  0.6397  0.3388  0.3093
 1505SOL     OW 4958   4.939   3.120   0.961  0.6647  0.2854  0.0420
 1505SOL    HW1 4959   4.923   3.180   0.889  1.6340  0.9740  0.3742
 1505SOL    HW2 4960   5.034   3.120   0.971  0.8085 -2.1854 -0.6712
 1506SOL     OW 4961   1.800   4.167   1.702  0.7261 -1.0988 -0.1581
 1506SOL    HW1 4962   1.780   4.092   1.758 -3.4271  0.2037  0.4166
 1506SOL    HW2 4963   1.819   4.238   1.763  0.8339 -0.7793 -0.5602
 1507SOL     OW 4964   5.628   3.462   3.881  0.5815 -0.4982  0.0894
 1507SOL    HW1 4965   5.619   3.524   3.808 -0.8641 -1.0221 -0.2058
 1507SOL    HW2 4966   5.718   3.475   3.912  0.3410  1.7024  0.0228
 1508SOL     OW 4967   6.109   5.190   4.350 -0.0862  0.7906  0.4576
 1508SOL    HW1 4968   6.171   5.239   4.296 -0.4342  2.1007  1.1955
 1508SOL    HW2 4969   6.052   5.146   4.287  0.8793  0.4787 -0.2225
 1509SOL     OW 4970   2.191   3.234   3.799 -0.0534 -0.6802  0.2162
 1509SOL    HW1 4971   2.128   3.215   3.869  1.4726  0.9365  2.1609
 1509SOL    HW2 4972   2.262   3.172   3.813 -0.4150 -1.3954 -0.9421
 1510SOL     OW 4973   5.438   2.933   1.633 -0.6091 -0.1914  0.0979
 1510SOL    HW1 4974   5.363   2.889   1.593 -0.8444  2.2692 -2.4925
 1510SOL    HW2 4975   5.507   2.929   1.567 -0.5003  2.7373 -0.1140
 1511SOL     OW 4976   4.085   5.516   0.265  0.0052 -0.2441  0.3131
 1511SOL    HW1 4977   4.149   5.587   0.257 -0.5708  0.1566 -1.0385
 1511SOL    HW2 4978   4.088   5.492   0.357 -0.5646  2.3119  1.1011
 1512SOL     OW 4979   4.611   3.688   1.300  0.0576 -0.2289  0.2495
 1512SOL    HW1 4980   4.693   3.730   1.327  0.6826 -1.0964 -0.2446
 1512SOL    HW2 4981   4.632   3.595   1.299 -0.2513 -0.3314 -2.0553
 1513SOL     OW 4982   1.983   3.044   5.635  0.5532 -0.1659  0.0922
 1513SOL    HW1 4983   1.940   2.996   5.705 -0.4076  1.2983  0.5546
 1513SOL    HW2 4984   2.018   3.122   5.677 -0.6024  1.0771 -1.1236
 1514SOL     OW 4985   5.484   1.899   3.464  0.3518  0.4517  0.2029
 1514SOL    HW1 4986   5.471   1.993   3.449 -0.4062  0.3963  0.4778
 1514SOL    HW2 4987   5.510   1.893   3.556  0.9035  0.4262  0.0538
 1515SOL     OW 4988   5.292   2.857   3.183  0.2306 -0.4514  0.3327
 1515SOL    HW1 4989   5.357   2.788   3.168  0.4317 -0.4042  0.9332
 1515SOL    HW2 4990   5.271   2.889   3.096  1.9280  0.3544  0.1677
 1516SOL     OW 4991   1.056   2.765   5.618 -0.1845 -0.2082  0.3280
 1516SOL    HW1 4992   1.088   2.853   5.638  1.5608 -0.2407 -1.9085
 1516SOL    HW2 4993   1.066   2.717   5.701  2.0954  0.8324  0.7361
 1517SOL     OW 4994   3.180   5.977   5.663 -0.1776 -0.2129  0.4177
 1517SOL    HW1 4995   3.199   5.895   5.709  0.9488  0.7561  1.7688
 1517SOL    HW2 4996   3.174   5.952   5.571  0.9236 -1.6916  0.7107
 1518SOL     OW 4997   0.156   4.672   0.650 -0.5275  0.3327  0.2900
 1518SOL    HW1 4998   0.148   4.654   0.744  0.7046 -0.1840  0.3120
 1518SOL    HW2 4999   0.159   4.767   0.644  0.9198  0.3521  0.9349
 1519SOL     OW 5000   2.710   3.379   1.050  0.1268 -0.5682  0.0006
 1519SOL    HW1 5001   2.683   3.469   1.066 -0.7269 -0.6117 -1.0565
 1519SOL    HW2 5002   2.728   3.343   1.137  1.0453  0.7759  0.3933
 1520SOL     OW 5003   4.840   5.741   2.785 -0.1859  0.2076 -0.3980
 1520SOL    HW1 5004   4.924   5.755   2.741  0.1953 -0.4291  0.1151
 1520SOL    HW2 5005   4.783   5.705   2.717  0.1924 -0.1151 -0.5433
 1521SOL     OW 5006   0.971   4.012   2.681 -0.1463 -0.5387 -0.2878
 1521SOL    HW1 5007   0.931   3.965   2.754 -2.1600 -0.6894 -1.3949
 1521SOL    HW2 5008   0.915   4.089   2.669  1.3700  0.5865 -0.3888
 1522SOL     OW 5009   1.845   3.569   2.452  0.1163 -0.2926  0.0570
 1522SOL    HW1 5010   1.784   3.569   2.378 -0.5027  1.2321  0.5139
 1522SOL    HW2 5011   1.904   3.496   2.435 -0.9411 -0.9073 -1.1572
 1523SOL     OW 5012   3.751   4.412   2.506 -0.0721 -0.2290 -0.4101
 1523SOL    HW1 5013   3.760   4.479   2.574  0.1389 -0.6518 -0.0231
 1523SOL    HW2 5014   3.661   4.421   2.475 -0.4262 -0.5964  0.5039
 1524SOL     OW 5015   6.125   5.164   1.402  0.5600  0.1455 -0.5265
 1524SOL    HW1 5016   6.106   5.101   1.333 -1.3471 -1.0883  1.0125
 1524SOL    HW2 5017   6.046   5.218   1.409  0.6577  0.1606  0.7379
 1525SOL     OW 5018   3.955   3.004   5.231  0.3215  0.7463 -0.0443
 1525SOL    HW1 5019   4.013   2.940   5.189  0.0266  0.1790  0.3956
 1525SOL    HW2 5020   4.014   3.059   5.283  0.4159 -0.2144  0.8949
 1526SOL     OW 5021   2.151   5.013   3.072  0.0587  0.0265 -0.1481
 1526SOL    HW1 5022   2.181   4.922   3.080  0.0761 -0.0346 -0.8751
 1526SOL    HW2 5023   2.229   5.065   3.090  0.2620 -0.1158 -0.6097
 1527SOL     OW 5024   5.225   3.791   3.134  0.2164 -0.1533 -0.0163
 1527SOL    HW1 5025   5.190   3.875   3.104 -0.4529 -1.6607 -4.0727
 1527SOL    HW2 5026   5.316   3.792   3.107 -0.2452 -1.3350 -1.7642
 1528SOL     OW 5027   1.535   3.304   4.694  0.1061 -0.0211 -0.1636
 1528SOL    HW1 5028   1.462   3.358   4.664  0.0043 -0.5526 -0.9011
 1528SOL    HW2 5029   1.531   3.309   4.789 -0.3584  0.6576 -0.2117
 1529SOL     OW 5030   0.186   4.547   3.508  0.1037 -0.1524 -0.3226
 1529SOL    HW1 5031   0.117   4.510   3.563  1.2754 -1.0124  0.6351
 1529SOL    HW2 5032   0.234   4.606   3.565  0.9717 -0.5949 -0.5613
 1530SOL     OW 5033   2.030   5.892   4.135  0.0905 -0.3629  0.4942
 1530SOL    HW1 5034   2.045   5.797   4.139  1.8547 -0.0957  1.0998
 1530SOL    HW2 5035   2.083   5.922   4.061  0.7211  0.3285  1.2039
 1531SOL     OW 5036   4.531   1.763   0.097  0.7355 -0.4371 -0.3185
 1531SOL    HW1 5037   4.505   1.840   0.147  2.3964 -0.2266  0.2427
 1531SOL    HW2 5038   4.545   1.694   0.162  2.2508 -0.3472 -0.5167
 1532SOL     OW 5039   2.478   1.444   1.722 -0.0330 -0.2020 -0.1393
 1532SOL    HW1 5040   2.503   1.533   1.748 -0.4329  0.0892 -0.7421
 1532SOL    HW2 5041   2.525   1.429   1.641  0.5837 -0.8122  0.3219
 1533SOL     OW 5042   3.892   6.026   1.497  0.3423  0.7044 -0.0094
 1533SOL    HW1 5043   3.970   5.996   1.450 -0.5442  0.6195 -1.5037
 1533SOL    HW2 5044   3.878   5.961   1.565  0.9973  0.1726 -0.3732
 1534SOL     OW 5045   0.685   5.709   1.592 -0.3608 -0.2330 -0.2060
 1534SOL    HW1 5046   0.639   5.686   1.511 -1.2401 -2.2696  0.7953
 1534SOL    HW2 5047   0.765   5.656   1.590  0.7460  1.4088 -0.7611
 1535SOL     OW 5048   4.603   2.031   3.348 -0.2826 -0.1957 -0.0587
 1535SOL    HW1 5049   4.552   1.965   3.394  0.5550 -1.6910 -1.1632
 1535SOL    HW2 5050   4.685   2.036   3.397 -0.7554  0.8123  0.6335
 1536SOL     OW 5051   5.543   5.955   4.747  0.6266 -0.6869  0.2631
 1536SOL    HW1 5052   5.543   5.874   4.798 -0.1885 -0.0524  1.3199
 1536SOL    HW2 5053   5.636   5.974   4.733  0.8285 -1.8949 -0.1876
 1537SOL     OW 5054   2.112   0.101   4.103 -0.3719  0.5140 -0.2104
 1537SOL    HW1 5055   2.127   0.006   4.097  1.0799  0.7251 -0.3062
 1537SOL    HW2 5056   2.131   0.134   4.016  1.6666  1.1785  0.4158
 1538SOL     OW 5057   4.659   5.316   4.871 -0.0534 -1.0349 -0.4046
 1538SOL    HW1 5058   4.739   5.351   4.831  0.1908 -2.8444 -1.5638
 1538SOL    HW2 5059   4.666   5.342   4.963  1.5435 -0.5893 -0.6186
 1539SOL     OW 5060   4.161   4.455   3.805 -0.6613 -0.1904  0.8272
 1539SOL    HW1 5061   4.253   4.434   3.788 -0.1281  2.6847 -0.3019
 1539SOL    HW2 5062   4.156   4.464   3.900  0.4909  0.7094  0.8185
 1540SOL     OW 5063   4.451   0.577   0.256 -0.4949  0.2470 -0.0655
 1540SOL    HW1 5064   4.475   0.666   0.231 -3.2181  1.3725  0.9914
 1540SOL    HW2 5065   4.360   0.567   0.229  0.3357 -3.1367 -2.3368
 1541SOL     OW 5066   1.754   4.945   5.572 -0.1053 -0.0683 -0.8349
 1541SOL    HW1 5067   1.849   4.962   5.566  0.1831 -0.2863  1.8624
 1541SOL    HW2 5068   1.714   5.031   5.562  0.3921  0.1106 -1.3782
 1542SOL     OW 5069   3.489   4.632   3.207  0.2185  0.2580 -0.3995
 1542SOL    HW1 5070   3.448   4.716   3.191  1.1826  0.9024  0.4047
 1542SOL    HW2 5071   3.427   4.585   3.263  0.0089  0.7297 -0.2332
 1543SOL     OW 5072   5.548   2.384   5.730  0.0495 -0.0354 -0.0249
 1543SOL    HW1 5073   5.604   2.343   5.797 -0.6585  1.3172  1.4656
 1543SOL    HW2 5074   5.539   2.317   5.663 -0.5056 -2.1102  1.9760
 1544SOL     OW 5075   3.457   4.544   0.756  0.0012 -0.0760 -0.0601
 1544SOL    HW1 5076   3.551   4.547   0.771 -0.0161  1.9599 -0.1982
 1544SOL    HW2 5077   3.448   4.538   0.661  0.0137  2.3690 -0.2624
 1545SOL     OW 5078   4.361   1.758   4.800  0.0345  0.3661 -0.1055
 1545SOL    HW1 5079   4.349   1.720   4.713  1.4125  0.9486 -0.5797
 1545SOL    HW2 5080   4.292   1.824   4.807  1.6373  2.3580 -1.9816
 1546SOL     OW 5081   1.867   4.111   4.192 -0.4857 -0.2687  0.2714
 1546SOL    HW1 5082   1.891   4.132   4.102 -0.1191  0.9892  0.6385
 1546SOL    HW2 5083   1.775   4.085   4.187 -0.3247 -0.7250 -0.5302
 1547SOL     OW 5084   1.796   5.742   2.131  0.0598  0.5480 -0.2033
 1547SOL    HW1 5085   1.863   5.750   2.063 -1.0607  0.1939 -1.4092
 1547SOL    HW2 5086   1.808   5.654   2.167  0.0518  0.3634 -0.6442
 1548SOL     OW 5087   4.231   2.190   1.579  0.2022 -0.5777 -0.5208
 1548SOL    HW1 5088   4.234   2.196   1.675 -0.6423  0.9584 -0.5572
 1548SOL    HW2 5089   4.321   2.207   1.551 -0.0647  1.9392 -0.0736
 1549SOL     OW 5090   5.601   5.910   2.909  0.0537  0.3736  0.1218
 1549SOL    HW1 5091   5.539   5.965   2.957 -0.9773 -1.1032  0.5552
 1549SOL    HW2 5092   5.546   5.848   2.861  1.1438  0.4662 -1.3064
 1550SOL     OW 5093   3.097   3.459   1.766 -0.2722  0.7015 -0.5727
 1550SOL    HW1 5094   3.142   3.534   1.805 -0.8073  0.0841  1.3715
 1550SOL    HW2 5095   3.016   3.495   1.731 -0.7337  1.0169  0.7401
 1551SOL     OW 5096   5.396   0.529   4.126  0.2991  0.2480  0.8745
 1551SOL    HW1 5097   5.399   0.451   4.182  0.1211 -1.1329 -0.9452
 1551SOL    HW2 5098   5.451   0.506   4.051 -0.5034  1.5190 -0.1380
 1552SOL     OW 5099   1.658   0.818   5.512  0.2412 -0.1162 -0.3181
 1552SOL    HW1 5100   1.577   0.811   5.562  0.9147  0.9462  0.9787
 1552SOL    HW2 5101   1.724   0.844   5.576  1.0583  1.7106 -1.8233
 1553SOL     OW 5102   0.354   1.693   2.924  0.3860 -0.8793 -0.3700
 1553SOL    HW1 5103   0.307   1.704   3.007  1.0653 -0.1643 -0.0689
 1553SOL    HW2 5104   0.420   1.627   2.942  0.0779 -1.2352 -0.5416
 1554SOL     OW 5105   2.179   3.886   0.669 -0.4457 -0.1165  0.0719
 1554SOL    HW1 5106   2.192   3.966   0.721  3.0369 -0.8321  0.5890
 1554SOL    HW2 5107   2.183   3.815   0.733 -0.5899 -0.8427 -0.7054
 1555SOL     OW 5108   0.104   4.606   0.902 -0.2042 -0.3969 -0.1753
 1555SOL    HW1 5109   0.182   4.551   0.906 -1.3533 -2.0802 -0.0801
 1555SOL    HW2 5110   0.040   4.561   0.957 -0.5388  2.2086  1.8094
 1556SOL     OW 5111   5.342   1.987   3.711 -0.0583  0.0545  0.1452
 1556SOL    HW1 5112   5.434   2.014   3.714  0.1635 -0.7153  1.5383
 1556SOL    HW2 5113   5.294   2.058   3.752  0.1187 -0.1937  0.7996
 1557SOL     OW 5114   3.985   3.915   6.039  0.1202  0.1748 -0.3496
 1557SOL    HW1 5115   3.973   3.975   5.965  1.1313 -0.9607 -1.4880
 1557SOL    HW2 5116   3.908   3.858   6.036 -0.3074  0.7161  0.0739
 1558SOL     OW 5117   5.042   3.325   2.229  0.1760  0.5761 -0.1406
 1558SOL    HW1 5118   4.978   3.324   2.300 -0.3987 -2.3720 -0.5735
 1558SOL    HW2 5119   4.992   3.302   2.151  1.2380  1.3593 -1.0823
 1559SOL     OW 5120   4.886   1.915   4.568  0.3259 -0.3916  0.3194
 1559SOL    HW1 5121   4.832   1.890   4.644 -0.1571  0.5377  0.2925
 1559SOL    HW2 5122   4.878   1.840   4.508 -0.7636 -0.3725  0.4085
 1560SOL     OW 5123   0.672   2.305   5.667  0.3711  0.2055  0.0121
 1560SOL    HW1 5124   0.698   2.247   5.739  0.0512  0.3345  0.2352
 1560SOL    HW2 5125   0.736   2.376   5.669  0.1342  0.4158  0.4295
 1561SOL     OW 5126   2.692   5.518   5.607  0.0589 -0.2969  0.1495
 1561SOL    HW1 5127   2.773   5.550   5.567 -1.2352 -0.0392 -2.4435
 1561SOL    HW2 5128   2.659   5.593   5.656  0.1241  0.4390 -0.8908
 1562SOL     OW 5129   5.186   3.200   1.064 -0.7964 -0.0144 -0.6308
 1562SOL    HW1 5130   5.165   3.290   1.087 -2.1089 -0.5511  0.4148
 1562SOL    HW2 5131   5.280   3.192   1.080 -1.2096  0.2794  2.6505
 1563SOL     OW 5132   5.662   5.726   3.761 -0.3560  0.3747 -0.0838
 1563SOL    HW1 5133   5.732   5.758   3.704 -0.5712  0.7257 -0.1589
 1563SOL    HW2 5134   5.603   5.679   3.702 -0.7653  1.0428 -0.2248
 1564SOL     OW 5135   1.135   3.113   5.444 -0.2018 -0.1420  0.1333
 1564SOL    HW1 5136   1.200   3.043   5.451 -0.8904 -0.8271 -0.1958
 1564SOL    HW2 5137   1.074   3.083   5.377 -0.9628  0.4052  0.5566
 1565SOL     OW 5138   2.700   2.508   3.431  0.1986  0.2964 -0.5143
 1565SOL    HW1 5139   2.633   2.484   3.367 -0.5594 -0.4351  0.5253
 1565SOL    HW2 5140   2.758   2.432   3.434 -0.8279 -0.4801  0.9985
 1566SOL     OW 5141   1.413   4.617   4.763 -0.0562 -0.0563  0.2608
 1566SOL    HW1 5142   1.435   4.536   4.716 -0.2239 -0.7891  1.3834
 1566SOL    HW2 5143   1.498   4.653   4.789  0.0959  0.9570 -1.5253
 1567SOL     OW 5144   2.895   4.849   1.860 -0.1109 -0.8884 -0.2069
 1567SOL    HW1 5145   2.876   4.758   1.883 -2.9652 -0.2394  0.4056
 1567SOL    HW2 5146   2.913   4.892   1.943 -0.5153 -0.5556 -0.2879
 1568SOL     OW 5147   4.899   3.534   4.690 -0.8332 -0.0150 -0.4519
 1568SOL    HW1 5148   4.909   3.512   4.598 -0.5892  1.4710 -0.8009
 1568SOL    HW2 5149   4.913   3.629   4.695 -1.1076 -0.0138  1.0698
 1569SOL     OW 5150   5.176   3.044   4.441 -0.3044  0.3703  0.2308
 1569SOL    HW1 5151   5.253   3.072   4.391 -0.8832  1.9035  0.1479
 1569SOL    HW2 5152   5.212   3.009   4.523  0.6108 -1.5438 -0.9294
 1570SOL     OW 5153   4.447   2.942   1.030 -0.0589  0.4222 -0.1910
 1570SOL    HW1 5154   4.392   2.986   0.965 -0.2284  0.1233 -0.2565
 1570SOL    HW2 5155   4.535   2.942   0.991 -0.2362 -0.1142 -0.6088
 1571SOL     OW 5156   0.061   5.549   4.742 -0.2790 -0.3144 -0.2483
 1571SOL    HW1 5157   0.136   5.490   4.736  0.4779  0.6241 -0.2241
 1571SOL    HW2 5158   0.042   5.573   4.651  0.4816  0.6965 -0.1573
 1572SOL     OW 5159   0.834   5.243   2.597  0.2422 -0.0287  0.1011
 1572SOL    HW1 5160   0.925   5.271   2.588  0.9745 -2.1692  0.2410
 1572SOL    HW2 5161   0.787   5.290   2.528  2.2344 -1.9796 -2.8236
 1573SOL     OW 5162   4.802   2.180   3.148 -0.7552  0.5944  0.0571
 1573SOL    HW1 5163   4.770   2.167   3.237 -1.7472  1.0472 -0.2167
 1573SOL    HW2 5164   4.723   2.193   3.096 -0.2080  0.0444 -0.9439
 1574SOL     OW 5165   1.790   5.867   0.316  0.5648  0.0651 -0.0944
 1574SOL    HW1 5166   1.696   5.882   0.322  0.9995  2.5774  1.6794
 1574SOL    HW2 5167   1.804   5.783   0.360 -0.7646 -0.1002  0.0571
 1575SOL     OW 5168   6.062   2.889   0.143  0.4959 -0.2931 -0.2088
 1575SOL    HW1 5169   6.089   2.978   0.164 -1.3648 -0.3009  2.6780
 1575SOL    HW2 5170   5.970   2.897   0.117  0.5813 -1.2797 -0.8760
 1576SOL     OW 5171   4.435   0.534   5.383  0.1296  0.0216  0.0429
 1576SOL    HW1 5172   4.497   0.462   5.378 -0.5059 -0.6826  1.6377
 1576SOL    HW2 5173   4.360   0.498   5.432 -0.0482  1.8316  1.2115
 1577SOL     OW 5174   0.539   1.142   2.199 -0.0405  0.4860  0.2431
 1577SOL    HW1 5175   0.496   1.071   2.246  0.5930 -0.4492 -0.5394
 1577SOL    HW2 5176   0.524   1.219   2.253 -0.6158 -0.2683  1.1973
 1578SOL     OW 5177   0.032   2.193   0.620  0.7603 -0.4510  0.2614
 1578SOL    HW1 5178   0.118   2.219   0.584  1.7524 -0.5502  2.4046
 1578SOL    HW2 5179   0.028   2.237   0.705 -0.5911 -1.8037  0.9368
 1579SOL     OW 5180   4.446   2.110   4.402  0.1650  0.5019 -0.0928
 1579SOL    HW1 5181   4.416   2.198   4.380 -3.0948 -0.8909 -1.8761
 1579SOL    HW2 5182   4.389   2.082   4.474  1.2932 -0.1330  0.5966
 1580SOL     OW 5183   3.152   3.235   3.750 -0.1897 -0.3099 -0.2978
 1580SOL    HW1 5184   3.165   3.320   3.794  1.0354 -1.3034  1.3875
 1580SOL    HW2 5185   3.172   3.252   3.658 -0.0659  1.2493 -0.0100
 1581SOL     OW 5186   5.545   3.401   4.888  0.6257  0.0569 -0.0716
 1581SOL    HW1 5187   5.621   3.427   4.941  1.8965 -3.1809 -0.1252
 1581SOL    HW2 5188   5.575   3.411   4.797 -0.2107  1.8514 -0.1980
 1582SOL     OW 5189   6.127   5.078   4.595  0.4731  0.1715  0.7660
 1582SOL    HW1 5190   6.084   5.145   4.542 -0.9193  0.1861  1.8605
 1582SOL    HW2 5191   6.172   5.023   4.531 -1.3253  0.0685 -0.5123
 1583SOL     OW 5192   3.139   1.786   5.865 -0.3567 -0.2427 -0.0069
 1583SOL    HW1 5193   3.219   1.737   5.879 -0.1356 -0.3591 -1.5785
 1583SOL    HW2 5194   3.075   1.745   5.924  0.5288 -0.6314  0.6939
 1584SOL     OW 5195   4.018   0.706   2.384  0.1842  0.0946  0.2927
 1584SOL    HW1 5196   4.000   0.775   2.320 -0.0602  1.4900  1.7874
 1584SOL    HW2 5197   4.086   0.652   2.344  0.8054  1.5547 -0.6931
 1585SOL     OW 5198   4.532   3.973   0.807 -0.1315  0.2297 -0.9597
 1585SOL    HW1 5199   4.507   3.935   0.891 -1.7148  0.2035 -1.4153
 1585SOL    HW2 5200   4.547   4.065   0.825 -1.5064  0.4475 -0.8134
 1586SOL     OW 5201   2.891   2.480   2.750 -0.1135  0.0817 -0.0693
 1586SOL    HW1 5202   2.905   2.474   2.844  1.6122  0.3390 -0.2713
 1586SOL    HW2 5203   2.830   2.552   2.739  0.4749  0.7321  0.8068
 1587SOL     OW 5204   0.582   4.086   3.989  0.0709  0.0504 -0.3562
 1587SOL    HW1 5205   0.615   4.012   3.938  0.1591  0.0464 -0.2913
 1587SOL    HW2 5206   0.504   4.114   3.941 -1.4082 -1.6280  0.9316
 1588SOL     OW 5207   2.187   2.355   2.161 -0.0134 -0.5305  0.3640
 1588SOL    HW1 5208   2.096   2.379   2.174  0.6031  1.4725  1.4350
 1588SOL    HW2 5209   2.213   2.313   2.243  0.9277  2.2177  1.6066
 1589SOL     OW 5210   2.070   0.552   0.636  0.1187 -0.0890  0.1980
 1589SOL    HW1 5211   2.019   0.618   0.589  0.2475 -0.5341 -0.5762
 1589SOL    HW2 5212   2.005   0.494   0.674  0.0351 -0.2817 -0.2406
 1590SOL     OW 5213   0.722   1.751   2.039  0.0550 -0.3383  0.2239
 1590SOL    HW1 5214   0.766   1.832   2.061  0.2461 -0.5523  0.6514
 1590SOL    HW2 5215   0.629   1.771   2.049  0.1465 -0.9733  3.3960
 1591SOL     OW 5216   5.880   4.082   4.282 -0.5058  0.3409 -0.2512
 1591SOL    HW1 5217   5.956   4.071   4.339  1.0831 -0.4019 -2.3354
 1591SOL    HW2 5218   5.804   4.073   4.339  0.9493  1.5638  2.0160
 1592SOL     OW 5219   2.589   3.122   5.843 -0.1629  0.2487  0.7628
 1592SOL    HW1 5220   2.597   3.048   5.783 -0.2387  1.0954 -0.3093
 1592SOL    HW2 5221   2.508   3.105   5.891 -0.2002 -0.3376  0.4972
 1593SOL     OW 5222   6.023   2.089   3.895  0.4873 -0.4063  0.0084
 1593SOL    HW1 5223   5.945   2.077   3.841  0.1356 -1.9610  0.8172
 1593SOL    HW2 5224   6.021   2.017   3.958  2.1005  0.0397  0.6336
 1594SOL     OW 5225   4.376   0.473   5.763 -0.3805  0.4542 -0.5264
 1594SOL    HW1 5226   4.433   0.543   5.732  1.1865 -0.9706 -0.9893
 1594SOL    HW2 5227   4.432   0.418   5.818 -1.3903 -0.7898 -0.6927
 1595SOL     OW 5228   2.427   4.103   4.255 -0.3599 -0.3136  0.1328
 1595SOL    HW1 5229   2.382   4.188   4.258  0.1492 -0.0664  1.1889
 1595SOL    HW2 5230   2.394   4.056   4.332  0.4959 -0.4844  0.4048
 1596SOL     OW 5231   2.492   1.836   0.429  0.0872  0.0080  0.3305
 1596SOL    HW1 5232   2.495   1.931   0.424 -0.1689  0.0966  1.6598
 1596SOL    HW2 5233   2.399   1.814   0.425 -0.1159  0.0436  3.0197
 1597SOL     OW 5234   2.054   1.611   1.028 -0.5181  0.1840  0.2507
 1597SOL    HW1 5235   2.067   1.684   1.089 -3.3169  0.7128  0.3957
 1597SOL    HW2 5236   2.051   1.534   1.084  2.6496 -0.1580  0.0772
 1598SOL     OW 5237   2.612   1.424   0.481 -0.5274  0.2671  0.5436
 1598SOL    HW1 5238   2.617   1.515   0.508 -0.7273  0.9550 -1.6128
 1598SOL    HW2 5239   2.522   1.398   0.503  0.3094 -0.3445  3.7292
 1599SOL     OW 5240   0.676   3.831   1.803 -0.4832 -0.2654 -0.2939
 1599SOL    HW1 5241   0.710   3.773   1.735 -0.5176  1.0132 -1.4579
 1599SOL    HW2 5242   0.618   3.776   1.855  0.0793 -1.4513 -0.8819
 1600SOL     OW 5243   2.885   3.272   0.324  0.9347 -0.0827  0.0034
 1600SOL    HW1 5244   2.823   3.333   0.283  1.0264  0.2918  0.4071
 1600SOL    HW2 5245   2.922   3.223   0.251  0.1297 -0.3483 -0.2441
 1601SOL     OW 5246   6.095   4.305   0.039  1.2256 -0.4799 -0.3510
 1601SOL    HW1 5247   6.068   4.279  -0.050  1.2542 -0.3267 -0.4051
 1601SOL    HW2 5248   6.053   4.390   0.052 -0.4503 -1.3868  0.5468
 1602SOL     OW 5249   4.774   4.115   1.204 -0.6707  0.4010 -0.1146
 1602SOL    HW1 5250   4.816   4.164   1.274 -0.2812 -0.9454  0.6266
 1602SOL    HW2 5251   4.732   4.041   1.247  0.5718 -1.1216 -1.3789
 1603SOL     OW 5252   3.379   1.143   5.734  0.1497  0.1384  0.4878
 1603SOL    HW1 5253   3.448   1.126   5.798  2.0662  1.4721 -1.1132
 1603SOL    HW2 5254   3.394   1.233   5.705 -1.1337 -0.1455 -1.2475
 1604SOL     OW 5255   0.219   5.440   1.216  0.2883 -0.1748  0.0535
 1604SOL    HW1 5256   0.240   5.376   1.148  3.1750  0.4532  0.2560
 1604SOL    HW2 5257   0.194   5.387   1.292 -0.8072 -0.9273 -0.7992
 1605SOL     OW 5258   5.161   1.237   4.324 -0.1799 -0.2077  0.3207
 1605SOL    HW1 5259   5.160   1.275   4.412  0.6423 -0.0608  0.2756
 1605SOL    HW2 5260   5.248   1.198   4.316  0.0867  0.5737 -0.7524
 1606SOL     OW 5261   2.268   3.852   5.854 -0.7364 -0.1983 -0.3173
 1606SOL    HW1 5262   2.182   3.891   5.869 -0.1166  0.6187  1.3915
 1606SOL    HW2 5263   2.322   3.925   5.821  0.1752  0.2446  1.9754
 1607SOL     OW 5264   2.929   3.274   4.427 -0.0939 -0.0444 -0.1935
 1607SOL    HW1 5265   2.976   3.354   4.406 -0.4213 -0.0109 -0.8248
 1607SOL    HW2 5266   2.961   3.210   4.363 -1.4296  0.1750 -1.1294
 1608SOL     OW 5267   5.892   0.434   3.320 -0.5764  0.4754  0.0082
 1608SOL    HW1 5268   5.798   0.448   3.305 -0.5839 -1.1487 -1.7678
 1608SOL    HW2 5269   5.932   0.518   3.298 -1.6307  1.4380  1.5348
 1609SOL     OW 5270   1.191   5.295   4.402 -0.1414  0.4128 -0.7841
 1609SOL    HW1 5271   1.099   5.269   4.398  0.3611 -1.4142 -1.5881
 1609SOL    HW2 5272   1.239   5.217   4.376  1.5945  1.7201 -1.7143
 1610SOL     OW 5273   2.335   1.033   4.656  0.3177  0.6093 -0.3265
 1610SOL    HW1 5274   2.351   1.032   4.750  1.8155  0.8874 -0.5436
 1610SOL    HW2 5275   2.360   1.121   4.628  1.5705  0.0057 -1.2089
 1611SOL     OW 5276   4.632   3.348   0.330 -0.1568  0.0131 -0.0463
 1611SOL    HW1 5277   4.612   3.353   0.237 -0.5524  1.5093  0.0932
 1611SOL    HW2 5278   4.688   3.272   0.339  0.1154  0.0185 -1.5522
 1612SOL     OW 5279   4.681   0.188   1.312 -0.5279  0.1302  0.2935
 1612SOL    HW1 5280   4.725   0.204   1.396 -1.7162  0.3621  0.8862
 1612SOL    HW2 5281   4.751   0.195   1.247  0.1745  1.3233  1.1376
 1613SOL     OW 5282   2.687   1.876   6.020  0.1009  0.4235 -0.1431
 1613SOL    HW1 5283   2.722   1.954   6.064 -1.4936 -0.4199  2.9771
 1613SOL    HW2 5284   2.599   1.902   5.992  0.3177  0.3255 -0.9229
 1614SOL     OW 5285   0.323   2.211   3.875 -0.0470 -0.0484 -0.3621
 1614SOL    HW1 5286   0.231   2.231   3.854 -0.1044 -1.8372 -2.1800
 1614SOL    HW2 5287   0.362   2.190   3.790  1.9316  0.1532  0.4536
 1615SOL     OW 5288   1.786   2.655   5.114 -0.5719 -0.0931  0.3389
 1615SOL    HW1 5289   1.736   2.721   5.161 -0.8866 -0.1067  0.0270
 1615SOL    HW2 5290   1.750   2.656   5.025  1.8799  1.9409 -0.7712
 1616SOL     OW 5291   5.807   3.119   0.225 -0.2372 -0.0976  0.3846
 1616SOL    HW1 5292   5.824   3.209   0.196 -1.4428 -0.3528 -1.3244
 1616SOL    HW2 5293   5.807   3.068   0.143 -2.4318 -1.1430  0.9604
 1617SOL     OW 5294   2.730   1.088   1.434  0.1469  0.5501  0.7899
 1617SOL    HW1 5295   2.737   1.045   1.519  0.6676  0.0465  0.4986
 1617SOL    HW2 5296   2.794   1.159   1.437 -1.6475  2.2086  1.7739
 1618SOL     OW 5297   1.939   4.027   2.909  0.4334 -0.2097 -0.1857
 1618SOL    HW1 5298   1.959   3.967   2.981 -0.1117 -0.6908 -0.4225
 1618SOL    HW2 5299   1.848   4.008   2.887  0.0658  1.1129  0.0981
 1619SOL     OW 5300   0.102   0.994   4.114  0.6556 -0.0105  0.6512
 1619SOL    HW1 5301   0.153   0.938   4.056  0.2329  0.4689 -0.2149
 1619SOL    HW2 5302   0.087   0.942   4.193 -0.6911 -1.5707 -0.5583
 1620SOL     OW 5303   2.009   0.684   4.831  0.9240 -0.2884  0.3076
 1620SOL    HW1 5304   1.947   0.678   4.758  0.4669  0.3824  0.6300
 1620SOL    HW2 5305   1.965   0.739   4.896  1.7827  0.0574  0.6155
 1621SOL     OW 5306   3.989   3.952   1.715 -0.0467  0.1182 -0.4720
 1621SOL    HW1 5307   3.935   4.032   1.717 -1.8620 -1.0428  0.1097
 1621SOL    HW2 5308   3.973   3.911   1.800  0.5332 -1.0549 -0.9124
 1622SOL     OW 5309   2.138   5.517   4.597 -0.0103 -0.0088 -0.2287
 1622SOL    HW1 5310   2.059   5.490   4.643 -0.7342  0.8502 -0.9272
 1622SOL    HW2 5311   2.153   5.607   4.625  1.1771 -0.3982  0.4770
 1623SOL     OW 5312   6.126   1.146   4.439 -0.0549  0.1773 -0.4940
 1623SOL    HW1 5313   6.145   1.058   4.410 -1.3675  0.1542 -1.3780
 1623SOL    HW2 5314   6.034   1.142   4.467  0.4674  0.7659  1.4652
 1624SOL     OW 5315   1.535   5.792   5.891  0.8472  0.0650 -0.0547
 1624SOL    HW1 5316   1.620   5.754   5.872  0.8189 -0.7374  1.3006
 1624SOL    HW2 5317   1.482   5.772   5.814  1.4929 -0.6433 -0.3243
 1625SOL     OW 5318   2.830   2.147   5.603 -0.3190  0.1185 -0.0561
 1625SOL    HW1 5319   2.735   2.136   5.595 -0.2235 -0.2466 -0.8586
 1625SOL    HW2 5320   2.857   2.172   5.515  0.6640 -2.4236 -0.5643
 1626SOL     OW 5321   3.334   2.723   4.436  0.4777  0.2119 -0.6266
 1626SOL    HW1 5322   3.384   2.778   4.497  0.9400 -1.2900  0.3939
 1626SOL    HW2 5323   3.256   2.698   4.485  0.1551  0.1448 -1.1662
 1627SOL     OW 5324   1.175   6.084   4.002  0.5796  0.3616  0.3276
 1627SOL    HW1 5325   1.155   6.118   3.914 -0.6526 -0.7357  0.1346
 1627SOL    HW2 5326   1.161   5.989   3.994  2.5777 -0.0572  1.1701
 1628SOL     OW 5327   2.176   3.559   4.498  0.1158  0.2203  0.4853
 1628SOL    HW1 5328   2.214   3.619   4.434  1.8157 -2.1816 -0.9345
 1628SOL    HW2 5329   2.252   3.525   4.546 -0.3937 -2.6017 -0.5116
 1629SOL     OW 5330   1.799   5.156   3.492  1.3088  0.1360 -0.1808
 1629SOL    HW1 5331   1.790   5.235   3.439  0.2326 -0.9978 -1.7739
 1629SOL    HW2 5332   1.865   5.103   3.446 -0.7764 -1.5564 -1.3898
 1630SOL     OW 5333   2.621   1.586   2.178  0.5509 -0.6964 -0.1074
 1630SOL    HW1 5334   2.609   1.681   2.176 -0.5608 -0.7946 -2.8302
 1630SOL    HW2 5335   2.596   1.557   2.090  0.2036 -3.6013  0.8367
 1631SOL     OW 5336   2.777   4.279   0.800 -0.1422 -0.0869  0.4149
 1631SOL    HW1 5337   2.738   4.332   0.731 -0.2890 -1.7821 -0.8733
 1631SOL    HW2 5338   2.844   4.335   0.839 -0.3850  1.0793 -0.7755
 1632SOL     OW 5339   3.025   0.086   5.000 -0.4989 -0.1257 -0.1045
 1632SOL    HW1 5340   3.063   0.034   4.929  0.1260  1.0765 -0.6743
 1632SOL    HW2 5341   2.952   0.132   4.959  0.2708  1.0881 -0.1653
 1633SOL     OW 5342   5.658   4.166   2.984  0.5481  0.5419 -0.1441
 1633SOL    HW1 5343   5.607   4.232   3.032  2.1228  0.6948  1.4188
 1633SOL    HW2 5344   5.649   4.087   3.037  2.7982  0.8610  0.8422
 1634SOL     OW 5345   2.959   0.055   5.735 -0.0111  0.3340 -0.6693
 1634SOL    HW1 5346   2.926   0.120   5.673 -2.5953 -0.1724  0.0317
 1634SOL    HW2 5347   2.894   0.055   5.806  1.2021 -1.2905  0.5038
 1635SOL     OW 5348   0.593   4.707   1.102  0.0029  0.4249 -0.2213
 1635SOL    HW1 5349   0.575   4.678   1.191 -0.3174 -0.5596 -0.5910
 1635SOL    HW2 5350   0.649   4.639   1.065 -1.3710 -0.1378 -1.3505
 1636SOL     OW 5351   5.327   3.458   5.030  0.2041 -0.7295 -0.5022
 1636SOL    HW1 5352   5.399   3.435   4.971 -0.0945 -0.8822 -0.8057
 1636SOL    HW2 5353   5.264   3.387   5.020 -0.4879 -0.0502 -1.0527
 1637SOL     OW 5354   3.046   1.912   3.712 -0.5735 -0.1902  0.2653
 1637SOL    HW1 5355   3.121   1.953   3.755 -1.1963  0.1160  1.0849
 1637SOL    HW2 5356   3.072   1.820   3.702 -0.3776 -0.2492  1.2352
 1638SOL     OW 5357   1.424   5.413   5.083 -0.0982 -0.2308  0.2144
 1638SOL    HW1 5358   1.351   5.412   5.145 -0.5910  1.8064 -0.2650
 1638SOL    HW2 5359   1.382   5.400   4.997  0.6305 -3.6397  0.2219
 1639SOL     OW 5360   1.365   3.622   1.448 -0.4075  0.2425  0.1871
 1639SOL    HW1 5361   1.305   3.627   1.374  0.8630  0.2101 -0.8795
 1639SOL    HW2 5362   1.370   3.711   1.481 -3.4357 -0.2111  2.3437
 1640SOL     OW 5363   4.435   1.763   5.742  0.3372  0.3719 -0.6466
 1640SOL    HW1 5364   4.372   1.746   5.672  0.8316 -0.8863 -0.8206
 1640SOL    HW2 5365   4.520   1.766   5.698  0.7027 -0.8766 -0.0781
 1641SOL     OW 5366   5.830   2.454   5.436  0.3020  0.2810  0.2208
 1641SOL    HW1 5367   5.853   2.524   5.375 -1.4641  1.1783  0.5201
 1641SOL    HW2 5368   5.770   2.495   5.499 -1.6163 -1.7045 -0.1873
 1642SOL     OW 5369   1.790   1.021   2.657  0.3387 -0.0451 -0.1739
 1642SOL    HW1 5370   1.825   0.938   2.689  1.2243  0.5852  0.5724
 1642SOL    HW2 5371   1.707   1.031   2.703 -0.6494 -1.3300 -1.5954
 1643SOL     OW 5372   2.605   4.923   5.699 -0.0909 -0.5481  0.2442
 1643SOL    HW1 5373   2.660   5.001   5.708  1.4330 -1.6338  0.5888
 1643SOL    HW2 5374   2.528   4.943   5.753  0.2783  0.7001  0.3480
 1644SOL     OW 5375   2.057   4.555   4.076  0.0523  0.5089  0.1923
 1644SOL    HW1 5376   1.978   4.515   4.038  0.4211 -0.3067  0.2737
 1644SOL    HW2 5377   2.052   4.535   4.169 -0.1710  1.3724  0.3803
 1645SOL     OW 5378   1.598   5.118   0.510 -0.0369  0.5855  0.3848
 1645SOL    HW1 5379   1.638   5.202   0.485  1.6146  0.0618  1.1749
 1645SOL    HW2 5380   1.619   5.059   0.438  1.1308  0.1686  1.0438
 1646SOL     OW 5381   5.801   1.957   2.633 -0.2255  0.1674  0.1451
 1646SOL    HW1 5382   5.798   1.979   2.726 -0.6818  0.3386  0.0914
 1646SOL    HW2 5383   5.787   2.041   2.588 -1.1376 -0.0888 -0.0662
 1647SOL     OW 5384   2.490   3.518   2.084 -0.8957 -0.3532 -0.6675
 1647SOL    HW1 5385   2.519   3.479   2.167  0.9010 -0.3454 -1.2467
 1647SOL    HW2 5386   2.415   3.464   2.058 -1.4126 -0.4395  0.8778
 1648SOL     OW 5387   4.936   0.476   5.693 -0.1200 -0.0578  0.1884
 1648SOL    HW1 5388   4.906   0.546   5.635  0.7698  0.6743  0.5813
 1648SOL    HW2 5389   4.926   0.512   5.781  2.3433  0.4450  0.3311
 1649SOL     OW 5390   4.218   4.062   2.730 -0.5159 -0.0731  0.3308
 1649SOL    HW1 5391   4.280   4.063   2.804 -2.3987 -0.6236  2.0024
 1649SOL    HW2 5392   4.274   4.065   2.652  1.5446  1.3201  1.7581
 1650SOL     OW 5393   0.872   4.280   3.310 -0.0483 -0.2422  0.2444
 1650SOL    HW1 5394   0.838   4.293   3.398 -1.8758 -0.8153 -0.3225
 1650SOL    HW2 5395   0.898   4.188   3.308 -0.3885 -0.3376  0.0811
 1651SOL     OW 5396   1.298   2.797   4.898  0.0409 -0.2960 -0.1531
 1651SOL    HW1 5397   1.264   2.725   4.844  0.7258 -1.4110  0.8566
 1651SOL    HW2 5398   1.316   2.757   4.983 -0.6425  1.3321  0.8052
 1652SOL     OW 5399   0.018   4.968   1.610 -0.0546 -0.6743 -0.4428
 1652SOL    HW1 5400  -0.018   5.020   1.538 -0.0526 -0.5601 -0.3617
 1652SOL    HW2 5401   0.054   5.033   1.670  1.8914 -0.8329 -1.3631
 1653SOL     OW 5402   1.275   5.605   4.146  0.4289  0.7881  0.0739
 1653SOL    HW1 5403   1.349   5.665   4.132  0.3198  0.3397 -3.4364
 1653SOL    HW2 5404   1.249   5.579   4.058 -2.1856 -1.2515  1.3109
 1654SOL     OW 5405   1.775   5.020   2.772  0.4092  0.6279  0.1011
 1654SOL    HW1 5406   1.732   5.106   2.773 -0.8061  0.0499 -0.0228
 1654SOL    HW2 5407   1.710   4.961   2.811  0.9747 -0.3387 -0.3900
 1655SOL     OW 5408   2.540   2.791   0.088 -0.7294 -0.1421 -0.1005
 1655SOL    HW1 5409   2.495   2.856   0.141 -0.5936  1.0880 -1.4493
 1655SOL    HW2 5410   2.627   2.785   0.126 -0.3602  1.3473 -0.6406
 1656SOL     OW 5411   5.136   6.010   1.599  0.3403  0.1151  0.2638
 1656SOL    HW1 5412   5.069   6.031   1.663  0.5791 -1.5832  1.1142
 1656SOL    HW2 5413   5.128   5.916   1.585  2.7134 -0.1994  0.6109
 1657SOL     OW 5414   3.381   1.884   4.206 -0.0637 -0.1896 -0.5316
 1657SOL    HW1 5415   3.314   1.945   4.174 -0.5307 -0.3538  0.1104
 1657SOL    HW2 5416   3.433   1.863   4.129 -0.8020 -0.1122 -1.0648
 1658SOL     OW 5417   1.265   5.641   0.476  0.0178 -0.3883 -0.1279
 1658SOL    HW1 5418   1.183   5.631   0.524 -0.4243 -0.5443 -0.9010
 1658SOL    HW2 5419   1.262   5.574   0.409 -0.3872  1.2184 -1.7907
 1659SOL     OW 5420   5.363   4.148   1.528 -0.3599 -0.0303  0.0038
 1659SOL    HW1 5421   5.391   4.213   1.463  0.0816  0.2844  0.4979
 1659SOL    HW2 5422   5.291   4.190   1.574 -1.2488 -0.5897 -0.8408
 1660SOL     OW 5423   5.300   1.313   0.503  0.0707  0.6756  0.4947
 1660SOL    HW1 5424   5.252   1.382   0.548  0.8586  0.8308  1.1294
 1660SOL    HW2 5425   5.289   1.236   0.558 -0.3591  0.4239  0.0665
 1661SOL     OW 5426   2.168   4.116   5.250 -0.1620  0.4473  0.5486
 1661SOL    HW1 5427   2.239   4.056   5.275  0.0174  0.6562  0.5444
 1661SOL    HW2 5428   2.102   4.059   5.211 -0.0594  0.2307  0.6845
 1662SOL     OW 5429   0.581   2.024   3.775 -0.4092  0.1972  0.5965
 1662SOL    HW1 5430   0.517   1.996   3.839 -2.0650 -1.3375 -1.5764
 1662SOL    HW2 5431   0.534   2.084   3.718 -0.3333 -1.6796 -1.6080
 1663SOL     OW 5432   4.369   6.042   4.059 -0.3757 -0.1171 -0.6063
 1663SOL    HW1 5433   4.392   6.073   4.146 -3.3562 -0.0812  0.2730
 1663SOL    HW2 5434   4.422   5.963   4.047 -0.3752 -0.4970  1.5211
 1664SOL     OW 5435   5.440   3.604   3.445  0.7977  0.5003 -0.0599
 1664SOL    HW1 5436   5.356   3.639   3.475  0.7133  0.7578 -0.5884
 1664SOL    HW2 5437   5.428   3.588   3.352  1.4116  0.7829 -0.1961
 1665SOL     OW 5438   5.777   0.874   4.435 -0.3916 -0.0959  0.1691
 1665SOL    HW1 5439   5.838   0.860   4.507 -1.0462 -1.4239  0.5026
 1665SOL    HW2 5440   5.772   0.969   4.426  0.3018  0.0737  1.3619
 1666SOL     OW 5441   4.275   0.611   4.289 -0.1273  0.1549 -0.2107
 1666SOL    HW1 5442   4.330   0.664   4.347 -1.1279  0.1834  0.7625
 1666SOL    HW2 5443   4.188   0.618   4.328 -1.0083  0.8338 -2.1885
 1667SOL     OW 5444   5.083   5.872   4.729  0.8209  0.2676 -0.2206
 1667SOL    HW1 5445   5.001   5.895   4.772  1.0593  2.5971 -0.8973
 1667SOL    HW2 5446   5.151   5.902   4.790  1.3235 -3.1675  1.1591
 1668SOL     OW 5447   1.621   1.376   3.035  0.1122 -0.1697  0.5306
 1668SOL    HW1 5448   1.663   1.317   2.973  0.0860 -0.0806  0.4290
 1668SOL    HW2 5449   1.630   1.463   2.996 -0.6651 -0.2169  0.2405
 1669SOL     OW 5450   3.856   2.976   0.949 -0.1340 -0.4693  0.3397
 1669SOL    HW1 5451   3.778   2.958   0.896 -1.4473  4.1832  0.2616
 1669SOL    HW2 5452   3.824   2.978   1.039  0.0690  0.6406  0.3923
 1670SOL     OW 5453   5.384   2.147   5.926 -0.0359  0.5224  0.1898
 1670SOL    HW1 5454   5.376   2.223   5.983 -1.7742  0.1529  0.4791
 1670SOL    HW2 5455   5.300   2.141   5.882  1.2532  0.8023 -2.4839
 1671SOL     OW 5456   0.002   1.812   2.861 -0.2592  0.2962  0.5111
 1671SOL    HW1 5457   0.065   1.856   2.918 -0.6026  0.7811  0.5194
 1671SOL    HW2 5458  -0.082   1.853   2.881 -0.5221 -0.0951  0.2384
 1672SOL     OW 5459   2.395   4.186   4.571  0.2802  0.2868 -0.5603
 1672SOL    HW1 5460   2.378   4.204   4.663 -1.0012  2.4596 -1.1407
 1672SOL    HW2 5461   2.362   4.097   4.557  1.8831 -0.7031  1.3330
 1673SOL     OW 5462   5.679   5.704   2.388 -0.0464  0.3109  0.6915
 1673SOL    HW1 5463   5.707   5.763   2.458  0.0017 -0.4251  1.3102
 1673SOL    HW2 5464   5.758   5.689   2.336 -0.0185  0.6469  0.6314
 1674SOL     OW 5465   5.623   2.073   0.732 -0.4835 -0.4473 -0.6173
 1674SOL    HW1 5466   5.590   1.999   0.682 -2.0188  0.0011 -0.3324
 1674SOL    HW2 5467   5.661   2.132   0.666  0.1050 -1.1452 -0.9141
 1675SOL     OW 5468   4.217   4.570   3.522 -0.2355 -0.3263  0.2221
 1675SOL    HW1 5469   4.125   4.595   3.527 -0.1393  0.2683 -0.7940
 1675SOL    HW2 5470   4.222   4.508   3.450  0.4021  0.8598 -0.7834
 1676SOL     OW 5471   3.423   0.467   2.044 -0.1113 -0.2499 -0.3002
 1676SOL    HW1 5472   3.483   0.499   1.976 -2.1320  1.0868 -1.5660
 1676SOL    HW2 5473   3.423   0.536   2.110 -0.3519 -0.1978 -0.3562
 1677SOL     OW 5474   0.333   0.639   1.459 -0.1328 -0.0858 -0.4487
 1677SOL    HW1 5475   0.287   0.603   1.534  0.0074  1.2189  0.2993
 1677SOL    HW2 5476   0.421   0.603   1.465 -0.1252  0.0093  0.0108
 1678SOL     OW 5477   1.357   1.389   0.020  0.1924 -0.1260 -0.1036
 1678SOL    HW1 5478   1.311   1.458  -0.027 -0.6691 -2.5620 -3.1624
 1678SOL    HW2 5479   1.289   1.328   0.048  1.1077 -0.9748  0.3686
 1679SOL     OW 5480   5.146   2.673   0.774 -0.5638 -0.3101  0.5880
 1679SOL    HW1 5481   5.203   2.664   0.698 -0.9490 -1.6505  0.4409
 1679SOL    HW2 5482   5.062   2.702   0.738 -0.4464  0.1105  0.6378
 1680SOL     OW 5483   5.864   3.591   4.842  0.2385 -0.5491  0.1099
 1680SOL    HW1 5484   5.808   3.546   4.906 -1.2933 -3.1474 -2.8012
 1680SOL    HW2 5485   5.914   3.521   4.800  1.7208  1.1308 -1.1095
 1681SOL     OW 5486   4.303   1.737   5.486  0.0587 -0.3622  0.2287
 1681SOL    HW1 5487   4.281   1.686   5.408 -3.3991  0.1398  0.7072
 1681SOL    HW2 5488   4.384   1.783   5.462  0.9655 -2.7327 -1.7651
 1682SOL     OW 5489   2.439   2.469   4.351 -0.0663  0.0433  0.1707
 1682SOL    HW1 5490   2.415   2.384   4.315 -0.2846  0.5445 -0.9082
 1682SOL    HW2 5491   2.514   2.497   4.298  1.7320 -0.6189  2.2103
 1683SOL     OW 5492   5.889   3.291   5.195  0.3865  0.0910 -0.6149
 1683SOL    HW1 5493   5.985   3.286   5.196  0.3568 -0.4255 -0.1411
 1683SOL    HW2 5494   5.864   3.287   5.287 -0.0602  0.9924 -0.6896
 1684SOL     OW 5495   4.717   0.369   4.774  0.6221 -0.1677  0.4095
 1684SOL    HW1 5496   4.783   0.379   4.705  1.0284  1.2678  0.9735
 1684SOL    HW2 5497   4.750   0.420   4.847 -0.3796 -0.6934  1.2625
 1685SOL     OW 5498   1.284   4.765   1.122  0.0626  0.0299 -0.1290
 1685SOL    HW1 5499   1.323   4.678   1.115  0.0886 -0.0148  0.5368
 1685SOL    HW2 5500   1.190   4.749   1.118  0.0510 -0.0822  0.4729
 1686SOL     OW 5501   3.893   4.040   3.229 -0.6040 -0.4349  0.8349
 1686SOL    HW1 5502   3.911   3.953   3.263 -0.5637 -1.4397 -1.5103
 1686SOL    HW2 5503   3.828   4.026   3.160 -0.4767  1.3705  0.2775
 1687SOL     OW 5504   4.113   4.544   4.078  0.8343 -0.1844 -0.7116
 1687SOL    HW1 5505   4.019   4.527   4.088  0.4491  2.2608  0.8912
 1687SOL    HW2 5506   4.153   4.496   4.151  0.7742 -0.8234 -1.0956
 1688SOL     OW 5507   3.243   0.735   0.948 -0.5668 -0.1307 -0.8491
 1688SOL    HW1 5508   3.203   0.791   1.014 -1.6577 -2.1428  0.2941
 1688SOL    HW2 5509   3.337   0.742   0.962 -0.7816 -0.4424  0.8831
 1689SOL     OW 5510   1.195   3.682   1.221  0.4778  0.0887  0.0179
 1689SOL    HW1 5511   1.116   3.638   1.190 -0.6893  0.2093  2.5688
 1689SOL    HW2 5512   1.173   3.775   1.217  0.3535  0.1125  0.9566
 1690SOL     OW 5513   4.672   1.618   1.687  0.1479 -0.0561  0.0748
 1690SOL    HW1 5514   4.678   1.692   1.628 -1.7105  1.7227  1.9247
 1690SOL    HW2 5515   4.585   1.581   1.671  0.7014 -1.2948 -0.1950
 1691SOL     OW 5516   5.658   6.037   2.064 -0.2003 -0.1686  0.0144
 1691SOL    HW1 5517   5.604   6.004   1.992  0.0175 -1.6794  0.5081
 1691SOL    HW2 5518   5.735   5.980   2.065  2.0093  2.5411 -1.3264
 1692SOL     OW 5519   2.749   2.226   3.741  0.3239 -0.3994 -0.5123
 1692SOL    HW1 5520   2.712   2.271   3.816  0.2114 -0.5162 -0.4965
 1692SOL    HW2 5521   2.839   2.259   3.734  0.7271 -1.2398  0.3868
 1693SOL     OW 5522   3.136   0.733   4.609 -0.2320 -0.2500  0.2706
 1693SOL    HW1 5523   3.164   0.745   4.518  0.3211  0.4306  0.5192
 1693SOL    HW2 5524   3.202   0.675   4.646 -0.3092 -0.3156  0.3053
 1694SOL     OW 5525   4.690   2.973   0.930  0.2921 -0.2761  0.0951
 1694SOL    HW1 5526   4.726   2.884   0.925 -1.7517 -1.4123  3.0255
 1694SOL    HW2 5527   4.765   3.030   0.916  1.8679 -2.4441 -0.8618
 1695SOL     OW 5528   2.700   5.517   0.355  0.0376 -0.1191 -0.3795
 1695SOL    HW1 5529   2.630   5.492   0.416 -0.1139 -0.6633 -0.7714
 1695SOL    HW2 5530   2.654   5.555   0.280  0.2484  1.0198  0.0503
 1696SOL     OW 5531   1.871   2.129   1.678  0.2199 -0.0830 -0.1667
 1696SOL    HW1 5532   1.866   2.036   1.702  0.8198  0.0722  0.6007
 1696SOL    HW2 5533   1.959   2.156   1.705  0.3413  0.5164 -1.1062
 1697SOL     OW 5534   1.029   5.837   4.154  0.1570 -0.1545  0.0452
 1697SOL    HW1 5535   0.974   5.861   4.229 -0.5474  1.4717 -0.9353
 1697SOL    HW2 5536   1.103   5.790   4.193  0.8563  2.3731  2.0508
 1698SOL     OW 5537   1.206   4.038   4.823  0.0931  0.3003  0.2831
 1698SOL    HW1 5538   1.254   4.081   4.894  1.2048 -1.1119  0.4377
 1698SOL    HW2 5539   1.160   3.966   4.865 -0.9240  0.6945 -0.1264
 1699SOL     OW 5540   4.924   4.333   3.884 -0.3667  0.2878 -0.2330
 1699SOL    HW1 5541   4.933   4.417   3.840  0.0608  1.1138  1.3862
 1699SOL    HW2 5542   4.998   4.328   3.944 -0.8766 -0.8365  0.3389
 1700SOL     OW 5543   2.512   1.878   1.886  0.1419  0.0117  0.4570
 1700SOL    HW1 5544   2.433   1.919   1.850 -0.7954 -0.2369  2.1429
 1700SOL    HW2 5545   2.482   1.834   1.966  1.8659 -0.6833  0.7633
 1701SOL     OW 5546   2.841   3.778   4.180  0.1916  0.3005 -0.1299
 1701SOL    HW1 5547   2.798   3.863   4.182  2.5615  1.5892 -0.5224
 1701SOL    HW2 5548   2.769   3.715   4.174 -1.6419  2.2284  0.3419
 1702SOL     OW 5549   4.159   4.290   5.217 -0.9076 -0.5915  0.1680
 1702SOL    HW1 5550   4.097   4.302   5.145 -0.6668  3.7937  0.4440
 1702SOL    HW2 5551   4.245   4.297   5.176 -0.7314 -0.0919  0.6220
 1703SOL     OW 5552   2.850   3.185   1.233 -0.4723  0.1104 -0.3660
 1703SOL    HW1 5553   2.877   3.209   1.322 -0.7367  0.7521 -0.4576
 1703SOL    HW2 5554   2.922   3.215   1.177 -0.8187  0.7378 -0.4837
 1704SOL     OW 5555   2.264   2.094   4.031  0.0661  0.3402  0.2588
 1704SOL    HW1 5556   2.231   2.023   4.086  0.5863  0.9358  1.3772
 1704SOL    HW2 5557   2.336   2.054   3.981 -1.5909 -0.6836 -1.4217
 1705SOL     OW 5558   4.861   5.502   3.440  0.6856  0.1999 -0.1270
 1705SOL    HW1 5559   4.790   5.474   3.382  0.1261  0.4213  0.4420
 1705SOL    HW2 5560   4.913   5.563   3.386 -0.8520  1.8257  0.1194
 1706SOL     OW 5561   5.298   1.223   5.878  0.0347  0.4491  0.0996
 1706SOL    HW1 5562   5.275   1.305   5.835  0.6773  1.4889  1.6159
 1706SOL    HW2 5563   5.275   1.238   5.970  0.2620 -1.0456  0.4231
 1707SOL     OW 5564   0.299   1.982   5.277 -0.4322  0.5815 -0.0218
 1707SOL    HW1 5565   0.351   2.051   5.318 -0.0591  0.9292 -1.0630
 1707SOL    HW2 5566   0.209   2.014   5.282 -0.1521  1.7474 -1.5821
 1708SOL     OW 5567   0.269   1.375   4.824 -0.0128 -0.0133  0.2549
 1708SOL    HW1 5568   0.219   1.455   4.835 -0.0749  0.1043 -0.8104
 1708SOL    HW2 5569   0.222   1.326   4.756  0.8797 -0.2523 -0.2063
 1709SOL     OW 5570   0.176   1.533   1.320 -0.0431 -0.0515 -0.1204
 1709SOL    HW1 5571   0.256   1.578   1.347 -0.6421 -0.5001  2.8040
 1709SOL    HW2 5572   0.108   1.599   1.326 -0.6740 -0.8218  2.7008
 1710SOL     OW 5573   0.370   1.644   2.619 -0.1470 -0.0792  0.3491
 1710SOL    HW1 5574   0.356   1.608   2.706 -0.0614 -1.0501 -0.0201
 1710SOL    HW2 5575   0.284   1.673   2.590 -0.5797 -1.6833 -0.0589
 1711SOL     OW 5576   1.159   3.321   1.645 -0.5826 -0.2105 -0.8624
 1711SOL    HW1 5577   1.211   3.366   1.578 -1.0992  0.7159 -0.6607
 1711SOL    HW2 5578   1.182   3.366   1.727 -0.6402 -0.7353 -0.5532
 1712SOL     OW 5579   0.327   3.503   4.642  0.2097 -0.4950  0.0463
 1712SOL    HW1 5580   0.242   3.491   4.599  1.4075 -0.8174 -2.3737
 1712SOL    HW2 5581   0.316   3.584   4.693 -0.7867  0.9741 -2.3281
 1713SOL     OW 5582   3.478   1.458   2.973 -0.0521  0.0009 -0.1299
 1713SOL    HW1 5583   3.419   1.391   2.937 -0.6381 -0.0060  0.8165
 1713SOL    HW2 5584   3.474   1.530   2.909  0.4055 -0.7559 -1.0382
 1714SOL     OW 5585   5.778   1.508   3.587 -0.5352  0.0012  0.1884
 1714SOL    HW1 5586   5.820   1.553   3.661 -1.3811  0.0149  0.6690
 1714SOL    HW2 5587   5.684   1.519   3.603 -0.7612 -1.7548  0.2115
 1715SOL     OW 5588   2.901   2.407   1.267  0.2176 -0.2401 -0.4340
 1715SOL    HW1 5589   2.953   2.434   1.192  0.7027 -0.3523 -0.1432
 1715SOL    HW2 5590   2.835   2.476   1.277 -1.5113 -1.4934 -2.5406
 1716SOL     OW 5591   3.132   0.488   0.976 -0.4911 -0.5610  0.6659
 1716SOL    HW1 5592   3.170   0.418   0.922  0.7049  0.5224  0.0457
 1716SOL    HW2 5593   3.179   0.567   0.949 -1.4492  0.4032  1.7175
 1717SOL     OW 5594   4.532   5.926   5.678 -0.5603 -0.6638 -0.6397
 1717SOL    HW1 5595   4.444   5.938   5.715  0.1069  0.2219  0.7330
 1717SOL    HW2 5596   4.576   6.009   5.694  0.9198 -1.4923 -0.2218
 1718SOL     OW 5597   4.514   1.388   5.495  0.5518 -0.2560 -0.3010
 1718SOL    HW1 5598   4.589   1.444   5.512 -2.0491  3.9224 -1.2533
 1718SOL    HW2 5599   4.515   1.373   5.400  0.6521 -0.9725 -0.1933
 1719SOL     OW 5600   5.863   1.066   1.461  0.1103  0.1411 -0.3601
 1719SOL    HW1 5601   5.771   1.043   1.444  0.4255 -0.4379 -1.3886
 1719SOL    HW2 5602   5.859   1.123   1.537 -1.2154  0.9440 -0.9797
 1720SOL     OW 5603   0.459   5.747   3.420  0.3105 -0.0568  0.1215
 1720SOL    HW1 5604   0.397   5.758   3.492 -1.5387 -2.6334 -0.9101
 1720SOL    HW2 5605   0.531   5.695   3.457 -0.0861 -0.4216  0.3829
 1721SOL     OW 5606   4.591   4.370   3.147  0.2595  0.0832 -0.3800
 1721SOL    HW1 5607   4.622   4.299   3.203 -1.0292 -1.1090 -1.1120
 1721SOL    HW2 5608   4.515   4.405   3.193 -1.3014 -1.4332 -1.6726
 1722SOL     OW 5609   1.413   0.617   0.863  0.3214 -0.2984 -0.4437
 1722SOL    HW1 5610   1.506   0.616   0.842  0.3126 -0.6297 -0.4787
 1722SOL    HW2 5611   1.370   0.586   0.783  0.1480  0.2677 -0.5746
 1723SOL     OW 5612   3.954   4.381   5.366  0.1443 -0.0265  0.2163
 1723SOL    HW1 5613   4.042   4.351   5.345  0.6706  2.0508 -0.8244
 1723SOL    HW2 5614   3.953   4.473   5.340 -1.9029  0.3936  1.5364
 1724SOL     OW 5615   2.442   6.080   5.210  0.5146  0.0862 -0.5009
 1724SOL    HW1 5616   2.394   5.997   5.211  1.0188 -0.2005 -0.2714
 1724SOL    HW2 5617   2.502   6.073   5.136  0.1633  0.4757 -0.8315
 1725SOL     OW 5618   2.197   2.413   5.191 -0.2431  0.1045 -0.2548
 1725SOL    HW1 5619   2.149   2.342   5.234  2.3662 -1.5704  0.0933
 1725SOL    HW2 5620   2.221   2.377   5.106  0.9148  0.6426 -0.1637
 1726SOL     OW 5621   5.512   3.851   3.882  0.4389  0.6006  0.2020
 1726SOL    HW1 5622   5.494   3.923   3.821  2.8336  0.5036 -0.7319
 1726SOL    HW2 5623   5.503   3.772   3.829  0.9707  0.4217  0.3687
 1727SOL     OW 5624   4.689   1.571   5.587  0.3891  0.1901  0.3518
 1727SOL    HW1 5625   4.705   1.643   5.526  1.9656 -1.2003 -0.9814
 1727SOL    HW2 5626   4.777   1.543   5.614 -0.2574  0.0959  2.4900
 1728SOL     OW 5627   0.643   0.259   3.277  0.4712  0.2446 -0.2089
 1728SOL    HW1 5628   0.551   0.265   3.250  0.5043 -0.1661 -0.4105
 1728SOL    HW2 5629   0.640   0.267   3.372  0.2141  0.0818 -0.2031
 1729SOL     OW 5630   4.027   4.617   4.364 -0.0799  0.2306 -0.5597
 1729SOL    HW1 5631   3.961   4.608   4.432 -0.3195  2.6840 -0.3949
 1729SOL    HW2 5632   4.108   4.636   4.412 -0.3239  2.3461 -0.9203
 1730SOL     OW 5633   2.280   0.714   0.936 -0.1786 -0.4146  0.0151
 1730SOL    HW1 5634   2.325   0.773   0.996  0.4488  0.2691 -1.0931
 1730SOL    HW2 5635   2.314   0.627   0.958  1.3388  0.0278 -0.4548
 1731SOL     OW 5636   1.849   1.496   5.495  0.3483  0.1098 -0.2965
 1731SOL    HW1 5637   1.799   1.557   5.549  0.1210  0.1502 -0.5521
 1731SOL    HW2 5638   1.795   1.482   5.417  0.0663 -0.9720  0.0784
 1732SOL     OW 5639   4.650   4.217   3.915 -0.7127 -0.2707 -0.1283
 1732SOL    HW1 5640   4.733   4.265   3.915 -0.3711 -0.8594  0.1319
 1732SOL    HW2 5641   4.636   4.195   3.823 -1.0325  0.5968 -0.2945
 1733SOL     OW 5642   4.398   0.659   5.098 -0.2097  0.1041  0.0186
 1733SOL    HW1 5643   4.416   0.644   5.191 -0.4161 -1.3884 -0.1697
 1733SOL    HW2 5644   4.480   0.638   5.054  0.0731  1.3726 -0.1177
 1734SOL     OW 5645   1.585   6.094   5.932  0.4762  0.4432  0.5200
 1734SOL    HW1 5646   1.608   6.117   6.022  0.9069  2.4963 -0.0835
 1734SOL    HW2 5647   1.555   6.003   5.938  3.5335 -0.5834  2.2160
 1735SOL     OW 5648   4.133   0.281   4.888 -0.3292 -0.0923  0.5043
 1735SOL    HW1 5649   4.157   0.372   4.904  1.3122 -0.4888  0.4064
 1735SOL    HW2 5650   4.205   0.230   4.924 -0.1265 -1.2803 -1.4612
 1736SOL     OW 5651   3.518   4.511   1.227  0.5134 -0.1390 -0.0606
 1736SOL    HW1 5652   3.583   4.441   1.243 -1.5007 -2.0079  0.4222
 1736SOL    HW2 5653   3.495   4.542   1.314  0.5461  0.3381 -0.2188
 1737SOL     OW 5654   0.909   0.598   4.474 -0.0292 -0.0552 -0.1298
 1737SOL    HW1 5655   0.970   0.526   4.458 -2.0960 -1.6018 -1.6228
 1737SOL    HW2 5656   0.913   0.611   4.569  1.4195 -1.1746  0.0109
 1738SOL     OW 5657   5.406   2.737   1.043  0.0018  0.5239  0.1510
 1738SOL    HW1 5658   5.492   2.767   1.074 -0.2833  2.0347 -0.4316
 1738SOL    HW2 5659   5.344   2.801   1.079 -0.9440 -0.7722  0.8938
 1739SOL     OW 5660   2.329   2.225   2.359  0.3957  0.0946  0.1318
 1739SOL    HW1 5661   2.337   2.255   2.450 -0.0671  2.3953 -0.5290
 1739SOL    HW2 5662   2.338   2.130   2.365 -1.0431  0.0160  2.7605
 1740SOL     OW 5663   6.094   0.604   1.017  0.6383 -0.4310 -0.1039
 1740SOL    HW1 5664   6.069   0.540   0.952  3.3741 -3.4819  1.5384
 1740SOL    HW2 5665   6.165   0.655   0.976  0.5279 -0.5247 -0.4073
 1741SOL     OW 5666   1.139   4.118   2.497  0.1429 -0.3028 -0.1302
 1741SOL    HW1 5667   1.074   4.059   2.535 -1.2716 -0.5463 -2.6837
 1741SOL    HW2 5668   1.191   4.148   2.571 -2.0781 -1.1058  1.8658
 1742SOL     OW 5669   2.695   3.960   3.702  0.0850  0.1908 -0.5786
 1742SOL    HW1 5670   2.781   3.991   3.731 -1.4039  0.5166  4.5572
 1742SOL    HW2 5671   2.710   3.870   3.675  2.1822  0.5463 -0.7559
 1743SOL     OW 5672   4.481   1.322   5.234  0.0625  0.3098  0.0699
 1743SOL    HW1 5673   4.574   1.342   5.222  0.2028  0.3232  1.0936
 1743SOL    HW2 5674   4.450   1.298   5.147  1.6512 -2.4184  0.1610
 1744SOL     OW 5675   3.711   2.541   2.221  0.8988  0.2706 -0.5749
 1744SOL    HW1 5676   3.682   2.478   2.154 -0.4692  0.7851 -0.5135
 1744SOL    HW2 5677   3.646   2.611   2.217  2.3039  1.6207 -0.5299
 1745SOL     OW 5678   0.360   4.295   4.279 -0.0731 -0.1909 -0.6799
 1745SOL    HW1 5679   0.417   4.218   4.273 -2.0482 -1.8158 -0.0488
 1745SOL    HW2 5680   0.417   4.365   4.312  1.5897 -1.6483 -0.3045
 1746SOL     OW 5681   1.937   3.905   5.205 -0.6665  0.9798  0.0966
 1746SOL    HW1 5682   1.981   3.857   5.134 -0.6949  2.2295 -0.8066
 1746SOL    HW2 5683   1.862   3.947   5.162 -1.4628  0.6800  1.1590
 1747SOL     OW 5684   5.109   3.313   4.907  0.1670  0.6686  0.5504
 1747SOL    HW1 5685   5.067   3.228   4.891 -0.5051  0.8865  1.1386
 1747SOL    HW2 5686   5.074   3.342   4.990 -0.2759  1.9278 -0.0543
 1748SOL     OW 5687   5.069   1.915   4.130  0.5266  0.4921  0.1857
 1748SOL    HW1 5688   4.979   1.883   4.123 -0.7320  3.3933  1.4208
 1748SOL    HW2 5689   5.107   1.899   4.044 -1.4110 -0.1418 -0.6144
 1749SOL     OW 5690   4.443   4.477   5.236 -0.3358  0.3096 -0.5368
 1749SOL    HW1 5691   4.524   4.527   5.225 -1.4315  1.9279 -1.7257
 1749SOL    HW2 5692   4.410   4.502   5.322  1.3714 -1.8944  0.8524
 1750SOL     OW 5693   2.963   4.620   5.930 -0.3404  0.1201 -0.1020
 1750SOL    HW1 5694   2.940   4.578   5.847  1.9583 -2.4941  0.4314
 1750SOL    HW2 5695   3.017   4.695   5.905 -2.2451  1.2737 -0.9926
 1751SOL     OW 5696   0.339   3.321   3.472  0.6173 -1.1002 -0.7737
 1751SOL    HW1 5697   0.333   3.314   3.567  2.2407 -2.2872 -0.7313
 1751SOL    HW2 5698   0.362   3.413   3.456  0.9585 -1.0432  0.0199
 1752SOL     OW 5699   0.906   5.419   2.243  0.2654  0.1601  0.4295
 1752SOL    HW1 5700   0.979   5.371   2.203 -0.0304  0.6934 -0.8074
 1752SOL    HW2 5701   0.829   5.364   2.226  0.0297  0.7188 -0.3993
 1753SOL     OW 5702   4.584   3.156   0.669 -0.2634 -0.0945  0.9015
 1753SOL    HW1 5703   4.620   3.093   0.732 -0.2891  1.3953  2.4842
 1753SOL    HW2 5704   4.516   3.107   0.623  2.1880 -2.3247 -0.6105
 1754SOL     OW 5705   0.043   3.950   1.732 -0.2990 -0.2206 -0.1361
 1754SOL    HW1 5706   0.042   3.890   1.658 -0.1255 -0.4986  0.0872
 1754SOL    HW2 5707  -0.045   3.944   1.770  0.1721 -1.4949  0.8159
 1755SOL     OW 5708   1.606   0.763   4.806 -0.5529  0.2592  0.1438
 1755SOL    HW1 5709   1.512   0.755   4.789 -0.7077 -1.8242  1.5422
 1755SOL    HW2 5710   1.613   0.837   4.866 -1.5740 -0.6101  1.4095
 1756SOL     OW 5711   0.484   0.230   2.831  0.4478 -0.2154  0.3523
 1756SOL    HW1 5712   0.414   0.295   2.830 -0.3898 -1.0989  0.4464
 1756SOL    HW2 5713   0.473   0.182   2.913  1.7518  0.2314  0.8273
 1757SOL     OW 5714   2.727   4.920   2.427 -0.1564 -0.0815 -0.1680
 1757SOL    HW1 5715   2.820   4.899   2.420  0.1803  1.6160 -1.3221
 1757SOL    HW2 5716   2.719   4.969   2.509  0.2228  1.0060 -0.7789
 1758SOL     OW 5717   0.827   0.798   1.575  0.0460 -0.5082  0.2828
 1758SOL    HW1 5718   0.781   0.728   1.621 -0.2166 -2.1575 -2.3060
 1758SOL    HW2 5719   0.759   0.858   1.546 -0.1347 -1.0693 -0.4889
 1759SOL     OW 5720   4.901   2.995   1.223 -0.6335 -0.6502 -0.1373
 1759SOL    HW1 5721   4.882   3.041   1.141 -0.9811 -0.7974 -0.1394
 1759SOL    HW2 5722   4.980   2.945   1.203 -0.2630 -0.0799 -0.1433
 1760SOL     OW 5723   0.894   5.008   3.770  0.3057  0.2461  0.0276
 1760SOL    HW1 5724   0.862   4.980   3.685  1.0865  0.0747 -0.2135
 1760SOL    HW2 5725   0.900   5.104   3.763  0.4666  0.2239 -0.1470
 1761SOL     OW 5726   5.311   1.034   4.051  0.2263 -0.0530  0.5830
 1761SOL    HW1 5727   5.378   0.971   4.023  0.8163  1.2869 -1.1536
 1761SOL    HW2 5728   5.243   0.979   4.091  2.9568 -1.3701  3.9144
 1762SOL     OW 5729   5.181   4.759   3.431 -0.1506 -0.5904 -0.1966
 1762SOL    HW1 5730   5.220   4.836   3.389 -0.4491 -0.3788 -0.0926
 1762SOL    HW2 5731   5.250   4.724   3.487 -0.2560  0.0557  0.3475
 1763SOL     OW 5732   0.797   3.893   1.514 -0.0661  0.1423  0.1326
 1763SOL    HW1 5733   0.837   3.845   1.587 -0.8785 -0.5527  0.1350
 1763SOL    HW2 5734   0.717   3.930   1.551 -0.6381 -0.4680 -0.4799
 1764SOL     OW 5735   4.839   0.899   1.236 -0.5175 -0.3566  0.7895
 1764SOL    HW1 5736   4.832   0.975   1.178  1.3895 -0.6736  0.0495
 1764SOL    HW2 5737   4.767   0.842   1.210 -0.3041 -0.0302 -0.6339
 1765SOL     OW 5738   3.949   5.688   0.533 -0.1216 -0.4123  0.1020
 1765SOL    HW1 5739   3.978   5.743   0.605  2.2086 -1.7067  0.2697
 1765SOL    HW2 5740   4.016   5.620   0.526 -0.5102 -0.6410 -2.9529
 1766SOL     OW 5741   2.973   3.978   3.815 -0.4945 -0.2207 -0.2355
 1766SOL    HW1 5742   2.995   4.039   3.745 -1.2242  3.3265  2.3232
 1766SOL    HW2 5743   3.053   3.928   3.830 -0.0075 -0.3441 -2.7648
 1767SOL     OW 5744   0.499   3.705   2.694 -0.5215  0.4011 -0.0463
 1767SOL    HW1 5745   0.549   3.637   2.648  0.2394  0.4993  0.6181
 1767SOL    HW2 5746   0.431   3.730   2.632 -0.5871 -0.7043 -0.4489
 1768SOL     OW 5747   3.308   5.194   0.312 -0.1299  0.0985 -0.5899
 1768SOL    HW1 5748   3.294   5.287   0.329  0.3820 -0.0058  0.4975
 1768SOL    HW2 5749   3.271   5.179   0.225  1.1402  1.6366 -1.4469
 1769SOL     OW 5750   0.086   4.090   3.420 -0.2383  0.0635  0.6059
 1769SOL    HW1 5751   0.152   4.158   3.402  0.3005 -0.8220 -0.9122
 1769SOL    HW2 5752   0.063   4.056   3.334 -2.2647 -0.0749  1.1632
 1770SOL     OW 5753   2.358   3.188   3.086 -0.7566 -0.4966  0.2673
 1770SOL    HW1 5754   2.342   3.217   3.176  1.2215  0.9903  0.2073
 1770SOL    HW2 5755   2.365   3.093   3.092 -0.4622 -0.4080  1.7152
 1771SOL     OW 5756   5.080   4.034   1.859  0.3372 -0.1839 -0.3885
 1771SOL    HW1 5757   5.113   4.054   1.771 -0.2568 -0.7591 -0.7473
 1771SOL    HW2 5758   5.157   4.004   1.907  0.6805  0.2115 -0.6807
 1772SOL     OW 5759   1.430   2.720   1.781 -0.2040 -0.8665  0.2677
 1772SOL    HW1 5760   1.368   2.674   1.838 -2.6357  1.2140 -0.5367
 1772SOL    HW2 5761   1.375   2.766   1.718  2.1594  1.3089 -0.3546
 1773SOL     OW 5762   4.776   4.905   3.104 -0.5718  0.8343 -0.1500
 1773SOL    HW1 5763   4.865   4.927   3.077 -0.9650  0.3314 -1.9368
 1773SOL    HW2 5764   4.788   4.835   3.169  0.3105 -1.8730 -2.9825
 1774SOL     OW 5765   0.335   6.119   5.005  0.6124 -0.2252 -0.2503
 1774SOL    HW1 5766   0.404   6.082   5.060  0.8826  2.5812  1.4960
 1774SOL    HW2 5767   0.374   6.124   4.917  2.2709  0.2692  0.4684
 1775SOL     OW 5768   1.006   0.545   5.862 -0.4923 -0.0490 -0.1650
 1775SOL    HW1 5769   0.928   0.552   5.808 -1.0412 -1.3481  0.4142
 1775SOL    HW2 5770   0.978   0.574   5.949 -0.3468 -0.5584  0.0538
 1776SOL     OW 5771   1.135   2.040   3.828  0.0553  0.1243  0.0142
 1776SOL    HW1 5772   1.060   1.988   3.798  1.1184 -1.0503 -0.6758
 1776SOL    HW2 5773   1.172   2.076   3.748  0.0565  0.9753  0.3860
 1777SOL     OW 5774   3.697   5.939   5.336  0.2296  0.2274  0.2080
 1777SOL    HW1 5775   3.692   5.864   5.277  2.3742 -0.2732  0.5798
 1777SOL    HW2 5776   3.611   5.943   5.377 -0.9769 -0.0436 -2.1539
 1778SOL     OW 5777   2.798   6.094   2.586 -0.4678  0.1350 -0.2426
 1778SOL    HW1 5778   2.890   6.094   2.611  0.3271  0.0180 -2.8721
 1778SOL    HW2 5779   2.758   6.025   2.639  0.7316  0.7935  1.5853
 1779SOL     OW 5780   5.607   5.604   2.816 -0.1747 -0.0324  0.3183
 1779SOL    HW1 5781   5.567   5.529   2.860  0.5563 -0.5117  0.1736
 1779SOL    HW2 5782   5.532   5.658   2.790 -0.7247 -0.8014  0.2563
 1780SOL     OW 5783   2.248   0.793   4.553 -0.3338  0.3885  0.2776
 1780SOL    HW1 5784   2.292   0.872   4.582 -0.8329  1.5902 -2.0306
 1780SOL    HW2 5785   2.155   0.817   4.551 -0.8656 -1.2045  2.3005
 1781SOL     OW 5786   3.305   1.762   5.085  0.4376 -0.3922  0.4057
 1781SOL    HW1 5787   3.221   1.724   5.111  0.6758 -0.9502  0.3714
 1781SOL    HW2 5788   3.286   1.855   5.069 -0.4056 -0.7313 -0.6388
 1782SOL     OW 5789   2.324   5.507   6.056 -0.4581 -0.6774 -0.3768
 1782SOL    HW1 5790   2.384   5.439   6.086  1.9852  0.1514 -3.0308
 1782SOL    HW2 5791   2.357   5.588   6.096 -1.1383 -0.4879 -0.1742
 1783SOL     OW 5792   3.829   0.732   4.127  0.0610 -0.2591 -0.4487
 1783SOL    HW1 5793   3.803   0.814   4.086  0.6660 -0.9307 -2.2980
 1783SOL    HW2 5794   3.806   0.665   4.062  0.9818 -1.3876  0.3562
 1784SOL     OW 5795   5.698   2.308   4.125 -0.2665 -0.8664 -0.6657
 1784SOL    HW1 5796   5.640   2.246   4.168  0.3435  0.3127  2.1105
 1784SOL    HW2 5797   5.646   2.388   4.115 -0.2855 -1.0060 -1.8702
 1785SOL     OW 5798   4.241   6.053   0.781  0.6043 -0.3743  0.2183
 1785SOL    HW1 5799   4.183   6.110   0.731  2.0443 -0.3627 -1.5176
 1785SOL    HW2 5800   4.321   6.104   0.793  1.7254 -1.7892 -0.8961
 1786SOL     OW 5801   3.068   3.331   4.831  0.1673 -0.0314  0.1812
 1786SOL    HW1 5802   2.972   3.326   4.833  0.0592  0.0808 -2.0892
 1786SOL    HW2 5803   3.087   3.425   4.834  0.0875  0.0449 -1.0447
 1787SOL     OW 5804   0.524   3.616   1.911  0.3489  0.4407  0.3316
 1787SOL    HW1 5805   0.453   3.610   1.847  1.1672  1.2710 -0.6854
 1787SOL    HW2 5806   0.546   3.525   1.931 -1.0471  0.1727  0.7417
 1788SOL     OW 5807   4.294   2.527   4.078  0.3911  0.2940 -0.4994
 1788SOL    HW1 5808   4.212   2.520   4.030  0.2584 -0.1122 -0.2198
 1788SOL    HW2 5809   4.296   2.618   4.108  1.4599  1.1747 -2.9885
 1789SOL     OW 5810   0.240   0.247   2.199 -0.1544  0.1613  0.6037
 1789SOL    HW1 5811   0.197   0.331   2.216 -3.5548 -1.1711 -0.4442
 1789SOL    HW2 5812   0.323   0.270   2.158 -1.0050  3.0029  0.2640
 1790SOL     OW 5813   3.194   1.473   5.716 -0.3951  0.2193 -0.3763
 1790SOL    HW1 5814   3.239   1.527   5.652  0.0471 -1.2973 -1.3959
 1790SOL    HW2 5815   3.245   1.483   5.796  1.7465 -1.3502 -1.4688
 1791SOL     OW 5816   0.300   4.417   4.032  0.1027  0.0774 -0.0967
 1791SOL    HW1 5817   0.309   4.368   4.114  1.2866  1.6139  0.7509
 1791SOL    HW2 5818   0.386   4.456   4.017 -0.2900  0.4279 -1.6989
 1792SOL     OW 5819   5.811   2.389   0.677 -0.2165  0.2182 -0.2903
 1792SOL    HW1 5820   5.858   2.306   0.685 -0.0868  0.4951  4.9201
 1792SOL    HW2 5821   5.879   2.452   0.651  0.4317 -0.7017 -0.8948
 1793SOL     OW 5822   5.894   5.307   1.405  0.1231  0.6769 -0.3112
 1793SOL    HW1 5823   5.930   5.389   1.440 -0.0752 -0.2236  2.2487
 1793SOL    HW2 5824   5.879   5.253   1.483 -0.5000 -1.5045 -1.8553
 1794SOL     OW 5825   1.952   0.807   2.727 -0.0615 -0.0954  0.3255
 1794SOL    HW1 5826   1.902   0.729   2.704  0.9106 -1.0304  1.2673
 1794SOL    HW2 5827   2.043   0.784   2.706  0.1941  0.9250  0.2765
 1795SOL     OW 5828   4.781   2.270   4.943  0.3782  0.5105 -0.3889
 1795SOL    HW1 5829   4.722   2.196   4.949  2.0284 -0.7609  2.7765
 1795SOL    HW2 5830   4.760   2.312   4.860 -2.2674 -2.0624 -1.1631
 1796SOL     OW 5831   4.198   5.054   0.437  0.1026  0.0723  0.5676
 1796SOL    HW1 5832   4.174   4.975   0.388  1.0929  0.7988 -1.2178
 1796SOL    HW2 5833   4.146   5.124   0.396 -0.0085  0.5116  1.4377
 1797SOL     OW 5834   4.719   1.200   5.930  0.6339  0.1975 -0.3682
 1797SOL    HW1 5835   4.655   1.260   5.892  1.9148  1.3103 -0.8196
 1797SOL    HW2 5836   4.785   1.188   5.862  1.2402 -0.4288  0.3140
 1798SOL     OW 5837   4.561   1.084   3.823 -0.0452  0.5940 -0.0587
 1798SOL    HW1 5838   4.481   1.037   3.845 -1.4968  2.2961 -1.4149
 1798SOL    HW2 5839   4.586   1.051   3.736  1.6168 -0.9708  0.9416
 1799SOL     OW 5840   1.371   2.227   5.363 -0.1090  0.3674 -0.0169
 1799SOL    HW1 5841   1.295   2.175   5.391 -0.4818  0.4203 -0.9166
 1799SOL    HW2 5842   1.432   2.222   5.437 -0.6031 -0.4350  0.3416
 1800SOL     OW 5843   3.773   3.683   2.045  0.4454  0.5786  0.3721
 1800SOL    HW1 5844   3.724   3.610   2.081 -0.8234  1.8326  1.3243
 1800SOL    HW2 5845   3.715   3.720   1.978  0.9450  0.8727  0.0975
 1801SOL     OW 5846   0.199   3.799   5.706  0.5644 -0.0199 -0.0065
 1801SOL    HW1 5847   0.274   3.850   5.675 -0.7934  0.9596 -1.9062
 1801SOL    HW2 5848   0.238   3.726   5.754  2.7462  0.2699 -1.1945
 1802SOL     OW 5849   3.067   5.353   5.640  0.2228 -0.2650  0.9545
 1802SOL    HW1 5850   2.982   5.360   5.684 -0.1586  1.4382  0.0377
 1802SOL    HW2 5851   3.083   5.441   5.604  0.4760 -1.4914 -2.3012
 1803SOL     OW 5852   5.469   1.471   2.507 -0.2473  0.0867 -0.6619
 1803SOL    HW1 5853   5.545   1.525   2.486 -0.8934  2.0275  1.5091
 1803SOL    HW2 5854   5.428   1.453   2.423  2.0113 -0.1495 -1.7848
 1804SOL     OW 5855   1.299   4.841   1.996 -0.1060  0.4360  0.3117
 1804SOL    HW1 5856   1.207   4.821   1.980 -0.1353  1.9414 -2.0009
 1804SOL    HW2 5857   1.346   4.769   1.955 -0.2889  1.0702 -1.1001
 1805SOL     OW 5858   2.221   6.117   5.565 -0.1259  0.0765  0.0859
 1805SOL    HW1 5859   2.175   6.089   5.486 -1.3468  1.3084  0.3281
 1805SOL    HW2 5860   2.306   6.148   5.534 -1.7930  3.7537 -1.3110
 1806SOL     OW 5861   1.797   3.836   1.649  0.2128  0.3817 -0.2594
 1806SOL    HW1 5862   1.797   3.742   1.670  0.3228  0.4838  0.2015
 1806SOL    HW2 5863   1.863   3.844   1.580  0.4258  0.1652 -0.0862
 1807SOL     OW 5864   4.585   5.083   4.735  0.1818  0.0078 -0.1843
 1807SOL    HW1 5865   4.655   5.055   4.676 -0.2409  2.6004 -2.1190
 1807SOL    HW2 5866   4.623   5.152   4.788  0.7074 -2.6106  3.2340
 1808SOL     OW 5867   2.097   1.212   4.100  0.3892 -1.1176  0.2786
 1808SOL    HW1 5868   2.180   1.165   4.090  1.7660  1.0974  0.7420
 1808SOL    HW2 5869   2.094   1.235   4.193 -0.2948 -0.3689  0.0806
 1809SOL     OW 5870   5.691   4.597   1.775  0.3314  0.0201 -0.0405
 1809SOL    HW1 5871   5.685   4.643   1.691  0.7365  0.1196 -0.0209
 1809SOL    HW2 5872   5.723   4.663   1.836  1.2980 -0.3715 -0.0957
 1810SOL     OW 5873   2.622   4.255   0.480 -0.0865 -0.1079 -0.0076
 1810SOL    HW1 5874   2.697   4.197   0.480  1.1385  1.4177  0.6120
 1810SOL    HW2 5875   2.546   4.197   0.470  1.2168 -1.5769 -2.0039
 1811SOL     OW 5876   3.876   2.412   4.681  0.3203  0.0759  0.0051
 1811SOL    HW1 5877   3.826   2.336   4.710 -1.2403  1.5434  1.3946
 1811SOL    HW2 5878   3.812   2.468   4.636  0.8674  1.6110  1.0559
 1812SOL     OW 5879   5.311   1.349   5.396  0.5192  0.1106 -0.6947
 1812SOL    HW1 5880   5.326   1.257   5.415 -1.2025 -0.6959 -2.7436
 1812SOL    HW2 5881   5.398   1.385   5.377  1.0746 -1.4987 -1.3772
 1813SOL     OW 5882   0.396   5.279   4.566 -0.2467  0.3603  0.6626
 1813SOL    HW1 5883   0.399   5.214   4.496  0.9450  2.1201 -1.0215
 1813SOL    HW2 5884   0.488   5.301   4.583 -0.6115  2.3281  0.4063
 1814SOL     OW 5885   0.930   2.844   0.629 -0.2637 -0.2031  0.0538
 1814SOL    HW1 5886   0.840   2.818   0.648 -0.3453  1.7885  3.0360
 1814SOL    HW2 5887   0.922   2.932   0.590  0.3663  0.4401  1.3127
 1815SOL     OW 5888   6.056   5.285   2.636  0.1566 -0.1839  0.3769
 1815SOL    HW1 5889   6.039   5.212   2.577  0.1236 -0.0223  0.1854
 1815SOL    HW2 5890   5.986   5.280   2.701  0.1376 -0.3048  0.3469
 1816SOL     OW 5891   5.131   2.710   2.845  0.1692  0.3977  0.2786
 1816SOL    HW1 5892   5.183   2.722   2.766 -0.9965  0.5919 -0.4903
 1816SOL    HW2 5893   5.047   2.678   2.814 -0.2607  0.3036  1.4649
 1817SOL     OW 5894   2.016   3.390   3.465  0.1479 -0.1566 -0.3267
 1817SOL    HW1 5895   2.037   3.415   3.375 -2.8416 -0.8282 -1.3153
 1817SOL    HW2 5896   2.068   3.311   3.481  1.0873  0.2492 -1.2677
 1818SOL     OW 5897   1.426   1.223   3.701  0.2397  0.0411 -0.1259
 1818SOL    HW1 5898   1.343   1.267   3.716 -0.4219 -1.4813  1.0889
 1818SOL    HW2 5899   1.473   1.277   3.638 -1.7039  0.8889 -0.8877
 1819SOL     OW 5900   3.783   1.621   3.859  0.1271  0.1179 -0.0500
 1819SOL    HW1 5901   3.857   1.573   3.821  0.3746 -0.3397  0.9556
 1819SOL    HW2 5902   3.806   1.713   3.848 -0.4695  0.0484 -2.2401
 1820SOL     OW 5903   3.236   4.538   6.040  0.0239  0.2462 -0.1605
 1820SOL    HW1 5904   3.142   4.554   6.031 -0.2583  0.0907  1.9511
 1820SOL    HW2 5905   3.259   4.485   5.964 -1.9474 -1.0294  0.0703
 1821SOL     OW 5906   4.699   0.565   0.895  0.5930 -0.5246 -0.3487
 1821SOL    HW1 5907   4.731   0.655   0.904 -2.1059  0.3892  1.4898
 1821SOL    HW2 5908   4.779   0.512   0.890  2.2782  1.9019 -1.2501
 1822SOL     OW 5909   0.752   0.322   2.771 -0.6795 -0.6447 -0.3041
 1822SOL    HW1 5910   0.692   0.249   2.787 -0.8662 -0.5779 -0.7006
 1822SOL    HW2 5911   0.715   0.395   2.820  0.3211 -1.1924  1.3713
 1823SOL     OW 5912   5.485   5.827   5.604  0.5883 -0.0904  0.6214
 1823SOL    HW1 5913   5.402   5.844   5.649  0.1387  3.5297 -1.1918
 1823SOL    HW2 5914   5.459   5.786   5.522  0.7265 -0.3423  0.7042
 1824SOL     OW 5915   3.031   2.618   0.525 -0.2897  0.5235 -0.1798
 1824SOL    HW1 5916   2.939   2.611   0.499 -0.5185  0.4432  0.6248
 1824SOL    HW2 5917   3.073   2.664   0.452 -1.0576  0.9555 -0.3652
 1825SOL     OW 5918   4.439   0.084   3.446  1.0776  0.2729 -0.1837
 1825SOL    HW1 5919   4.345   0.069   3.456  0.6927  0.6942 -2.5029
 1825SOL    HW2 5920   4.459   0.154   3.508  0.2156 -0.8162  1.4148
 1826SOL     OW 5921   3.184   3.168   4.995  0.4210 -0.4113  0.6113
 1826SOL    HW1 5922   3.115   3.156   5.060 -1.3295  0.5420 -0.9565
 1826SOL    HW2 5923   3.142   3.220   4.926  2.5877 -0.2278 -0.6402
 1827SOL     OW 5924   0.070   0.056   1.539  0.5714  0.0985  0.5854
 1827SOL    HW1 5925   0.087   0.137   1.490  0.2018 -0.2597 -0.1485
 1827SOL    HW2 5926  -0.004   0.076   1.595 -0.2721 -0.0635 -0.4414
 1828SOL     OW 5927   4.678   3.596   2.799  0.0729 -0.1266  0.1492
 1828SOL    HW1 5928   4.584   3.608   2.786  0.2865  0.3560 -1.1634
 1828SOL    HW2 5929   4.692   3.609   2.892 -1.1812 -0.3686  0.3834
 1829SOL     OW 5930   0.539   4.079   1.590  0.2954  0.2194  0.0227
 1829SOL    HW1 5931   0.523   4.007   1.530 -1.5357 -0.0564  0.7601
 1829SOL    HW2 5932   0.502   4.049   1.673  1.3941  1.1888  0.8901
 1830SOL     OW 5933   1.816   3.000   1.869 -0.2752 -0.2979  0.2091
 1830SOL    HW1 5934   1.830   2.922   1.922  1.7341  0.3514  0.6942
 1830SOL    HW2 5935   1.770   2.968   1.791  1.2462 -2.1221  0.0033
 1831SOL     OW 5936   4.589   1.465   0.839  0.1446  0.1297 -0.8003
 1831SOL    HW1 5937   4.614   1.381   0.877  0.3031  0.2344 -0.6730
 1831SOL    HW2 5938   4.636   1.530   0.891  0.1700  0.2865 -1.0174
 1832SOL     OW 5939   0.888   1.439   4.894  0.5253  0.5176 -0.0787
 1832SOL    HW1 5940   0.900   1.451   4.800  2.8129 -3.0858 -0.4644
 1832SOL    HW2 5941   0.809   1.385   4.902  1.9744 -1.7654 -0.3235
 1833SOL     OW 5942   1.943   5.977   3.691 -0.2916 -0.1724 -0.2988
 1833SOL    HW1 5943   2.011   5.944   3.632  0.2186  0.0974  0.1356
 1833SOL    HW2 5944   1.976   6.062   3.720 -0.1098 -0.6953  1.0786
 1834SOL     OW 5945   6.011   5.543   1.471 -0.9273 -0.0375  0.3937
 1834SOL    HW1 5946   6.067   5.585   1.406  0.4117 -1.6971  0.4238
 1834SOL    HW2 5947   6.034   5.586   1.554  0.1568 -0.5290  0.3644
 1835SOL     OW 5948   2.493   2.275   3.983 -0.0315 -0.5104 -0.0958
 1835SOL    HW1 5949   2.405   2.259   4.017  0.6511 -0.1343  1.9783
 1835SOL    HW2 5950   2.547   2.205   4.021  1.0220  0.6995  0.7273
 1836SOL     OW 5951   5.045   1.298   1.468  0.3961  0.4035 -0.3781
 1836SOL    HW1 5952   5.027   1.357   1.541  0.5954 -1.1926  1.0169
 1836SOL    HW2 5953   4.994   1.219   1.487  0.7726 -0.2154 -1.7619
 1837SOL     OW 5954   0.019   1.774   0.893 -0.3461 -0.2969 -0.4655
 1837SOL    HW1 5955   0.054   1.746   0.808  0.1615 -2.1179  0.3087
 1837SOL    HW2 5956   0.015   1.870   0.886  2.7514 -0.1131 -1.4191
 1838SOL     OW 5957   0.198   3.536   3.007 -0.0832 -0.5896 -0.4368
 1838SOL    HW1 5958   0.146   3.477   3.061  1.2341 -1.0655  0.3570
 1838SOL    HW2 5959   0.148   3.618   3.005 -1.1867 -1.2427 -0.2929
 1839SOL     OW 5960   5.250   0.998   1.638 -0.0069  0.9866  0.5469
 1839SOL    HW1 5961   5.212   1.041   1.561 -0.5852  1.1697  0.9314
 1839SOL    HW2 5962   5.176   0.981   1.695 -0.2078 -2.5998 -0.5264
 1840SOL     OW 5963   0.332   3.923   4.525 -0.1088 -0.0932  0.2773
 1840SOL    HW1 5964   0.392   3.875   4.468 -0.1127  0.7386 -0.4397
 1840SOL    HW2 5965   0.283   3.980   4.466 -1.5796 -0.7027  0.8515
 1841SOL     OW 5966   1.188   2.976   2.597 -0.0171 -0.1256  0.4824
 1841SOL    HW1 5967   1.120   2.916   2.566  1.9063 -1.7595 -0.7630
 1841SOL    HW2 5968   1.153   3.010   2.679 -1.9900 -1.5178  0.3006
 1842SOL     OW 5969   2.702   3.125   3.437 -0.0234 -0.2761 -0.0332
 1842SOL    HW1 5970   2.720   3.069   3.513 -1.7745 -0.5128  0.2689
 1842SOL    HW2 5971   2.674   3.208   3.475  0.1445 -0.0348 -0.4386
 1843SOL     OW 5972   4.780   1.900   1.058  0.1003  0.0517  0.1105
 1843SOL    HW1 5973   4.829   1.870   1.134  1.7361  1.4091 -0.3598
 1843SOL    HW2 5974   4.689   1.872   1.076  0.6492 -0.7197  1.9487
 1844SOL     OW 5975   1.386   0.941   5.851  0.1638  0.1952 -0.0585
 1844SOL    HW1 5976   1.313   0.972   5.905 -1.1743 -0.8683 -1.1747
 1844SOL    HW2 5977   1.344   0.905   5.772  1.8940 -0.4926 -0.7176
 1845SOL     OW 5978   1.024   3.548   5.479 -0.0715  0.1198 -0.1306
 1845SOL    HW1 5979   1.027   3.466   5.528 -0.2229  0.9447  1.3061
 1845SOL    HW2 5980   1.009   3.521   5.388 -3.1544 -1.3730  0.6660
 1846SOL     OW 5981   0.146   4.689   2.821 -0.0630  0.4071  0.0139
 1846SOL    HW1 5982   0.053   4.680   2.845  0.2160  0.5902  1.2533
 1846SOL    HW2 5983   0.186   4.608   2.852  0.1917  0.2974 -0.5884
 1847SOL     OW 5984   0.298   5.003   5.080  0.4337 -0.0856  0.0965
 1847SOL    HW1 5985   0.264   5.078   5.127 -0.2029 -0.5631  0.4170
 1847SOL    HW2 5986   0.269   5.016   4.989 -2.7100 -1.6136  0.7535
 1848SOL     OW 5987   4.173   1.320   0.236 -0.1634  0.0943  0.2485
 1848SOL    HW1 5988   4.151   1.358   0.151  0.6433  2.0355  0.8569
 1848SOL    HW2 5989   4.139   1.383   0.300 -1.3546 -1.6597  1.4315
 1849SOL     OW 5990   3.480   3.512   2.589 -0.2249 -0.5606 -0.2829
 1849SOL    HW1 5991   3.511   3.588   2.539 -0.5424 -0.2940 -0.0774
 1849SOL    HW2 5992   3.405   3.545   2.638  1.4009 -0.1662  2.1424
 1850SOL     OW 5993   4.533   1.090   0.343 -0.2376 -0.0269  0.4011
 1850SOL    HW1 5994   4.619   1.053   0.325  0.4035  1.1758  0.8361
 1850SOL    HW2 5995   4.479   1.015   0.366  1.1584 -0.6419  1.8527
 1851SOL     OW 5996   3.046   5.740   2.820  0.3662 -0.4508 -0.4063
 1851SOL    HW1 5997   3.134   5.757   2.787  1.4242 -1.9531  1.3898
 1851SOL    HW2 5998   3.051   5.651   2.857 -1.4109  0.0452  1.2113
 1852SOL     OW 5999   3.951   4.330   5.629  0.7032  0.2082 -1.0198
 1852SOL    HW1 6000   3.970   4.397   5.696  1.9591 -1.5185  0.4611
 1852SOL    HW2 6001   3.953   4.378   5.547  1.1330  2.0807  0.0105
 1853SOL     OW 6002   1.009   1.883   2.646  0.1248 -0.0644 -0.3608
 1853SOL    HW1 6003   0.927   1.872   2.597 -0.5851 -0.6929  0.9126
 1853SOL    HW2 6004   1.076   1.889   2.578 -0.7250 -1.5759 -1.4233
 1854SOL     OW 6005   4.859   4.786   1.338 -0.0394 -0.3991 -0.1287
 1854SOL    HW1 6006   4.816   4.797   1.253 -1.8946 -1.6842  0.5655
 1854SOL    HW2 6007   4.938   4.839   1.332 -0.5956  0.3001 -2.3083
 1855SOL     OW 6008   2.623   1.497   3.607  0.7401 -0.4346  0.5121
 1855SOL    HW1 6009   2.561   1.553   3.560 -0.5773 -1.0376  1.4439
 1855SOL    HW2 6010   2.682   1.557   3.652  1.6470  0.1550 -1.3557
 1856SOL     OW 6011   3.917   0.975   3.981 -0.7060  0.0831 -0.1942
 1856SOL    HW1 6012   3.978   1.015   3.921  0.1311 -0.6896  0.1162
 1856SOL    HW2 6013   3.830   1.002   3.950 -0.4643 -1.9124 -3.0000
 1857SOL     OW 6014   5.792   4.082   1.066  0.0688  0.4762  0.0803
 1857SOL    HW1 6015   5.711   4.092   1.017 -0.7437  2.5816  1.7014
 1857SOL    HW2 6016   5.764   4.066   1.156  1.4190  1.7863  0.7746
 1858SOL     OW 6017   1.224   4.346   5.139 -0.0348  0.4851  0.5474
 1858SOL    HW1 6018   1.280   4.402   5.192 -0.2399  1.4251 -0.2063
 1858SOL    HW2 6019   1.147   4.400   5.119 -0.3057 -0.1126 -0.0739
 1859SOL     OW 6020   0.016   3.893   4.145  0.0180 -0.0427 -0.2008
 1859SOL    HW1 6021  -0.030   3.968   4.107  0.4860  0.5990  0.4478
 1859SOL    HW2 6022   0.109   3.916   4.137  0.1445 -0.2028  0.6629
 1860SOL     OW 6023   2.001   1.924   2.978 -0.3114  0.3482  0.2110
 1860SOL    HW1 6024   2.068   1.960   3.037  0.7739  0.0934 -0.8238
 1860SOL    HW2 6025   2.033   1.837   2.956 -0.4862  0.5906 -1.0678
 1861SOL     OW 6026   1.234   2.963   0.419 -0.0535  0.3688 -0.1804
 1861SOL    HW1 6027   1.154   2.983   0.370  0.1567 -0.3935 -0.8669
 1861SOL    HW2 6028   1.248   3.039   0.475 -2.5188 -0.4297  1.6638
 1862SOL     OW 6029   0.788   1.234   2.315  0.0526 -0.4452 -0.5636
 1862SOL    HW1 6030   0.823   1.203   2.231 -0.5307 -1.4145 -0.4644
 1862SOL    HW2 6031   0.777   1.328   2.303  0.8864 -0.4211 -1.2416
 1863SOL     OW 6032   4.338   4.012   4.413  0.7226  0.2821 -0.3540
 1863SOL    HW1 6033   4.374   3.985   4.498  3.0055  0.2355 -1.2428
 1863SOL    HW2 6034   4.375   3.949   4.351 -1.9421 -0.4787 -1.2794
 1864SOL     OW 6035   3.056   2.716   4.975 -0.6423  0.0850  0.2735
 1864SOL    HW1 6036   3.075   2.733   5.067 -1.6507 -2.3381  1.0108
 1864SOL    HW2 6037   2.961   2.718   4.968 -0.6196 -0.5665 -0.5027
 1865SOL     OW 6038   5.880   6.038   0.799  0.1539  0.1110  0.0882
 1865SOL    HW1 6039   5.840   6.125   0.811 -0.0192 -0.1282  1.2797
 1865SOL    HW2 6040   5.816   5.977   0.833 -0.7113 -0.7197 -2.7414
 1866SOL     OW 6041   2.628   5.075   0.400 -0.6010  0.5431 -0.1441
 1866SOL    HW1 6042   2.667   5.155   0.364  0.3633 -0.8885 -2.5458
 1866SOL    HW2 6043   2.537   5.079   0.371 -0.3988  0.5151 -0.8176
 1867SOL     OW 6044   2.917   4.210   0.170  0.5651 -0.5010  0.0764
 1867SOL    HW1 6045   2.997   4.249   0.135  0.3980  0.3957  0.6432
 1867SOL    HW2 6046   2.862   4.194   0.094 -0.6393  3.2914 -0.0721
 1868SOL     OW 6047   0.118   3.181   5.580  0.2316  0.3852 -0.4228
 1868SOL    HW1 6048   0.071   3.194   5.662  0.4598  2.1342 -0.5286
 1868SOL    HW2 6049   0.115   3.266   5.537  1.3600 -0.1239 -1.5750
 1869SOL     OW 6050   1.628   1.677   2.969  0.1990  0.0922  0.0771
 1869SOL    HW1 6051   1.611   1.747   2.907 -0.0306 -1.2094 -1.3800
 1869SOL    HW2 6052   1.687   1.716   3.034  1.2094  1.2337 -1.4589
 1870SOL     OW 6053   2.760   5.512   0.783  0.0951  0.3100  0.1069
 1870SOL    HW1 6054   2.726   5.428   0.815 -0.3052 -0.1231 -1.3595
 1870SOL    HW2 6055   2.687   5.573   0.794 -0.9700 -0.4212 -2.2301
 1871SOL     OW 6056   2.225   5.135   3.346  0.5618 -0.3137 -0.3270
 1871SOL    HW1 6057   2.193   5.186   3.272  1.0672 -0.2494 -0.5069
 1871SOL    HW2 6058   2.299   5.187   3.380 -0.5393  0.3822  1.1060
 1872SOL     OW 6059   3.352   0.798   2.924  0.0320 -0.5621  0.0474
 1872SOL    HW1 6060   3.328   0.772   2.835  1.5479  0.1060 -0.5978
 1872SOL    HW2 6061   3.371   0.716   2.969  0.2662 -0.8509 -0.5653
 1873SOL     OW 6062   0.140   0.253   1.033  0.3482  0.5608  0.1125
 1873SOL    HW1 6063   0.174   0.230   0.946  0.1930 -0.3477  0.2833
 1873SOL    HW2 6064   0.216   0.291   1.078  0.8401 -0.3204  0.0693
 1874SOL     OW 6065   5.870   3.668   5.732 -0.2883 -0.3124 -0.4365
 1874SOL    HW1 6066   5.807   3.677   5.661 -0.8507  0.7349  0.1781
 1874SOL    HW2 6067   5.817   3.669   5.811  0.4411 -0.1974  0.0599
 1875SOL     OW 6068   0.769   2.259   3.801 -0.2596  0.0881 -0.1585
 1875SOL    HW1 6069   0.832   2.248   3.872  0.1953 -1.2310 -0.7286
 1875SOL    HW2 6070   0.697   2.200   3.822 -0.2717 -0.0695 -0.6237
 1876SOL     OW 6071   1.074   5.168   5.638 -0.3550  0.7064  0.0536
 1876SOL    HW1 6072   0.978   5.169   5.644 -0.4671  0.4862 -1.4579
 1876SOL    HW2 6073   1.103   5.218   5.714 -1.6150 -0.5336  1.4077
 1877SOL     OW 6074   2.438   1.978   2.474  0.7570 -0.2431 -0.1416
 1877SOL    HW1 6075   2.376   1.931   2.530  0.5605 -1.8271 -1.6031
 1877SOL    HW2 6076   2.499   2.020   2.535  1.7624 -3.4956  1.3052
 1878SOL     OW 6077   1.986   5.025   0.767  0.3393 -0.5416 -0.1851
 1878SOL    HW1 6078   1.989   4.933   0.744 -0.6987 -0.7354  0.4176
 1878SOL    HW2 6079   2.078   5.054   0.763  0.6887 -1.6301 -0.2131
 1879SOL     OW 6080   5.380   3.802   1.740  0.3339 -0.6095 -0.0313
 1879SOL    HW1 6081   5.290   3.817   1.713  0.5568  1.4046  0.1895
 1879SOL    HW2 6082   5.433   3.841   1.671  0.9307  2.0762  1.7965
 1880SOL     OW 6083   4.722   2.743   5.544  1.0326  0.5218 -0.1907
 1880SOL    HW1 6084   4.683   2.808   5.486  0.4959 -0.6409 -1.1842
 1880SOL    HW2 6085   4.711   2.780   5.632  0.2415  1.5075 -0.6826
 1881SOL     OW 6086   4.139   0.553   3.725  0.1755  0.2955 -0.0689
 1881SOL    HW1 6087   4.137   0.460   3.747 -2.4195  0.6305  1.5434
 1881SOL    HW2 6088   4.192   0.593   3.794  0.5918  0.1300 -0.2892
 1882SOL     OW 6089   5.383   0.250   2.561  0.2215 -0.0581 -0.4678
 1882SOL    HW1 6090   5.305   0.195   2.561  0.1220 -0.0355  1.7795
 1882SOL    HW2 6091   5.350   0.339   2.548 -0.1445 -0.0665  0.3127
 1883SOL     OW 6092   0.685   1.832   0.074 -0.3695 -0.9664  0.3716
 1883SOL    HW1 6093   0.701   1.853  -0.018  1.5358 -0.8748  0.6939
 1883SOL    HW2 6094   0.645   1.746   0.073 -2.0867 -0.2023 -0.6187
 1884SOL     OW 6095   5.230   5.663   3.492 -0.6019 -0.1736  1.3119
 1884SOL    HW1 6096   5.182   5.632   3.569 -3.0013 -0.6272 -0.2704
 1884SOL    HW2 6097   5.275   5.742   3.522 -2.5026  0.3910  2.8617
 1885SOL     OW 6098   2.904   1.300   2.852 -0.3019  0.0412  0.1928
 1885SOL    HW1 6099   2.946   1.339   2.775  2.4202  0.0057  1.5804
 1885SOL    HW2 6100   2.941   1.212   2.858 -2.1162 -0.7712  0.3878
 1886SOL     OW 6101   5.871   5.234   5.842  0.7741  0.1981  0.4482
 1886SOL    HW1 6102   5.861   5.313   5.896  0.8647  0.8000 -0.3993
 1886SOL    HW2 6103   5.869   5.162   5.905 -2.1802  0.6416  1.0273
 1887SOL     OW 6104   4.437   4.889   5.977  0.0907  0.1086  0.2921
 1887SOL    HW1 6105   4.352   4.894   5.933  0.4541  1.3107 -0.2936
 1887SOL    HW2 6106   4.481   4.816   5.934 -0.3257 -0.0024  0.0421
 1888SOL     OW 6107   5.970   0.843   5.029 -0.4122  0.5389  0.6942
 1888SOL    HW1 6108   6.055   0.850   5.073 -0.5990 -1.2950  1.4490
 1888SOL    HW2 6109   5.983   0.884   4.944  1.0775  0.7351  0.9904
 1889SOL     OW 6110   6.044   1.586   4.407 -0.8878  0.0366  0.1882
 1889SOL    HW1 6111   6.010   1.660   4.458 -2.1241  0.3537 -1.0134
 1889SOL    HW2 6112   5.965   1.544   4.372 -0.2302 -2.0417  1.0677
 1890SOL     OW 6113   0.960   0.662   0.033  0.8622  0.1531  0.3841
 1890SOL    HW1 6114   1.050   0.687   0.055  0.1021  1.3793  2.3732
 1890SOL    HW2 6115   0.908   0.740   0.052 -0.6397 -0.4991 -0.8007
 1891SOL     OW 6116   3.570   5.459   1.463 -0.1494 -0.0721 -0.4419
 1891SOL    HW1 6117   3.584   5.377   1.415  0.3722  0.0477 -0.4923
 1891SOL    HW2 6118   3.488   5.493   1.427 -0.8110 -0.9786  0.1625
 1892SOL     OW 6119   1.543   1.699   5.284  0.1320 -0.8810  0.2827
 1892SOL    HW1 6120   1.565   1.656   5.201  0.2325  1.1708 -0.8298
 1892SOL    HW2 6121   1.510   1.785   5.258  1.4741  0.3653  2.4418
 1893SOL     OW 6122   2.224   3.392   2.662  0.1975  0.2283 -0.2407
 1893SOL    HW1 6123   2.235   3.307   2.619 -1.0692  0.2359 -0.6316
 1893SOL    HW2 6124   2.255   3.378   2.751  2.3817  0.0683 -0.9690
 1894SOL     OW 6125   0.586   3.587   5.972  0.1271 -0.1961 -0.4843
 1894SOL    HW1 6126   0.557   3.665   5.925  2.4574 -0.0926 -1.9139
 1894SOL    HW2 6127   0.548   3.514   5.922  0.3224 -0.0273 -0.8870
 1895SOL     OW 6128   5.238   2.048   5.235 -0.0216  0.0053  0.7410
 1895SOL    HW1 6129   5.273   2.036   5.324  1.1853 -1.1655  0.1450
 1895SOL    HW2 6130   5.312   2.029   5.178 -1.2868 -1.2122 -0.5648
 1896SOL     OW 6131   5.721   2.570   0.931  0.7601  0.4335  0.3479
 1896SOL    HW1 6132   5.777   2.598   1.004  0.9739  0.6791  0.0920
 1896SOL    HW2 6133   5.782   2.551   0.860  0.7633 -2.3372  1.0021
 1897SOL     OW 6134   5.110   2.111   4.831 -0.4114  0.0970 -0.7855
 1897SOL    HW1 6135   5.105   2.051   4.906  1.8051  0.5966 -0.1560
 1897SOL    HW2 6136   5.023   2.151   4.826 -1.1200 -1.1772  0.4564
 1898SOL     OW 6137   0.097   0.518   3.116  0.1456 -0.1644  0.7250
 1898SOL    HW1 6138   0.044   0.540   3.193  0.4155  1.0225  0.5907
 1898SOL    HW2 6139   0.067   0.431   3.090 -1.8741  0.5551  0.5193
 1899SOL     OW 6140   3.437   5.913   5.445  0.4487 -0.0317 -0.2861
 1899SOL    HW1 6141   3.432   5.841   5.507  0.1946 -1.1557 -1.5554
 1899SOL    HW2 6142   3.355   5.906   5.395 -0.1790  1.9366  0.3838
 1900SOL     OW 6143   3.901   3.737   3.204  0.3147  0.5260  0.0780
 1900SOL    HW1 6144   3.819   3.689   3.193  1.0231 -1.0435  1.2130
 1900SOL    HW2 6145   3.907   3.753   3.298  3.1145 -3.0017  0.7197
 1901SOL     OW 6146   5.155   0.021   0.348  0.8406 -0.3342  0.1021
 1901SOL    HW1 6147   5.205  -0.042   0.399 -0.1683 -1.0455  0.2429
 1901SOL    HW2 6148   5.180   0.004   0.257  0.5463 -0.9823  0.1341
 1902SOL     OW 6149   4.342   3.020   0.010  0.3769  0.0116 -0.3543
 1902SOL    HW1 6150   4.276   2.956  -0.017 -0.5386  0.3829  0.9372
 1902SOL    HW2 6151   4.414   3.007  -0.052 -1.3664  0.4308 -2.5942
 1903SOL     OW 6152   2.309   4.886   1.197 -0.0453  0.9478 -0.4952
 1903SOL    HW1 6153   2.313   4.790   1.197  0.9345  0.9238  2.0482
 1903SOL    HW2 6154   2.295   4.909   1.105 -0.5676 -1.6227 -1.1409
 1904SOL     OW 6155   3.337   0.672   0.345 -0.1789  0.6526  0.2945
 1904SOL    HW1 6156   3.299   0.693   0.430 -0.4469  0.5182  0.2060
 1904SOL    HW2 6157   3.335   0.576   0.340  1.5674  0.5414  0.9423
 1905SOL     OW 6158   1.192   5.578   2.851 -0.3160 -0.0745 -0.0710
 1905SOL    HW1 6159   1.168   5.658   2.899  1.3919  0.2602  0.2709
 1905SOL    HW2 6160   1.217   5.516   2.919 -1.5544 -0.9124 -0.3451
 1906SOL     OW 6161   2.366   3.620   2.595 -0.1843 -0.0420 -0.3597
 1906SOL    HW1 6162   2.343   3.650   2.508  1.5473 -0.1929 -0.8982
 1906SOL    HW2 6163   2.319   3.537   2.605  0.8240 -0.8350 -1.8125
 1907SOL     OW 6164   4.572   3.463   4.678  0.1281  0.4729 -0.1032
 1907SOL    HW1 6165   4.588   3.418   4.761 -0.9802 -1.2039 -0.7523
 1907SOL    HW2 6166   4.623   3.544   4.685  2.1838 -0.8287  1.1433
 1908SOL     OW 6167   2.747   1.329   3.402 -0.5614  0.1067 -0.1683
 1908SOL    HW1 6168   2.831   1.351   3.362 -0.7945 -0.8230 -1.2187
 1908SOL    HW2 6169   2.732   1.400   3.465  1.1325  0.1442  0.2606
 1909SOL     OW 6170   1.306   2.687   0.491  0.1214 -0.1179  0.5735
 1909SOL    HW1 6171   1.364   2.728   0.427  0.7734 -1.0119  0.5826
 1909SOL    HW2 6172   1.219   2.721   0.470  0.2855 -0.5649 -0.9288
 1910SOL     OW 6173   2.472   2.874   2.231 -0.0745  0.2721  0.4589
 1910SOL    HW1 6174   2.380   2.849   2.226 -0.5771  1.9795  0.4880
 1910SOL    HW2 6175   2.518   2.809   2.177 -0.9850 -1.8329  2.1179
 1911SOL     OW 6176   0.821   1.859   3.747  0.0773 -0.2676  0.0169
 1911SOL    HW1 6177   0.836   1.801   3.672 -0.6773 -1.1924  0.5456
 1911SOL    HW2 6178   0.762   1.927   3.713 -0.1648 -0.6127 -0.2647
 1912SOL     OW 6179   3.464   0.704   2.179  0.3295  0.3319  0.4645
 1912SOL    HW1 6180   3.505   0.784   2.147 -0.2795  1.2720  1.9252
 1912SOL    HW2 6181   3.372   0.727   2.192 -0.2161 -1.0999 -0.6527
 1913SOL     OW 6182   5.492   0.833   4.388 -0.4985  0.2545  0.4510
 1913SOL    HW1 6183   5.474   0.756   4.442 -0.8296  0.8726  1.2305
 1913SOL    HW2 6184   5.588   0.839   4.388 -0.5026  0.3613  1.1255
 1914SOL     OW 6185   1.727   1.856   2.764  0.1198  0.0361 -0.5382
 1914SOL    HW1 6186   1.686   1.873   2.679 -0.3915 -1.4457 -0.6095
 1914SOL    HW2 6187   1.781   1.778   2.749  0.3995  0.0448  0.3767
 1915SOL     OW 6188   5.972   5.968   6.122  0.5599 -0.4365 -0.6389
 1915SOL    HW1 6189   5.955   6.024   6.198  0.9284 -1.3277  0.1107
 1915SOL    HW2 6190   5.885   5.952   6.084  0.4214  0.3963 -0.6930
 1916SOL     OW 6191   4.328   2.335   4.269  0.0023 -0.3700  0.0503
 1916SOL    HW1 6192   4.336   2.393   4.344 -0.0054  0.1175 -0.3261
 1916SOL    HW2 6193   4.297   2.390   4.198  0.4998 -0.7192 -0.4501
 1917SOL     OW 6194   2.530   1.410   3.195 -0.2228  0.2734  0.2788
 1917SOL    HW1 6195   2.564   1.451   3.116  0.2746  0.9325  0.8134
 1917SOL    HW2 6196   2.588   1.336   3.212 -0.5714 -0.1134 -0.1827
 1918SOL     OW 6197   2.937   1.211   0.056 -0.0361 -0.1859 -0.3158
 1918SOL    HW1 6198   2.874   1.271   0.016 -0.0150  0.0772  0.0342
 1918SOL    HW2 6199   2.914   1.125   0.021 -0.3084 -0.0282 -0.5324
 1919SOL     OW 6200   1.034   1.654   2.389  0.3290 -0.1011  0.3881
 1919SOL    HW1 6201   0.939   1.663   2.389  0.3402  0.0247  0.6971
 1919SOL    HW2 6202   1.061   1.696   2.307  0.1101 -0.2564  0.2339
 1920SOL     OW 6203   3.823   5.489   0.361  0.4757  0.1471  0.5930
 1920SOL    HW1 6204   3.834   5.556   0.429 -0.4268  1.8042 -0.8065
 1920SOL    HW2 6205   3.898   5.503   0.303  0.2191  0.0089  0.2317
 1921SOL     OW 6206   3.502   1.222   5.124  0.2113  0.0581  0.3378
 1921SOL    HW1 6207   3.540   1.160   5.062 -1.2808 -0.6095  0.0415
 1921SOL    HW2 6208   3.409   1.226   5.101 -0.2355  0.3818  2.0287
 1922SOL     OW 6209   1.932   5.455   5.729 -0.2764 -0.5078 -0.1683
 1922SOL    HW1 6210   1.904   5.404   5.653  0.0838  0.2607 -0.8283
 1922SOL    HW2 6211   2.023   5.476   5.712  0.2551 -1.5529  1.1782
 1923SOL     OW 6212   4.845   1.714   4.409 -0.4445  0.2802 -0.0917
 1923SOL    HW1 6213   4.752   1.703   4.429 -0.6611 -1.0560 -1.6397
 1923SOL    HW2 6214   4.847   1.743   4.318  0.6756 -1.1588 -0.5573
 1924SOL     OW 6215   4.799   1.013   0.270  0.3323  0.1901  0.0439
 1924SOL    HW1 6216   4.889   1.025   0.301  0.6536  0.3480 -0.9131
 1924SOL    HW2 6217   4.805   1.024   0.175 -0.7041  0.2278 -0.0265
 1925SOL     OW 6218   1.692   0.022   3.470  0.6848  0.0327 -0.2039
 1925SOL    HW1 6219   1.658   0.054   3.554 -1.0805  0.9226 -1.2225
 1925SOL    HW2 6220   1.668  -0.071   3.469 -0.6449  0.3551 -0.3396
 1926SOL     OW 6221   0.271   2.125   4.924 -0.1916 -0.0718 -0.4291
 1926SOL    HW1 6222   0.202   2.164   4.979  1.9090  1.5703  1.2235
 1926SOL    HW2 6223   0.253   2.160   4.837 -1.1021  0.8354  0.0854
 1927SOL     OW 6224   4.327   1.554   4.585 -0.1796 -0.3401  0.5454
 1927SOL    HW1 6225   4.252   1.497   4.603  0.1460 -0.7338  0.6696
 1927SOL    HW2 6226   4.397   1.494   4.558 -0.0359  0.0609 -0.0033
 1928SOL     OW 6227   0.937   6.038   3.242  0.1904 -0.3699  0.3919
 1928SOL    HW1 6228   0.905   6.011   3.328 -1.2580 -0.0248 -0.0024
 1928SOL    HW2 6229   0.946   5.957   3.193 -0.0367 -0.4822  0.5342
 1929SOL     OW 6230   1.231   5.401   3.066 -0.3587  0.6834  0.2554
 1929SOL    HW1 6231   1.169   5.333   3.041  1.0427  0.1335 -2.1318
 1929SOL    HW2 6232   1.265   5.373   3.151 -1.1646 -0.6082  0.1762
 1930SOL     OW 6233   1.884   2.072   5.245  0.7311  0.1858  0.0196
 1930SOL    HW1 6234   1.846   1.985   5.261  1.9619 -0.1940  1.0373
 1930SOL    HW2 6235   1.825   2.113   5.183 -0.4026 -1.0237  0.2647
 1931SOL     OW 6236   4.652   5.535   0.647 -0.0755  0.4329 -0.4888
 1931SOL    HW1 6237   4.691   5.496   0.569 -1.4825  0.0832 -1.0539
 1931SOL    HW2 6238   4.571   5.575   0.615 -0.4440  0.6765  0.7134
 1932SOL     OW 6239   3.588   4.241   3.078 -0.5799  0.4431 -0.3918
 1932SOL    HW1 6240   3.558   4.198   2.998  3.0399  0.3899 -1.8896
 1932SOL    HW2 6241   3.654   4.182   3.114  1.1049  2.5118  0.1011
 1933SOL     OW 6242   5.353   2.442   1.574  0.1150 -0.4485  0.5500
 1933SOL    HW1 6243   5.396   2.527   1.565 -0.6443  0.3735  3.5067
 1933SOL    HW2 6244   5.260   2.462   1.563  0.0822 -1.3958 -1.2066
 1934SOL     OW 6245   3.437   5.775   0.213 -0.3053 -0.1429 -0.0119
 1934SOL    HW1 6246   3.350   5.736   0.220 -2.2309  3.2957 -1.7482
 1934SOL    HW2 6247   3.465   5.756   0.124  0.3331 -0.5086  0.2648
 1935SOL     OW 6248   4.425   0.765   0.755  0.3786 -0.4534 -0.3525
 1935SOL    HW1 6249   4.348   0.711   0.773 -0.1959  0.5575  0.3986
 1935SOL    HW2 6250   4.468   0.723   0.681 -1.9318 -0.0375 -2.0394
 1936SOL     OW 6251   1.820   3.723   4.468 -0.3323 -0.0163 -0.4177
 1936SOL    HW1 6252   1.879   3.648   4.470 -1.4371 -0.9343 -1.3989
 1936SOL    HW2 6253   1.734   3.686   4.450 -1.2378  1.2994  0.9521
 1937SOL     OW 6254   5.120   0.195   4.722 -0.2822  0.3539 -0.0463
 1937SOL    HW1 6255   5.208   0.232   4.726 -0.4584  1.0835 -1.9844
 1937SOL    HW2 6256   5.129   0.119   4.665 -1.0061  0.7926 -0.7682
 1938SOL     OW 6257   0.693   2.818   5.653  0.2094  0.3864 -0.6475
 1938SOL    HW1 6258   0.686   2.742   5.710  2.3256 -0.4090 -1.3613
 1938SOL    HW2 6259   0.759   2.874   5.694  0.2972  0.7615 -1.2749
 1939SOL     OW 6260   1.056   1.714   2.880 -0.3348  0.1884 -0.4116
 1939SOL    HW1 6261   1.045   1.789   2.822 -0.3191  1.8820  1.6420
 1939SOL    HW2 6262   1.145   1.725   2.916  0.0647 -1.4150 -0.8594
 1940SOL     OW 6263   0.875   2.029   5.549 -0.5125  0.5922  0.4004
 1940SOL    HW1 6264   0.931   2.001   5.621 -0.1769  1.7601  0.6282
 1940SOL    HW2 6265   0.791   1.986   5.564 -0.2999  0.4597  1.2238
 1941SOL     OW 6266   5.886   1.792   0.100 -0.2149  0.0204 -0.0263
 1941SOL    HW1 6267   5.869   1.844   0.179 -0.5866  1.2121 -0.8624
 1941SOL    HW2 6268   5.853   1.846   0.028 -0.7217 -1.4347 -0.9309
 1942SOL     OW 6269   0.256   5.825   1.340 -0.5336  0.1543 -0.2348
 1942SOL    HW1 6270   0.227   5.915   1.325 -0.9156 -0.1399 -1.4156
 1942SOL    HW2 6271   0.176   5.774   1.344 -0.2774 -0.3747 -1.3978
 1943SOL     OW 6272   5.311   3.243   3.084 -0.0206 -0.2765 -0.3639
 1943SOL    HW1 6273   5.357   3.161   3.103 -1.0237 -0.3947  1.9028
 1943SOL    HW2 6274   5.321   3.255   2.989  0.8184 -2.6000 -0.6377
 1944SOL     OW 6275   3.672   4.162   1.861 -0.7942 -0.4658 -0.1633
 1944SOL    HW1 6276   3.700   4.128   1.776 -0.5764 -0.1614 -0.2126
 1944SOL    HW2 6277   3.746   4.214   1.892 -1.0216 -0.2613  0.0389
 1945SOL     OW 6278   3.966   4.844   2.628  0.1363  0.4465 -0.8446
 1945SOL    HW1 6279   3.985   4.779   2.560 -1.1926  0.5167 -1.3131
 1945SOL    HW2 6280   4.048   4.893   2.638  0.9294 -0.7917 -1.0223
 1946SOL     OW 6281   5.850   3.933   3.866  0.3822 -0.3021  0.1607
 1946SOL    HW1 6282   5.924   3.894   3.818  0.6203  0.5600 -0.1941
 1946SOL    HW2 6283   5.777   3.926   3.805  0.5150  0.1376 -0.0555
 1947SOL     OW 6284   4.014   2.982   3.694 -0.2625 -0.2707  0.6511
 1947SOL    HW1 6285   4.004   2.901   3.745  0.0659 -0.4136  0.4943
 1947SOL    HW2 6286   3.945   2.979   3.629 -0.0423 -0.5918  0.4291
 1948SOL     OW 6287   4.073   4.426   1.027 -0.2646 -0.5311 -0.5466
 1948SOL    HW1 6288   3.995   4.403   0.977 -0.5160  1.0539 -0.9163
 1948SOL    HW2 6289   4.136   4.457   0.962  0.1776 -0.4853 -0.1056
 1949SOL     OW 6290   5.088   3.161   2.853  0.0214 -0.6860  0.1831
 1949SOL    HW1 6291   5.114   3.217   2.780  0.8663  0.1034  1.0603
 1949SOL    HW2 6292   5.007   3.200   2.886  0.8648  0.3314  1.0952
 1950SOL     OW 6293   0.461   4.495   2.142 -0.3295  0.2960 -0.1911
 1950SOL    HW1 6294   0.511   4.426   2.186  0.8772  1.8369  0.9757
 1950SOL    HW2 6295   0.489   4.490   2.051  1.1592  0.3878  0.2299
 1951SOL     OW 6296   3.172   0.464   5.961 -0.2578  0.1992  0.3137
 1951SOL    HW1 6297   3.225   0.425   6.030 -0.3709  1.1306  0.9402
 1951SOL    HW2 6298   3.228   0.459   5.883  0.9335  1.5072  1.0405
 1952SOL     OW 6299   0.986   5.604   5.349  0.3641  0.0700 -0.3787
 1952SOL    HW1 6300   1.026   5.686   5.318  2.8113 -0.6996  0.5284
 1952SOL    HW2 6301   0.918   5.633   5.410  1.4302  1.4541  0.2158
 1953SOL     OW 6302   3.301   6.049   0.649  0.2313 -0.5037 -0.7257
 1953SOL    HW1 6303   3.313   6.070   0.742  1.8359 -0.4464 -0.9338
 1953SOL    HW2 6304   3.375   5.992   0.627 -1.0152 -1.8766 -1.5731
 1954SOL     OW 6305   4.116   0.285   1.624  0.7247  0.0881  0.0999
 1954SOL    HW1 6306   4.052   0.283   1.695  0.7656 -0.0110  0.1326
 1954SOL    HW2 6307   4.194   0.323   1.663  0.6444  0.3346  0.0267
 1955SOL     OW 6308   3.832   5.425   3.590 -0.2055  0.0948  0.4283
 1955SOL    HW1 6309   3.895   5.491   3.561 -1.8569  1.2187 -0.7537
 1955SOL    HW2 6310   3.793   5.463   3.669  0.3995 -0.4914  1.0215
 1956SOL     OW 6311   3.593   2.046   0.027  0.1188  0.2845 -0.2804
 1956SOL    HW1 6312   3.540   2.095  -0.036 -0.8247 -1.1763 -0.6725
 1956SOL    HW2 6313   3.543   2.050   0.108 -0.2156 -0.4499 -0.4478
 1957SOL     OW 6314   1.627   3.243   5.333 -0.5487 -0.4145 -0.4444
 1957SOL    HW1 6315   1.595   3.173   5.389 -0.8350 -0.3891 -0.5757
 1957SOL    HW2 6316   1.615   3.210   5.244 -1.5686  0.1740 -0.5390
 1958SOL     OW 6317   2.264   1.279   5.217  0.3771 -0.1369  0.0596
 1958SOL    HW1 6318   2.329   1.322   5.273  0.2857  0.4847 -0.2949
 1958SOL    HW2 6319   2.188   1.337   5.221  0.5620  0.2340 -1.1456
 1959SOL     OW 6320   1.984   5.447   2.482 -0.0441  0.4424 -0.1412
 1959SOL    HW1 6321   2.071   5.409   2.492  0.7072  2.4970  2.0254
 1959SOL    HW2 6322   1.971   5.499   2.562 -3.3842  0.0054 -0.2575
 1960SOL     OW 6323   5.362   4.949   3.368 -0.2290 -0.0200 -0.0859
 1960SOL    HW1 6324   5.402   4.940   3.454 -3.1245 -1.6958  1.2407
 1960SOL    HW2 6325   5.348   5.043   3.358  4.0979  0.7324 -0.8445
 1961SOL     OW 6326   0.394   1.824   3.875  0.4582  0.0959 -0.5425
 1961SOL    HW1 6327   0.465   1.781   3.829  0.9864  0.9060 -0.5006
 1961SOL    HW2 6328   0.384   1.774   3.956  1.4111  0.3530 -0.2553
 1962SOL     OW 6329   4.939   1.665   2.972 -0.5825  0.0091  0.1526
 1962SOL    HW1 6330   4.868   1.656   2.909  0.2179 -1.3514 -0.6200
 1962SOL    HW2 6331   5.007   1.714   2.926  0.1739 -1.3518 -0.2437
 1963SOL     OW 6332   3.740   3.347   2.426 -0.3597  0.2687 -0.0931
 1963SOL    HW1 6333   3.764   3.256   2.412  0.1269  0.7723 -3.5731
 1963SOL    HW2 6334   3.673   3.345   2.494 -0.6304 -2.7008 -0.3384
 1964SOL     OW 6335   4.290   1.814   4.390 -0.3159  0.1882 -0.0403
 1964SOL    HW1 6336   4.222   1.749   4.370 -0.8964  0.8472 -0.2338
 1964SOL    HW2 6337   4.359   1.797   4.324  0.6008 -1.7054  1.2913
 1965SOL     OW 6338   4.693   4.178   2.291 -0.0648  0.0682 -0.3753
 1965SOL    HW1 6339   4.744   4.255   2.264 -0.5761  0.5272 -0.0611
 1965SOL    HW2 6340   4.605   4.212   2.304 -0.3377 -0.6164 -0.4101
 1966SOL     OW 6341   5.567   1.760   1.920  0.1062  0.3391  0.1059
 1966SOL    HW1 6342   5.613   1.679   1.897 -1.3028 -0.3380 -0.3942
 1966SOL    HW2 6343   5.594   1.822   1.853  0.0841 -0.1324 -0.3471
 1967SOL     OW 6344   3.270   6.011   2.869  0.9185  0.2545  0.4568
 1967SOL    HW1 6345   3.270   5.962   2.787 -1.9115 -0.9656  1.0798
 1967SOL    HW2 6346   3.338   5.969   2.923  1.8805  0.2218 -0.7395
 1968SOL     OW 6347   3.122   3.567   3.043 -1.1927 -0.2347  0.2104
 1968SOL    HW1 6348   3.095   3.601   2.958  0.4415  0.5323 -0.0437
 1968SOL    HW2 6349   3.217   3.561   3.038 -0.9325  0.9449  2.3671
 1969SOL     OW 6350   5.156   4.079   3.555 -0.7403  0.0153 -0.5590
 1969SOL    HW1 6351   5.094   4.118   3.616 -2.0594  0.2890 -1.9958
 1969SOL    HW2 6352   5.191   4.153   3.505  0.8963 -0.1179  0.3083
 1970SOL     OW 6353   0.167   2.276   3.505  0.4531 -0.1991  0.1820
 1970SOL    HW1 6354   0.138   2.185   3.494  1.0315 -0.1521 -2.2251
 1970SOL    HW2 6355   0.152   2.316   3.420  1.0807  1.7279  0.9396
 1971SOL     OW 6356   4.897   1.415   4.581 -0.0989  0.1781  0.0189
 1971SOL    HW1 6357   4.852   1.357   4.519 -0.0421  0.2250 -0.0662
 1971SOL    HW2 6358   4.866   1.503   4.559 -1.4026  0.0327  1.1724
 1972SOL     OW 6359   1.299   5.949   2.956  0.2785 -0.6388  0.1052
 1972SOL    HW1 6360   1.214   5.905   2.961  0.3238 -0.5690  2.3001
 1972SOL    HW2 6361   1.282   6.026   2.902 -0.9799 -0.7857  0.2516
 1973SOL     OW 6362   5.552   3.014   6.072 -0.7110 -0.1796 -0.1945
 1973SOL    HW1 6363   5.531   2.944   6.133 -0.4529 -0.9611 -0.9761
 1973SOL    HW2 6364   5.509   2.988   5.990 -1.1350  0.8908 -0.3318
 1974SOL     OW 6365   5.097   1.171   2.022  0.4626  0.0480  0.0299
 1974SOL    HW1 6366   5.033   1.242   2.017 -0.9222 -0.8702  2.5600
 1974SOL    HW2 6367   5.067   1.107   1.956 -0.4295  0.2455  0.2280
 1975SOL     OW 6368   1.745   5.783   2.584  0.3318 -0.6018 -0.3840
 1975SOL    HW1 6369   1.768   5.869   2.547 -0.3378 -1.5009 -3.0679
 1975SOL    HW2 6370   1.672   5.802   2.644  0.5986  0.7625 -0.4497
 1976SOL     OW 6371   5.385   0.661   3.695 -0.2768  0.6397  0.0362
 1976SOL    HW1 6372   5.451   0.624   3.636  1.0966  0.7242  1.4457
 1976SOL    HW2 6373   5.308   0.606   3.683  0.7962 -0.9011 -0.0107
 1977SOL     OW 6374   4.006   6.032   4.196 -0.1253  0.0830 -0.0311
 1977SOL    HW1 6375   4.063   6.050   4.121  0.2962  0.0007  0.2659
 1977SOL    HW2 6376   3.980   5.941   4.185 -1.5285  0.5734 -1.0479
 1978SOL     OW 6377   2.029   0.599   6.023  0.5855 -0.5414  0.0649
 1978SOL    HW1 6378   2.117   0.572   5.997  0.3769 -1.9109  0.7186
 1978SOL    HW2 6379   1.976   0.520   6.014 -0.1284 -0.2832  1.7112
 1979SOL     OW 6380   4.684   6.016   2.043 -0.7869 -0.1857  0.0697
 1979SOL    HW1 6381   4.690   5.945   2.107 -0.9389  0.1671  0.4782
 1979SOL    HW2 6382   4.666   5.971   1.960 -2.4428 -0.5539  0.5759
 1980SOL     OW 6383   3.326   0.972   2.069 -0.3350 -0.2512 -0.0005
 1980SOL    HW1 6384   3.369   0.932   1.994  0.0941 -0.6510  0.4555
 1980SOL    HW2 6385   3.269   1.040   2.031  0.4200  0.0393 -0.6277
 1981SOL     OW 6386   0.016   0.908   3.703  0.3003  0.2760  0.5681
 1981SOL    HW1 6387   0.033   0.987   3.754  1.0766  1.0793 -0.8662
 1981SOL    HW2 6388  -0.070   0.878   3.732  0.4724  1.0137  1.9072
 1982SOL     OW 6389   5.449   2.241   3.609  0.7255  0.2760  0.7087
 1982SOL    HW1 6390   5.476   2.240   3.517 -0.5560  1.2168  0.2888
 1982SOL    HW2 6391   5.518   2.193   3.655  0.3425 -2.1285 -1.0187
 1983SOL     OW 6392   4.219   5.443   3.420  0.6466 -0.4912  0.0082
 1983SOL    HW1 6393   4.152   5.508   3.441  1.6807  1.1173 -1.4498
 1983SOL    HW2 6394   4.171   5.360   3.415 -0.8791  0.3004  0.8959
 1984SOL     OW 6395   3.200   1.512   3.365 -0.6315 -0.5180  0.3129
 1984SOL    HW1 6396   3.269   1.480   3.307 -1.5543  0.0623 -1.1734
 1984SOL    HW2 6397   3.243   1.577   3.421  0.3540 -1.3384  0.5361
 1985SOL     OW 6398   1.679   4.365   3.111 -0.1305 -0.2996  0.0291
 1985SOL    HW1 6399   1.686   4.424   3.186 -0.3559  0.2763 -0.3872
 1985SOL    HW2 6400   1.616   4.298   3.138  0.5265 -0.6491  0.6976
 1986SOL     OW 6401   3.658   4.285   1.276 -0.3692  0.1259 -0.3878
 1986SOL    HW1 6402   3.650   4.191   1.258 -0.3079  0.4107 -2.0589
 1986SOL    HW2 6403   3.731   4.291   1.338  0.2596 -0.8618 -0.9944
 1987SOL     OW 6404   0.824   4.174   4.114  0.0269 -0.4184  0.6634
 1987SOL    HW1 6405   0.740   4.173   4.067 -0.2975  0.4892  1.2116
 1987SOL    HW2 6406   0.828   4.088   4.156 -1.6714  0.2703  2.4167
 1988SOL     OW 6407   5.435   5.116   0.981  0.1749  0.2774  0.2572
 1988SOL    HW1 6408   5.445   5.021   0.987 -1.6808  0.1100  1.6053
 1988SOL    HW2 6409   5.347   5.128   0.945  0.1546  1.4724  0.6753
 1989SOL     OW 6410   2.180   4.727   1.986  0.2430 -0.0587  0.2013
 1989SOL    HW1 6411   2.197   4.634   1.997 -3.1489 -0.5599  2.9198
 1989SOL    HW2 6412   2.108   4.731   1.923 -0.2181  0.6326  0.7611
 1990SOL     OW 6413   5.341   3.437   1.652  0.0904  0.1230 -0.0134
 1990SOL    HW1 6414   5.308   3.435   1.562  0.2355  0.4626 -0.0769
 1990SOL    HW2 6415   5.383   3.352   1.665 -0.9569 -0.3870  0.1276
 1991SOL     OW 6416   0.010   0.243   3.048  0.0602  0.0585  0.3752
 1991SOL    HW1 6417   0.047   0.204   2.969 -1.1481  0.0593 -0.2185
 1991SOL    HW2 6418  -0.079   0.270   3.022 -1.0003 -1.4558  2.1628
 1992SOL     OW 6419   2.316   4.216   2.599 -0.5299 -0.8954  0.4066
 1992SOL    HW1 6420   2.288   4.185   2.685  0.3001 -2.7669  0.0590
 1992SOL    HW2 6421   2.374   4.147   2.567  2.0453  1.3262 -0.1693
 1993SOL     OW 6422   0.499   5.900   3.064 -0.2425  0.1136  0.1846
 1993SOL    HW1 6423   0.544   5.902   3.149  0.4561 -1.7829 -0.1082
 1993SOL    HW2 6424   0.407   5.921   3.085 -0.1596 -0.7216  1.4644
 1994SOL     OW 6425   1.114   4.856   5.515  1.2251  0.2902 -0.1599
 1994SOL    HW1 6426   1.043   4.842   5.452  0.7858  0.9662  0.1731
 1994SOL    HW2 6427   1.078   4.917   5.579  1.6668 -0.3619  0.7457
 1995SOL     OW 6428   3.049   5.842   5.132 -0.0285  0.2243 -0.3150
 1995SOL    HW1 6429   3.138   5.875   5.123  0.4343 -0.9587 -0.2635
 1995SOL    HW2 6430   3.060   5.753   5.166 -1.1420 -0.4877 -1.7055
 1996SOL     OW 6431   5.010   2.879   5.986  1.0162  0.0802 -0.3180
 1996SOL    HW1 6432   5.076   2.932   5.942  1.0177  0.6118  0.3211
 1996SOL    HW2 6433   4.990   2.809   5.923  1.7453  0.2558 -0.7533
 1997SOL     OW 6434   1.807   2.097   0.013 -0.0423 -0.0443 -0.0427
 1997SOL    HW1 6435   1.873   2.042  -0.030 -0.3920  0.5777 -1.4291
 1997SOL    HW2 6436   1.723   2.061  -0.017 -0.3121  0.0612  0.5702
 1998SOL     OW 6437   5.106   4.673   4.037  0.4573 -0.1929  1.3223
 1998SOL    HW1 6438   5.115   4.748   4.095  1.4044  0.8866 -0.1527
 1998SOL    HW2 6439   5.019   4.684   3.997  1.2069  1.0402 -0.0629
 1999SOL     OW 6440   5.728   4.164   2.210  0.3792  0.0117 -0.1627
 1999SOL    HW1 6441   5.655   4.225   2.225 -0.4802 -0.8701 -0.6292
 1999SOL    HW2 6442   5.804   4.220   2.197 -0.0657  0.9473  1.0310
 2000SOL     OW 6443   5.305   2.557   2.350 -0.2037 -0.0310  0.0697
 2000SOL    HW1 6444   5.234   2.507   2.309  0.9282 -1.4859 -0.2191
 2000SOL    HW2 6445   5.323   2.628   2.289 -1.7910  0.7410  0.4409
 2001SOL     OW 6446   2.951   4.042   1.729  0.0097 -0.1583  0.0475
 2001SOL    HW1 6447   2.961   4.125   1.775 -1.2116 -0.8738  1.6838
 2001SOL    HW2 6448   3.028   3.990   1.755  0.1598  0.0289 -0.0231
 2002SOL     OW 6449   5.880   3.547   6.078 -0.2385  0.5285 -0.4891
 2002SOL    HW1 6450   5.802   3.587   6.040 -0.7944 -0.6327 -0.6206
 2002SOL    HW2 6451   5.953   3.596   6.041 -0.8634  0.9652 -1.1756
 2003SOL     OW 6452   0.670   2.724   5.245 -0.2980  0.0480  0.0438
 2003SOL    HW1 6453   0.757   2.720   5.284 -0.6861 -1.9949  0.7986
 2003SOL    HW2 6454   0.613   2.681   5.308 -1.4146 -0.9119 -1.5509
 2004SOL     OW 6455   5.189   4.701   5.133  0.6831 -0.1604  0.1396
 2004SOL    HW1 6456   5.199   4.718   5.039  1.3153  1.0038  0.3952
 2004SOL    HW2 6457   5.208   4.786   5.174  0.5970 -0.7052  1.3283
 2005SOL     OW 6458   5.084   3.749   1.386  0.3308  0.3106  0.1189
 2005SOL    HW1 6459   5.151   3.762   1.453 -0.1429 -1.0678  0.8977
 2005SOL    HW2 6460   5.088   3.655   1.366 -0.6236  0.4065 -0.6028
 2006SOL     OW 6461   1.842   1.358   4.910 -0.2109 -0.0943  0.6548
 2006SOL    HW1 6462   1.755   1.331   4.882 -0.7829  0.8890  1.4134
 2006SOL    HW2 6463   1.864   1.299   4.982 -1.1665  0.9411  1.8525
 2007SOL     OW 6464   1.768   1.600   6.066  0.3659  0.2513  0.3052
 2007SOL    HW1 6465   1.687   1.577   6.111  0.4026  1.0081  0.7780
 2007SOL    HW2 6466   1.827   1.628   6.136  1.2150 -0.7917  0.0170
 2008SOL     OW 6467   1.977   2.123   3.302  0.1216 -0.2190 -0.0834
 2008SOL    HW1 6468   2.026   2.103   3.222  1.3257  0.9619  0.3122
 2008SOL    HW2 6469   2.036   2.095   3.373  0.5991  1.8995  0.4231
 2009SOL     OW 6470   0.721   2.729   2.778 -0.1075  0.4172  0.3855
 2009SOL    HW1 6471   0.810   2.755   2.755  0.2210 -0.0541  1.0717
 2009SOL    HW2 6472   0.711   2.642   2.737 -0.5575  0.8236 -0.3909
 2010SOL     OW 6473   4.310   0.235   6.124 -0.0038 -1.0846  0.3169
 2010SOL    HW1 6474   4.364   0.299   6.078 -1.8541  1.8967  2.0096
 2010SOL    HW2 6475   4.262   0.190   6.054  1.1692 -0.5129 -0.9126
 2011SOL     OW 6476   4.129   2.401   4.766 -0.8989 -0.3478  0.3021
 2011SOL    HW1 6477   4.039   2.418   4.737 -1.0959  0.4417  1.3076
 2011SOL    HW2 6478   4.127   2.312   4.802 -1.4129 -0.1234  0.8313
 2012SOL     OW 6479   5.005   5.742   1.307 -0.5590  0.1835 -0.4739
 2012SOL    HW1 6480   4.919   5.704   1.290 -0.2040  0.1683 -2.5161
 2012SOL    HW2 6481   4.994   5.836   1.290 -0.1454  0.1668 -0.8326
 2013SOL     OW 6482   4.025   3.381   1.131 -0.2263  0.2997  0.5032
 2013SOL    HW1 6483   3.938   3.420   1.145 -0.4516  0.3181 -0.7499
 2013SOL    HW2 6484   4.023   3.300   1.181 -1.3648 -0.2045 -0.2985
 2014SOL     OW 6485   4.942   4.859   4.865 -0.1203  0.1361  0.4747
 2014SOL    HW1 6486   5.037   4.856   4.876  0.1545  0.4754 -1.4472
 2014SOL    HW2 6487   4.927   4.929   4.801 -1.5152 -0.9631 -0.4915
 2015SOL     OW 6488   3.555   0.005   0.223  0.2829 -0.3917  0.0617
 2015SOL    HW1 6489   3.527   0.045   0.305  1.1104  0.4317 -0.0288
 2015SOL    HW2 6490   3.603  -0.074   0.250 -0.8519 -1.0330  0.2718
 2016SOL     OW 6491   1.562   2.238   5.572  0.0175  0.2734  0.1892
 2016SOL    HW1 6492   1.598   2.326   5.584 -0.8079  0.4127  1.9152
 2016SOL    HW2 6493   1.611   2.184   5.633 -0.4467 -0.1778  0.1683
 2017SOL     OW 6494   1.459   5.827   4.165  0.0624 -0.9108 -0.7215
 2017SOL    HW1 6495   1.548   5.843   4.133 -0.1795  2.4776 -0.1151
 2017SOL    HW2 6496   1.467   5.827   4.260 -0.6245  0.2589 -0.6357
 2018SOL     OW 6497   3.060   3.898   0.336 -0.7553 -0.6815  0.1408
 2018SOL    HW1 6498   3.055   3.931   0.425  0.3527  0.7399 -0.2950
 2018SOL    HW2 6499   2.969   3.901   0.304 -0.9044  0.4958  0.6290
 2019SOL     OW 6500   4.367   3.636   3.758  0.3130  0.3202  0.1036
 2019SOL    HW1 6501   4.456   3.634   3.723  0.7323 -1.2864  1.1352
 2019SOL    HW2 6502   4.373   3.688   3.838  0.3558  0.0975  0.2456
 2020SOL     OW 6503   3.247   4.827   4.751  0.0744 -0.1017  0.4517
 2020SOL    HW1 6504   3.240   4.921   4.769  0.4702  0.3844 -1.6582
 2020SOL    HW2 6505   3.199   4.785   4.822 -1.3461  1.7768  0.6785
 2021SOL     OW 6506   1.905   2.252   3.656  0.4988  0.3424 -0.1600
 2021SOL    HW1 6507   1.972   2.239   3.589  0.1059 -0.2549 -0.4472
 2021SOL    HW2 6508   1.914   2.176   3.714 -1.1377 -0.7606 -1.2653
 2022SOL     OW 6509   3.614   1.004   1.753  0.3092  0.7398  0.4653
 2022SOL    HW1 6510   3.670   0.986   1.677  1.2292  0.1038  1.2654
 2022SOL    HW2 6511   3.546   1.062   1.719  1.5601  1.7115 -0.5005
 2023SOL     OW 6512   5.513   1.216   2.638  0.3850  0.0398 -0.4296
 2023SOL    HW1 6513   5.426   1.179   2.625  0.8831 -1.1866 -0.4155
 2023SOL    HW2 6514   5.498   1.310   2.644 -1.0853 -0.2350  0.8822
 2024SOL     OW 6515   4.039   2.415   2.733  0.1869 -0.1717 -0.0708
 2024SOL    HW1 6516   4.077   2.334   2.767 -1.7338 -0.6139  1.1833
 2024SOL    HW2 6517   4.004   2.392   2.647  1.6927 -0.0334 -0.7509
 2025SOL     OW 6518   1.177   2.283   6.047  0.4157 -0.6057 -0.3974
 2025SOL    HW1 6519   1.102   2.338   6.071  2.1217  1.9574 -0.5449
 2025SOL    HW2 6520   1.230   2.280   6.127  2.3605  1.5320 -1.5079
 2026SOL     OW 6521   0.428   1.662   5.525 -0.0825  1.1169  0.2056
 2026SOL    HW1 6522   0.395   1.665   5.435  3.5583 -0.7030 -1.4427
 2026SOL    HW2 6523   0.482   1.740   5.533 -0.8508  1.5725  1.0769
 2027SOL     OW 6524   1.857   2.220   4.824 -0.8348  0.1153  0.6392
 2027SOL    HW1 6525   1.919   2.180   4.764 -0.2890  0.0520  1.2366
 2027SOL    HW2 6526   1.883   2.312   4.828 -1.8967  0.4977 -0.4934
 2028SOL     OW 6527   3.703   0.495   3.294  0.4529 -0.3789  0.4092
 2028SOL    HW1 6528   3.754   0.537   3.364 -0.0555 -0.2163  0.6825
 2028SOL    HW2 6529   3.618   0.538   3.297 -0.3625 -1.9778  1.2160
 2029SOL     OW 6530   2.448   0.537   2.420 -0.9605  0.7138 -0.1805
 2029SOL    HW1 6531   2.428   0.625   2.388 -1.5977  0.7722  0.3549
 2029SOL    HW2 6532   2.390   0.525   2.495  0.4723  0.5639  0.9500
 2030SOL     OW 6533   0.422   2.923   4.439 -0.6219 -0.7427 -0.1533
 2030SOL    HW1 6534   0.377   2.865   4.501 -0.4632  0.8892  1.5747
 2030SOL    HW2 6535   0.514   2.920   4.467 -0.7807  1.1486  0.6975
 2031SOL     OW 6536   1.996   1.404   3.280 -0.2383  0.5023 -0.1673
 2031SOL    HW1 6537   2.086   1.411   3.312  0.0156 -1.2495 -0.3799
 2031SOL    HW2 6538   1.942   1.422   3.357  0.3242  0.0281  0.3576
 2032SOL     OW 6539   5.560   1.011   0.771  0.2792  0.5333  0.1367
 2032SOL    HW1 6540   5.629   1.078   0.771  0.6115  0.1915  0.0710
 2032SOL    HW2 6541   5.602   0.933   0.808  0.2271  0.0215 -0.8720
 2033SOL     OW 6542   1.430   1.869   4.174 -0.0726 -0.0547  0.9423
 2033SOL    HW1 6543   1.361   1.870   4.109  1.2288 -0.2372 -0.5111
 2033SOL    HW2 6544   1.433   1.958   4.208  0.3036  0.5107 -0.4933
 2034SOL     OW 6545   0.024   2.372   5.891 -0.0158  0.1398  0.2419
 2034SOL    HW1 6546   0.081   2.447   5.910  1.4312 -0.3839 -1.6784
 2034SOL    HW2 6547   0.028   2.362   5.796 -1.3856 -1.4598  0.3028
 2035SOL     OW 6548   0.273   3.204   2.946 -0.0687 -0.3336 -0.7387
 2035SOL    HW1 6549   0.274   3.294   2.912 -0.6077 -0.4451 -1.0622
 2035SOL    HW2 6550   0.268   3.215   3.041 -0.2600 -0.0246 -0.7831
 2036SOL     OW 6551   0.148   2.600   3.190  0.0306 -0.0263 -0.5414
 2036SOL    HW1 6552   0.131   2.611   3.283 -1.0056  0.4441 -0.7603
 2036SOL    HW2 6553   0.187   2.682   3.162  1.7039 -0.7008 -0.2569
 2037SOL     OW 6554   2.355   3.208   1.243 -0.2240  0.5723 -0.2006
 2037SOL    HW1 6555   2.359   3.289   1.191  0.9309  0.3287 -0.5328
 2037SOL    HW2 6556   2.447   3.185   1.258 -0.5304  0.2811  1.4141
 2038SOL     OW 6557   4.596   5.976   3.144  0.6398 -0.0925  0.1317
 2038SOL    HW1 6558   4.653   5.904   3.172 -0.5316 -0.6308  1.2329
 2038SOL    HW2 6559   4.598   6.039   3.216  0.5024  0.2866 -0.1897
 2039SOL     OW 6560   2.060   4.279   1.100  0.1719  0.1496 -0.3465
 2039SOL    HW1 6561   2.043   4.215   1.031  0.7188  0.9087 -1.2046
 2039SOL    HW2 6562   2.080   4.226   1.177  0.1630 -0.7172 -0.9250
 2040SOL     OW 6563   5.125   4.693   3.056 -0.2528  0.1684 -0.4136
 2040SOL    HW1 6564   5.101   4.786   3.055 -2.5357 -0.3211  0.9245
 2040SOL    HW2 6565   5.050   4.649   3.014  1.9836 -0.9377 -3.6470
 2041SOL     OW 6566   2.876   1.388   4.659  0.2157  0.2603  0.1762
 2041SOL    HW1 6567   2.791   1.395   4.703  0.0141  0.7550 -0.2791
 2041SOL    HW2 6568   2.920   1.315   4.703 -0.7852 -0.5557 -0.1392
 2042SOL     OW 6569   4.089   1.634   0.718  0.0351  0.5128 -0.1962
 2042SOL    HW1 6570   4.162   1.579   0.746  1.2174  1.1055 -1.9742
 2042SOL    HW2 6571   4.114   1.722   0.745 -1.7061  0.3645  2.3492
 2043SOL     OW 6572   0.214   0.252   0.759 -0.1181  0.2880  1.0125
 2043SOL    HW1 6573   0.208   0.338   0.718  0.6901 -0.6739 -1.3206
 2043SOL    HW2 6574   0.301   0.220   0.735 -0.2256 -1.0049  2.2238
 2044SOL     OW 6575   2.911   5.761   3.761  0.1264  0.5974 -0.0147
 2044SOL    HW1 6576   2.882   5.811   3.837  0.3455 -1.0596  1.2295
 2044SOL    HW2 6577   2.864   5.799   3.687 -2.9988 -0.0302  1.4547
 2045SOL     OW 6578   0.413   2.368   2.756 -0.0789 -0.4946  0.0780
 2045SOL    HW1 6579   0.430   2.300   2.690 -1.1086 -0.7975  0.1039
 2045SOL    HW2 6580   0.352   2.428   2.713  1.8048  1.1666 -0.4038
 2046SOL     OW 6581   2.777   3.398   3.547 -0.0775  0.0761  0.0456
 2046SOL    HW1 6582   2.840   3.463   3.515  0.7788 -1.5470 -1.7848
 2046SOL    HW2 6583   2.691   3.439   3.531  0.4414  1.1014 -0.2281
 2047SOL     OW 6584   3.319   5.668   5.130  0.1581 -0.3875 -0.0630
 2047SOL    HW1 6585   3.331   5.673   5.225  2.8075 -2.2018 -0.1870
 2047SOL    HW2 6586   3.333   5.575   5.110 -0.4777 -0.0562 -2.2408
 2048SOL     OW 6587   0.142   4.293   1.816 -0.2140  0.5598  0.8925
 2048SOL    HW1 6588   0.196   4.267   1.890  1.0760  2.4588  0.7082
 2048SOL    HW2 6589   0.086   4.218   1.799 -0.1736 -0.1267  3.4227
 2049SOL     OW 6590   4.296   3.448   5.109  0.7083  0.1408  0.0182
 2049SOL    HW1 6591   4.272   3.537   5.084 -2.5097 -0.5779  0.1288
 2049SOL    HW2 6592   4.306   3.451   5.204 -0.6439  0.1953  0.1811
 2050SOL     OW 6593   2.231   5.795   3.153  0.3242  0.3986 -0.1359
 2050SOL    HW1 6594   2.315   5.826   3.186  1.3059 -1.5278 -0.6447
 2050SOL    HW2 6595   2.195   5.869   3.105  0.5577  2.0658  2.0617
 2051SOL     OW 6596   4.387   5.268   1.971  0.2574  0.1820  0.8241
 2051SOL    HW1 6597   4.476   5.284   1.940 -0.0658  1.5611  0.5374
 2051SOL    HW2 6598   4.334   5.263   1.891 -0.0769  0.4194  1.0258
 2052SOL     OW 6599   4.885   4.203   6.049  0.2629 -0.0674 -0.3626
 2052SOL    HW1 6600   4.866   4.159   5.966  0.6844 -3.1297  1.0161
 2052SOL    HW2 6601   4.977   4.228   6.042 -0.0035  0.7118 -1.2193
 2053SOL     OW 6602   0.898   0.175   1.756 -0.0626 -0.1755  0.1664
 2053SOL    HW1 6603   0.851   0.183   1.673 -0.9699  0.1361  0.6981
 2053SOL    HW2 6604   0.920   0.083   1.762 -1.6773 -0.5716  0.4605
 2054SOL     OW 6605   2.740   0.948   3.133  0.5718 -0.1797  0.1166
 2054SOL    HW1 6606   2.686   0.875   3.101 -0.6185  1.0432 -0.8225
 2054SOL    HW2 6607   2.786   0.912   3.208 -1.8436 -1.2288  1.2312
 2055SOL     OW 6608   4.063   1.664   5.022 -0.4109  0.1627 -0.3006
 2055SOL    HW1 6609   4.117   1.717   5.081  0.2578 -0.3142 -0.4728
 2055SOL    HW2 6610   4.119   1.590   4.999 -0.4433  0.6398 -1.9958
 2056SOL     OW 6611   0.561   2.663   2.996  0.8115 -0.1732 -0.7401
 2056SOL    HW1 6612   0.606   2.703   3.070 -1.1542  1.3574 -0.2614
 2056SOL    HW2 6613   0.612   2.688   2.919 -0.2318  3.4086 -0.4584
 2057SOL     OW 6614   0.185   2.581   4.334  0.4016 -0.4870 -0.5773
 2057SOL    HW1 6615   0.168   2.507   4.276  0.2745 -1.7122  0.9606
 2057SOL    HW2 6616   0.100   2.624   4.344  0.0995 -1.1674 -0.1321
 2058SOL     OW 6617   3.609   0.504   4.577 -0.2012  0.3880 -0.0876
 2058SOL    HW1 6618   3.695   0.470   4.552  0.3573  0.1401  1.9702
 2058SOL    HW2 6619   3.595   0.579   4.519  1.2676  0.2769 -0.6381
 2059SOL     OW 6620   1.208   5.532   3.884 -0.1141 -0.2399  0.2931
 2059SOL    HW1 6621   1.221   5.447   3.840 -1.6308 -0.1967 -0.2962
 2059SOL    HW2 6622   1.131   5.569   3.842 -1.4244 -0.0121  2.7426
 2060SOL     OW 6623   0.620   5.641   2.541 -0.6692  0.1825  0.1595
 2060SOL    HW1 6624   0.660   5.720   2.578 -1.0969  0.4684  0.0192
 2060SOL    HW2 6625   0.544   5.624   2.597 -0.6781 -0.0316  0.0840
 2061SOL     OW 6626   1.871   2.243   1.008 -0.0731  0.4283  0.2192
 2061SOL    HW1 6627   1.785   2.237   1.050  0.5978 -1.7586  1.4633
 2061SOL    HW2 6628   1.860   2.199   0.924 -1.0214  3.4453 -1.3901
 2062SOL     OW 6629   3.100   2.396   0.246 -0.3614 -0.3797  0.5830
 2062SOL    HW1 6630   3.152   2.463   0.290  1.0804  0.8597 -2.6499
 2062SOL    HW2 6631   3.021   2.441   0.217  0.3130 -0.1615 -1.0329
 2063SOL     OW 6632   0.649   2.828   3.251 -0.0035 -0.0576 -0.0588
 2063SOL    HW1 6633   0.593   2.758   3.284  1.3899 -1.5908 -0.8194
 2063SOL    HW2 6634   0.666   2.883   3.328 -1.3518 -0.3617  0.4868
 2064SOL     OW 6635   4.410   5.107   0.604 -0.0127  0.0604 -0.4707
 2064SOL    HW1 6636   4.370   5.185   0.641 -0.4646 -0.8788  1.1224
 2064SOL    HW2 6637   4.340   5.067   0.552  0.2662  0.7791 -1.4144
 2065SOL     OW 6638   0.838   6.095   3.958 -0.4625 -0.1515 -0.1220
 2065SOL    HW1 6639   0.873   6.009   3.935 -0.7596 -0.2218 -0.3115
 2065SOL    HW2 6640   0.857   6.150   3.883  0.5202  0.1849  0.3498
 2066SOL     OW 6641   6.115   1.324   0.068  0.7544  0.2616  0.3143
 2066SOL    HW1 6642   6.120   1.231   0.047  0.3025  0.2767  0.1176
 2066SOL    HW2 6643   6.162   1.367  -0.003  1.0210  0.1819  0.4401
 2067SOL     OW 6644   1.050   1.570   5.070  0.3850 -0.4210  0.6078
 2067SOL    HW1 6645   1.116   1.616   5.019  3.6951 -3.2434  1.9023
 2067SOL    HW2 6646   1.011   1.507   5.009 -0.8963  0.9727 -0.0589
 2068SOL     OW 6647   2.550   0.295   0.209  0.3878 -0.0975  0.2043
 2068SOL    HW1 6648   2.581   0.266   0.295 -0.8265 -1.0226  0.3543
 2068SOL    HW2 6649   2.515   0.383   0.225  0.0471 -0.3179  0.7015
 2069SOL     OW 6650   4.980   2.408   4.274  0.1890  0.0481 -0.6426
 2069SOL    HW1 6651   4.904   2.464   4.286  0.1427 -0.3098  0.9436
 2069SOL    HW2 6652   4.953   2.346   4.206 -1.3922 -0.7993  0.6823
 2070SOL     OW 6653   3.577   3.078   5.784  0.0692  0.3813 -0.1991
 2070SOL    HW1 6654   3.640   3.140   5.819  1.2521 -0.8969  0.0386
 2070SOL    HW2 6655   3.525   3.051   5.860  0.5764 -0.0575 -0.0015
 2071SOL     OW 6656   3.175   0.277   5.196 -0.1366  0.0798 -0.1739
 2071SOL    HW1 6657   3.204   0.187   5.179  2.0509  0.5689  0.5818
 2071SOL    HW2 6658   3.230   0.306   5.269 -3.3623  0.8298  2.1561
 2072SOL     OW 6659   2.308   4.769   0.728 -0.0634  0.3983 -0.0181
 2072SOL    HW1 6660   2.390   4.783   0.775  0.0601 -0.8963  0.1917
 2072SOL    HW2 6661   2.267   4.856   0.726  0.3967  0.6994  1.6001
 2073SOL     OW 6662   5.696   0.939   3.133 -0.0529  0.6067  0.0204
 2073SOL    HW1 6663   5.629   0.952   3.066 -0.6083 -1.0223  0.2251
 2073SOL    HW2 6664   5.729   1.027   3.151 -2.1997  1.4834 -0.0011
 2074SOL     OW 6665   5.484   0.562   4.521 -0.5302 -0.7334  0.1648
 2074SOL    HW1 6666   5.568   0.544   4.563  0.1939  0.8087 -0.5629
 2074SOL    HW2 6667   5.479   0.499   4.449 -0.4006 -1.3964  0.7258
 2075SOL     OW 6668   1.719   5.225   5.979  0.3897  0.2518  0.2849
 2075SOL    HW1 6669   1.682   5.230   6.068  1.2117 -1.1762  0.7349
 2075SOL    HW2 6670   1.742   5.133   5.968  0.6910  0.4914 -1.2672
 2076SOL     OW 6671   0.941   5.984   5.096 -0.2543 -0.6597 -0.0857
 2076SOL    HW1 6672   0.943   5.920   5.025 -1.5204 -0.9016  0.0618
 2076SOL    HW2 6673   0.911   6.065   5.053  3.0922  0.4472 -0.6601
 2077SOL     OW 6674   2.850   2.139   2.722 -0.1911  0.4660 -0.0450
 2077SOL    HW1 6675   2.770   2.095   2.694  0.1618 -0.0992 -0.1697
 2077SOL    HW2 6676   2.920   2.096   2.673  0.2749  0.4266  0.6460
 2078SOL     OW 6677   3.111   2.106   5.402  0.1345 -0.0599  0.2290
 2078SOL    HW1 6678   3.185   2.163   5.423  0.6556 -1.4983  2.5803
 2078SOL    HW2 6679   3.038   2.167   5.387  1.5552  1.3554 -1.5037
 2079SOL     OW 6680   3.381   4.430   3.670 -0.1009  0.0841 -0.5980
 2079SOL    HW1 6681   3.453   4.439   3.732 -0.3786 -1.0026 -0.0890
 2079SOL    HW2 6682   3.355   4.520   3.649 -0.1827  0.4780  1.0937
 2080SOL     OW 6683   3.182   4.946   0.410  0.0450 -0.2171 -0.1088
 2080SOL    HW1 6684   3.225   5.026   0.379 -1.0499  0.2021 -0.5831
 2080SOL    HW2 6685   3.126   4.975   0.481  0.3090 -0.7163  0.3111
 2081SOL     OW 6686   1.154   1.630   5.835  0.2446  0.0216 -0.2695
 2081SOL    HW1 6687   1.064   1.602   5.852  0.5580 -0.2056  1.1843
 2081SOL    HW2 6688   1.193   1.636   5.922  2.5513 -2.8611 -0.9774
 2082SOL     OW 6689   4.609   2.420   0.131  0.2497 -0.2032  0.3018
 2082SOL    HW1 6690   4.597   2.381   0.218 -1.4735  0.3767  0.3593
 2082SOL    HW2 6691   4.703   2.414   0.115  0.2480 -3.4995  0.7216
 2083SOL     OW 6692   0.263   1.264   2.038 -0.4199  0.5877  0.2225
 2083SOL    HW1 6693   0.286   1.349   2.076 -1.2084  0.2310  1.5881
 2083SOL    HW2 6694   0.276   1.202   2.111  0.7298 -0.5681 -0.9082
 2084SOL     OW 6695   0.371   1.955   1.548  0.4087 -0.1357 -0.1260
 2084SOL    HW1 6696   0.412   1.968   1.462  0.1435  0.5720 -0.1574
 2084SOL    HW2 6697   0.285   1.920   1.528 -0.9629  3.0245 -0.4053
 2085SOL     OW 6698   5.352   2.480   1.972  0.3848 -0.1045  0.3028
 2085SOL    HW1 6699   5.268   2.477   1.927  0.6863 -0.8953 -0.2529
 2085SOL    HW2 6700   5.364   2.391   2.007  1.4281 -0.3096 -0.5077
 2086SOL     OW 6701   4.083   5.522   5.926  0.1101  0.5006  0.4097
 2086SOL    HW1 6702   4.116   5.435   5.904  1.2074  1.2356 -1.0692
 2086SOL    HW2 6703   4.158   5.580   5.910 -0.5988  1.7220  1.3667
 2087SOL     OW 6704   0.908   5.352   4.025 -0.7353 -0.2130 -0.4557
 2087SOL    HW1 6705   0.913   5.374   3.932  1.8023  1.1311 -0.0984
 2087SOL    HW2 6706   0.968   5.277   4.035 -0.8236 -0.2089  0.1353
 2088SOL     OW 6707   0.289   2.284   1.467 -0.1071  0.0282  0.5551
 2088SOL    HW1 6708   0.348   2.357   1.449  0.5385 -0.5212  0.4002
 2088SOL    HW2 6709   0.336   2.207   1.436 -1.6254 -0.2543 -1.2030
 2089SOL     OW 6710   3.792   4.461   4.543  0.5396  0.2371  0.1162
 2089SOL    HW1 6711   3.763   4.380   4.584  0.1497  0.5853  0.5440
 2089SOL    HW2 6712   3.731   4.474   4.470  1.4942 -0.6044 -0.8569
 2090SOL     OW 6713   5.272   6.095   2.084  0.3272 -0.5016  0.0051
 2090SOL    HW1 6714   5.277   6.023   2.021  0.5715  0.2569 -0.8676
 2090SOL    HW2 6715   5.180   6.102   2.106  0.3215 -1.1710  0.2089
 2091SOL     OW 6716   4.970   2.649   5.464 -0.0776  0.2556  0.2593
 2091SOL    HW1 6717   4.885   2.669   5.503 -0.1674  1.2173 -0.3862
 2091SOL    HW2 6718   5.016   2.733   5.461  0.3521  0.0084 -0.6468
 2092SOL     OW 6719   5.024   0.060   5.883 -0.0172 -0.2086 -0.1281
 2092SOL    HW1 6720   5.044   0.103   5.966  0.7906 -0.3144 -0.2664
 2092SOL    HW2 6721   5.042   0.127   5.817 -3.7392  1.0488 -0.1244
 2093SOL     OW 6722   2.349   0.719   4.885 -0.5844  0.4674  0.2199
 2093SOL    HW1 6723   2.273   0.699   4.830 -1.4283  0.8069  1.2087
 2093SOL    HW2 6724   2.356   0.643   4.943 -1.2512  1.1624  1.2547
 2094SOL     OW 6725   1.362   4.284   0.042  0.1276 -0.1564 -0.2591
 2094SOL    HW1 6726   1.366   4.292   0.137  0.7339  0.4021 -0.3228
 2094SOL    HW2 6727   1.326   4.367   0.012  1.8514  0.5209 -0.6263
 2095SOL     OW 6728   5.584   0.335   0.849  0.1329 -0.7146 -0.0287
 2095SOL    HW1 6729   5.590   0.395   0.924  0.6661 -1.0532  0.2041
 2095SOL    HW2 6730   5.547   0.255   0.886 -0.9411 -0.4101 -0.4148
 2096SOL     OW 6731   0.922   3.764   1.160  0.4483  0.5977  0.1914
 2096SOL    HW1 6732   0.921   3.704   1.234 -2.4846  0.4167  0.1309
 2096SOL    HW2 6733   0.885   3.714   1.088 -0.5254  1.9572 -0.2896
 2097SOL     OW 6734   0.347   4.867   1.901  0.0396 -0.1105  0.1438
 2097SOL    HW1 6735   0.331   4.868   1.807 -0.0586 -0.8543  0.1501
 2097SOL    HW2 6736   0.262   4.851   1.940  0.0466  0.3910  0.3719
 2098SOL     OW 6737   5.166   0.293   1.198  0.1230 -0.4581  0.8175
 2098SOL    HW1 6738   5.191   0.307   1.289 -0.3011  1.6154  0.6751
 2098SOL    HW2 6739   5.220   0.355   1.148 -0.8373 -0.3663 -0.1507
 2099SOL     OW 6740   3.570   3.384   0.897 -0.4243  0.2489 -0.5563
 2099SOL    HW1 6741   3.489   3.381   0.948 -0.5837 -2.0853 -0.8470
 2099SOL    HW2 6742   3.542   3.418   0.812 -1.1028 -0.4088 -0.6146
 2100SOL     OW 6743   2.977   3.052   2.705  0.5474  0.4746 -0.3430
 2100SOL    HW1 6744   3.016   3.129   2.662 -0.5262  1.0415 -0.3287
 2100SOL    HW2 6745   3.000   2.979   2.649  0.9831  0.9032 -0.7353
 2101SOL     OW 6746   0.031   3.210   1.729 -0.7939 -0.6819  0.2329
 2101SOL    HW1 6747  -0.019   3.252   1.799 -0.9961 -0.2201 -0.1925
 2101SOL    HW2 6748   0.122   3.230   1.750 -0.8544 -0.5271  0.3485
 2102SOL     OW 6749   2.559   1.535   4.725 -0.7076 -0.1855  0.1818
 2102SOL    HW1 6750   2.552   1.449   4.767 -1.1295  0.9780  2.6692
 2102SOL    HW2 6751   2.506   1.527   4.646 -2.2263 -1.6920  1.2759
 2103SOL     OW 6752   1.320   2.105   4.509  0.0657  0.8003  0.0421
 2103SOL    HW1 6753   1.329   2.018   4.548  0.3031  0.2189 -1.2708
 2103SOL    HW2 6754   1.337   2.165   4.582  1.1039 -0.2466  0.7010
 2104SOL     OW 6755   0.685   0.499   4.183 -0.3759 -0.8168 -0.5822
 2104SOL    HW1 6756   0.699   0.474   4.274 -3.1429  0.3726  0.2691
 2104SOL    HW2 6757   0.742   0.575   4.170  0.6300 -1.4738 -0.1433
 2105SOL     OW 6758   4.625   2.073   4.700  0.3386 -0.3917  0.7608
 2105SOL    HW1 6759   4.698   2.104   4.645  1.2353  1.0024  2.6438
 2105SOL    HW2 6760   4.650   1.983   4.723 -0.3981 -1.2830 -1.5826
 2106SOL     OW 6761   1.148   5.623   0.835  0.3784  0.5847  1.1775
 2106SOL    HW1 6762   1.088   5.669   0.894 -1.1525  0.6206 -0.3159
 2106SOL    HW2 6763   1.091   5.582   0.771  1.9700  0.6106 -0.3311
 2107SOL     OW 6764   0.383   5.758   0.070  0.5102 -0.2524  0.4366
 2107SOL    HW1 6765   0.392   5.769   0.164  1.3338  0.3061  0.3144
 2107SOL    HW2 6766   0.453   5.697   0.046 -0.2696 -1.1013  0.3033
 2108SOL     OW 6767   4.918   2.193   4.607 -0.7971  0.1852  0.0207
 2108SOL    HW1 6768   4.930   2.099   4.592 -0.4326  0.1383  0.5566
 2108SOL    HW2 6769   4.970   2.234   4.538  1.2496 -0.0283  1.3487
 2109SOL     OW 6770   0.644   0.219   5.213  0.2602  0.5683 -0.2364
 2109SOL    HW1 6771   0.645   0.206   5.308 -0.6977 -2.2160 -0.5200
 2109SOL    HW2 6772   0.733   0.196   5.185 -0.3276 -1.8953 -0.2855
 2110SOL     OW 6773   4.350   5.557   2.177  0.1734  0.5703  0.4000
 2110SOL    HW1 6774   4.334   5.503   2.100  2.2490  2.8217 -1.7585
 2110SOL    HW2 6775   4.276   5.618   2.179  0.4133  0.8899 -0.2068
 2111SOL     OW 6776   3.726   3.496   2.739  0.5413  0.0637 -0.2031
 2111SOL    HW1 6777   3.681   3.565   2.691  0.3317 -1.1105 -1.7629
 2111SOL    HW2 6778   3.812   3.534   2.760  1.3608  0.0757 -3.1176
 2112SOL     OW 6779   3.186   1.621   6.118 -0.3601 -0.2140 -0.2647
 2112SOL    HW1 6780   3.095   1.593   6.128  0.3386 -2.1048  1.7445
 2112SOL    HW2 6781   3.196   1.693   6.180 -0.6090  0.3103 -0.8349
 2113SOL     OW 6782   3.378   5.302   2.346 -0.4712  0.3782  0.3559
 2113SOL    HW1 6783   3.432   5.228   2.375 -0.3108  0.3186 -0.0864
 2113SOL    HW2 6784   3.412   5.377   2.394 -0.3067  0.2518  0.4381
 2114SOL     OW 6785   0.393   3.215   0.754  0.2089 -0.3333 -0.3960
 2114SOL    HW1 6786   0.365   3.133   0.796  0.5993  0.0021  0.5494
 2114SOL    HW2 6787   0.487   3.206   0.743  0.5409  0.6123  1.2282
 2115SOL     OW 6788   2.896   3.507   0.821 -0.4801  0.1341  0.0788
 2115SOL    HW1 6789   2.850   3.492   0.904 -0.8582  1.8575  0.2192
 2115SOL    HW2 6790   2.987   3.518   0.846 -0.6503  1.0788  0.3618
 2116SOL     OW 6791   4.720   1.678   0.374  0.0670  0.5057  0.7732
 2116SOL    HW1 6792   4.664   1.756   0.382 -0.6185 -0.1008  2.3495
 2116SOL    HW2 6793   4.663   1.612   0.336  0.6365  0.7379 -0.5166
 2117SOL     OW 6794   5.786   4.323   6.054 -0.1232 -0.4828 -0.3754
 2117SOL    HW1 6795   5.818   4.413   6.065  0.4735 -0.6090 -0.9728
 2117SOL    HW2 6796   5.752   4.298   6.140  2.7738 -0.8668  0.7603
 2118SOL     OW 6797   4.463   5.447   6.119  0.5325 -0.0992 -0.3124
 2118SOL    HW1 6798   4.556   5.466   6.105  0.2727  1.2687 -0.3494
 2118SOL    HW2 6799   4.454   5.438   6.214  0.4175  1.5656 -0.1354
 2119SOL     OW 6800   4.942   3.754   4.216 -0.0243 -0.1300 -0.1512
 2119SOL    HW1 6801   4.918   3.705   4.138  1.1267  0.1767 -0.7176
 2119SOL    HW2 6802   5.038   3.760   4.213  0.0299  0.0860  1.1636
 2120SOL     OW 6803   3.681   0.004   3.741 -0.4020 -0.3307 -0.1436
 2120SOL    HW1 6804   3.590  -0.025   3.735  0.5124 -3.6994  0.0774
 2120SOL    HW2 6805   3.705  -0.013   3.832  0.5098  0.3371 -0.2499
 2121SOL     OW 6806   0.966   5.819   4.878  0.1947 -0.2849 -0.2725
 2121SOL    HW1 6807   0.992   5.732   4.907 -0.4750 -0.7370 -1.0049
 2121SOL    HW2 6808   1.040   5.848   4.824 -0.1253 -0.9360 -1.0829
 2122SOL     OW 6809   0.703   0.244   5.763  0.0715  0.4689  0.8445
 2122SOL    HW1 6810   0.692   0.174   5.827  0.3427  0.2322  0.6339
 2122SOL    HW2 6811   0.786   0.286   5.786  0.5979 -0.1692  0.1260
 2123SOL     OW 6812   1.449   5.270   2.127 -0.3710 -0.3701  0.2387
 2123SOL    HW1 6813   1.464   5.176   2.130 -1.2383 -0.5605 -0.7607
 2123SOL    HW2 6814   1.490   5.299   2.045 -0.4797  0.0443  0.3237
 2124SOL     OW 6815   1.031   5.536   4.920 -0.4163 -0.8073  0.1018
 2124SOL    HW1 6816   0.999   5.464   4.974  2.1344 -1.0511  1.4393
 2124SOL    HW2 6817   1.068   5.493   4.843 -0.9511 -0.7136 -0.2166
 2125SOL     OW 6818   3.210   4.497   3.224  0.1493 -0.3920 -0.0554
 2125SOL    HW1 6819   3.244   4.444   3.295 -0.5566 -0.8387 -0.0369
 2125SOL    HW2 6820   3.220   4.442   3.146 -1.5253 -1.0163  0.1134
 2126SOL     OW 6821   0.715   1.364   4.498  0.0327 -0.0109  1.2329
 2126SOL    HW1 6822   0.703   1.445   4.450  0.8426 -0.8479 -0.4429
 2126SOL    HW2 6823   0.719   1.296   4.431 -0.7039 -1.4708  2.5883
 2127SOL     OW 6824   0.757   1.463   1.452  0.0271 -0.0162  0.2489
 2127SOL    HW1 6825   0.727   1.432   1.367 -0.0465  1.3946 -0.2547
 2127SOL    HW2 6826   0.710   1.545   1.467  1.4004  0.7109  0.8047
 2128SOL     OW 6827   4.591   3.376   3.930 -0.4578  0.1798 -0.0629
 2128SOL    HW1 6828   4.519   3.314   3.923  0.8432 -1.2706 -1.5453
 2128SOL    HW2 6829   4.597   3.417   3.843 -0.0168  0.8861  0.2838
 2129SOL     OW 6830   5.990   0.889   3.305  0.0927 -0.5664  0.1259
 2129SOL    HW1 6831   5.955   0.800   3.297 -0.0559 -0.5282  0.3316
 2129SOL    HW2 6832   5.961   0.933   3.225  1.2222 -1.0516 -0.5745
 2130SOL     OW 6833   4.148   4.930   1.743 -0.4539  0.0925  0.0161
 2130SOL    HW1 6834   4.141   4.837   1.723  0.2512 -0.3574  1.6368
 2130SOL    HW2 6835   4.216   4.963   1.684 -0.6742 -0.4227 -0.5327
 2131SOL     OW 6836   5.651   1.582   0.234  0.2693 -0.3122  0.2998
 2131SOL    HW1 6837   5.625   1.609   0.146  2.2083 -0.7440 -0.4631
 2131SOL    HW2 6838   5.737   1.540   0.221  0.9573  0.3233  2.5049
 2132SOL     OW 6839   1.641   5.125   4.918 -0.0240  0.3158 -0.0375
 2132SOL    HW1 6840   1.706   5.108   4.850 -0.3127 -0.0275 -0.2312
 2132SOL    HW2 6841   1.558   5.136   4.871 -0.3406 -0.5706  0.2954
 2133SOL     OW 6842   1.320   3.664   5.254  0.4146  0.0705 -0.2443
 2133SOL    HW1 6843   1.283   3.641   5.339 -1.8925 -0.3939 -1.3136
 2133SOL    HW2 6844   1.395   3.604   5.244 -0.5612 -1.3554  0.5564
 2134SOL     OW 6845   1.944   2.964   4.301 -0.2305  0.0224 -0.0169
 2134SOL    HW1 6846   1.931   3.026   4.230  2.3229 -1.4488 -1.9455
 2134SOL    HW2 6847   2.018   3.000   4.351  1.3642 -1.3880 -1.2342
 2135SOL     OW 6848   1.859   5.233   1.014  0.4055  0.0372  0.3085
 2135SOL    HW1 6849   1.870   5.237   0.919  1.5041  0.1584  0.4210
 2135SOL    HW2 6850   1.937   5.186   1.045 -0.3422 -0.7331  1.0863
 2136SOL     OW 6851   0.487   4.194   0.194  0.3609 -0.2835  0.0827
 2136SOL    HW1 6852   0.407   4.229   0.156 -0.2297 -1.0129  0.6321
 2136SOL    HW2 6853   0.523   4.267   0.245 -0.3177 -0.1629  0.3939
 2137SOL     OW 6854   1.338   3.312   4.328 -0.0500  0.0398  0.3167
 2137SOL    HW1 6855   1.284   3.307   4.249  0.8581  0.1957 -0.3328
 2137SOL    HW2 6856   1.307   3.239   4.382 -1.1255  0.3299  0.1132
 2138SOL     OW 6857   3.828   0.512   2.387  0.1135 -0.4355 -0.4756
 2138SOL    HW1 6858   3.901   0.574   2.387  0.4027 -0.7637  0.3874
 2138SOL    HW2 6859   3.853   0.446   2.452 -0.8692 -0.6524 -0.3086
 2139SOL     OW 6860   5.547   2.524   4.103  0.3852  0.1313  0.1009
 2139SOL    HW1 6861   5.625   2.579   4.088 -0.1687  1.2216  1.0302
 2139SOL    HW2 6862   5.510   2.558   4.185 -0.5523 -0.9864  0.1546
 2140SOL     OW 6863   0.875   4.001   3.305  0.4336  0.4006  0.6264
 2140SOL    HW1 6864   0.790   3.989   3.262  0.9323 -0.7150 -0.1022
 2140SOL    HW2 6865   0.864   3.962   3.392  0.8270 -1.7959 -0.2668
 2141SOL     OW 6866   5.664   5.671   1.333  0.0613  0.2703  0.6810
 2141SOL    HW1 6867   5.676   5.587   1.289  0.7479  1.8257 -2.3655
 2141SOL    HW2 6868   5.653   5.734   1.262 -1.0684  2.7104  2.8492
 2142SOL     OW 6869   3.743   2.830   1.676  0.8054 -0.2431  0.1558
 2142SOL    HW1 6870   3.680   2.885   1.629 -2.0930 -0.5700  3.2755
 2142SOL    HW2 6871   3.718   2.740   1.654 -1.7978 -0.4792  3.3593
 2143SOL     OW 6872   1.081   2.493   1.606 -0.1457  0.0290 -0.1630
 2143SOL    HW1 6873   1.110   2.415   1.559  1.2234  0.7944 -0.6609
 2143SOL    HW2 6874   1.003   2.465   1.654 -2.1418 -0.6230 -3.4620
 2144SOL     OW 6875   3.439   5.037   2.149  0.1026  0.2906  0.0310
 2144SOL    HW1 6876   3.421   4.945   2.170 -0.0738  0.3456  0.1299
 2144SOL    HW2 6877   3.485   5.071   2.226  0.4665  0.1994 -0.1443
 2145SOL     OW 6878   0.619   5.512   2.046 -1.2786  0.3635  0.1188
 2145SOL    HW1 6879   0.644   5.564   2.123 -1.3579 -0.1555  0.5051
 2145SOL    HW2 6880   0.582   5.432   2.083  0.8695 -0.9638 -0.4340
 2146SOL     OW 6881   5.457   4.167   0.307  0.3134  0.1533 -0.1058
 2146SOL    HW1 6882   5.527   4.119   0.262  0.1623  0.1088 -0.2940
 2146SOL    HW2 6883   5.484   4.169   0.399 -0.2696 -1.3803  0.1313
 2147SOL     OW 6884   2.372   1.079   2.356  0.0075 -0.7215  0.1825
 2147SOL    HW1 6885   2.445   1.122   2.312  0.0206 -1.4885 -0.5855
 2147SOL    HW2 6886   2.338   1.144   2.417  0.2942  0.2158 -0.6395
 2148SOL     OW 6887   2.590   1.889   1.029 -0.1848 -0.0347  0.1883
 2148SOL    HW1 6888   2.552   1.809   0.994 -0.0983 -0.3858  0.8656
 2148SOL    HW2 6889   2.526   1.920   1.094 -0.7866  1.1157 -0.9174
 2149SOL     OW 6890   3.115   5.016   3.915  0.2243 -0.5810 -0.2617
 2149SOL    HW1 6891   3.081   5.047   3.832 -0.9828 -0.5957  0.2137
 2149SOL    HW2 6892   3.070   4.934   3.931  2.7611 -2.2589 -1.0949
 2150SOL     OW 6893   4.878   1.376   2.208  0.3161  0.3221 -0.4894
 2150SOL    HW1 6894   4.950   1.401   2.266  1.9065 -1.0758 -1.7783
 2150SOL    HW2 6895   4.818   1.327   2.264  0.5767  1.1035  0.4968
 2151SOL     OW 6896   4.557   0.679   5.782  0.4950 -0.0822  0.1780
 2151SOL    HW1 6897   4.618   0.729   5.729  0.1605  0.4603  0.3018
 2151SOL    HW2 6898   4.600   0.671   5.867 -0.1092  1.3502  0.6503
 2152SOL     OW 6899   5.565   5.713   4.907  0.5582 -0.4208 -0.5395
 2152SOL    HW1 6900   5.602   5.637   4.862  0.0875 -0.5728 -0.6785
 2152SOL    HW2 6901   5.626   5.731   4.978  2.1543  0.7722 -2.1240
 2153SOL     OW 6902   1.661   4.310   6.044  0.7947  0.2912 -0.2875
 2153SOL    HW1 6903   1.697   4.397   6.025  1.7820  0.1895  1.0002
 2153SOL    HW2 6904   1.567   4.324   6.054  0.7801  0.9908 -1.3181
 2154SOL     OW 6905   5.552   4.823   0.248  0.0352  0.3521  0.1306
 2154SOL    HW1 6906   5.558   4.899   0.191 -1.6154  0.3901 -0.0492
 2154SOL    HW2 6907   5.615   4.840   0.318  1.4778  0.7034 -1.1877
 2155SOL     OW 6908   2.482   2.570   2.481  0.4175 -0.0311  0.1534
 2155SOL    HW1 6909   2.539   2.618   2.421  1.0738 -0.3268  0.5296
 2155SOL    HW2 6910   2.533   2.494   2.507 -0.4520 -0.7156 -0.0972
 2156SOL     OW 6911   0.518   4.030   4.260  0.1106 -0.2653 -0.1539
 2156SOL    HW1 6912   0.535   4.048   4.167 -0.3063 -1.2598 -0.4338
 2156SOL    HW2 6913   0.579   4.087   4.307  2.2230 -1.6431 -1.0762
 2157SOL     OW 6914   3.460   0.216   4.678 -0.2793 -0.3354  0.2242
 2157SOL    HW1 6915   3.530   0.243   4.618  0.3105  0.9938  1.4754
 2157SOL    HW2 6916   3.501   0.214   4.764 -1.9103  1.1926  1.1108
 2158SOL     OW 6917   1.002   1.913   4.959  0.5436  0.4281  0.2081
 2158SOL    HW1 6918   1.036   2.002   4.957  1.9166 -0.0627  0.5584
 2158SOL    HW2 6919   0.927   1.914   4.900  0.2715  1.9110  0.5359
 2159SOL     OW 6920   3.602   3.963   2.040 -0.2603  0.2759  0.2950
 2159SOL    HW1 6921   3.629   3.900   1.973 -1.6326  0.9326 -0.9359
 2159SOL    HW2 6922   3.611   4.049   1.999 -1.2690  0.6863  0.8734
 2160SOL     OW 6923   5.964   4.895   3.194  0.4200 -0.1291  0.2586
 2160SOL    HW1 6924   5.989   4.813   3.237  0.7851 -0.1678 -0.0213
 2160SOL    HW2 6925   6.048   4.939   3.177  0.1645  1.1503  2.0596
 2161SOL     OW 6926   4.778   1.883   2.759  0.3462  0.0723 -0.6160
 2161SOL    HW1 6927   4.836   1.933   2.817  2.5150 -2.2064 -0.6463
 2161SOL    HW2 6928   4.772   1.936   2.680 -0.2221  1.8415  0.5706
 2162SOL     OW 6929   1.524   3.003   0.542 -0.5433 -0.0975  0.0505
 2162SOL    HW1 6930   1.551   2.993   0.633  0.1237  0.0838 -0.1221
 2162SOL    HW2 6931   1.469   3.082   0.542  0.9904  1.0207 -0.0067
 2163SOL     OW 6932   0.588   1.471   0.504 -0.2320  0.2014  0.2327
 2163SOL    HW1 6933   0.561   1.431   0.422 -1.0991  1.1561  0.0324
 2163SOL    HW2 6934   0.506   1.487   0.551  0.1380  1.0919  0.6007
 2164SOL     OW 6935   5.417   3.030   0.257  0.4017  0.1415 -0.0907
 2164SOL    HW1 6936   5.363   3.064   0.186  1.9061  1.3792 -0.7035
 2164SOL    HW2 6937   5.431   2.938   0.235 -2.2503 -0.5401  0.6473
 2165SOL     OW 6938   5.946   4.896   3.877  0.2201  0.0056 -0.2678
 2165SOL    HW1 6939   5.892   4.918   3.953  0.2875 -1.4510  0.2289
 2165SOL    HW2 6940   5.885   4.903   3.803  0.1299  1.3264 -0.0973
 2166SOL     OW 6941   2.877   1.332   0.530 -0.3305  0.0300 -0.0438
 2166SOL    HW1 6942   2.792   1.373   0.513 -0.1257  0.3862 -0.2078
 2166SOL    HW2 6943   2.923   1.336   0.446 -0.4970 -0.9859 -0.1984
 2167SOL     OW 6944   2.441   3.296   4.307  0.2832 -0.2248  0.8235
 2167SOL    HW1 6945   2.453   3.212   4.350 -0.8151 -0.7123  0.2463
 2167SOL    HW2 6946   2.410   3.355   4.376  0.1674 -0.5439  1.0436
 2168SOL     OW 6947   2.949   4.955   2.631 -0.1749 -0.0765  0.1781
 2168SOL    HW1 6948   3.023   4.949   2.571  0.0166 -2.2504  0.5570
 2168SOL    HW2 6949   2.931   4.865   2.657 -2.9690  0.3494  0.1220
 2169SOL     OW 6950   3.635   2.199   2.511  0.2135 -0.0459 -0.4524
 2169SOL    HW1 6951   3.651   2.293   2.521  0.4120 -0.0961 -0.2853
 2169SOL    HW2 6952   3.589   2.191   2.428  0.4678  0.1691 -0.6162
 2170SOL     OW 6953   2.134   0.323   3.893 -0.1788  0.0253 -1.0298
 2170SOL    HW1 6954   2.083   0.330   3.812  0.1743  0.3088 -1.2323
 2170SOL    HW2 6955   2.116   0.405   3.939  1.0415  0.6936 -1.6724
 2171SOL     OW 6956   3.907   1.662   1.205  0.2259 -0.0376 -0.1137
 2171SOL    HW1 6957   3.958   1.738   1.235 -1.0776  0.8697 -0.0898
 2171SOL    HW2 6958   3.898   1.677   1.111  0.3670 -0.4202 -0.1869
 2172SOL     OW 6959   2.856   0.501   4.953 -0.2949  0.1238  0.2724
 2172SOL    HW1 6960   2.834   0.514   4.861  0.3201 -0.4398  0.0289
 2172SOL    HW2 6961   2.804   0.425   4.980 -1.5878  1.1718  0.8228
 2173SOL     OW 6962   0.671   1.824   2.798  0.3276  0.3501  0.2353
 2173SOL    HW1 6963   0.712   1.744   2.765 -0.6522  0.6569 -1.9010
 2173SOL    HW2 6964   0.741   1.889   2.797  0.1499  0.6241 -2.4374
 2174SOL     OW 6965   4.859   0.716   4.766 -1.0116  0.4116  0.5236
 2174SOL    HW1 6966   4.923   0.788   4.768 -0.1339 -0.3309  0.0256
 2174SOL    HW2 6967   4.911   0.638   4.744 -2.0551 -0.2604  0.3555
 2175SOL     OW 6968   1.022   2.908   2.303 -0.5232 -0.6820 -0.4458
 2175SOL    HW1 6969   1.090   2.959   2.258  0.6975 -0.9900  0.9865
 2175SOL    HW2 6970   0.965   2.877   2.233 -0.0194  0.7903 -1.5532
 2176SOL     OW 6971   5.078   5.970   2.306 -0.1988 -0.1702 -0.5196
 2176SOL    HW1 6972   4.999   5.964   2.361 -0.8384 -0.2646 -1.4354
 2176SOL    HW2 6973   5.090   5.881   2.272  1.6539 -0.7395  1.4229
 2177SOL     OW 6974   5.062   2.001   5.917 -0.0182 -0.5185  0.2539
 2177SOL    HW1 6975   4.988   1.980   5.859 -1.6654 -2.3960  2.8304
 2177SOL    HW2 6976   5.055   2.095   5.932 -0.3696 -0.2331 -1.4125
 2178SOL     OW 6977   0.859   2.412   6.065 -0.1941 -0.6255 -0.2271
 2178SOL    HW1 6978   0.764   2.416   6.076 -0.2000 -0.6454 -0.2725
 2178SOL    HW2 6979   0.893   2.419   6.154 -0.1618  1.3437 -0.3651
 2179SOL     OW 6980   5.947   1.824   1.743  0.0943 -0.3241  0.4828
 2179SOL    HW1 6981   5.965   1.731   1.731 -0.1228 -0.2947 -0.1133
 2179SOL    HW2 6982   6.033   1.864   1.758  0.7050 -0.1171 -2.7316
 2180SOL     OW 6983   0.743   1.522   2.276 -0.1683  0.0772  0.3587
 2180SOL    HW1 6984   0.736   1.587   2.206 -0.8432 -0.2107  0.1574
 2180SOL    HW2 6985   0.684   1.553   2.345  1.2273  0.8849  1.2335
 2181SOL     OW 6986   4.728   1.016   6.122 -0.5106 -0.2012 -0.1619
 2181SOL    HW1 6987   4.770   0.964   6.054 -0.4247 -1.2019  0.6250
 2181SOL    HW2 6988   4.690   1.090   6.075  0.6375 -0.1813 -1.1157
 2182SOL     OW 6989   3.117   6.053   0.227  0.1641  0.3148  0.2999
 2182SOL    HW1 6990   3.071   6.087   0.303 -0.3857 -0.1376  0.1787
 2182SOL    HW2 6991   3.097   5.959   0.227 -1.1030  0.5526 -1.2494
 2183SOL     OW 6992   5.814   1.154   4.399 -0.0768  0.8579  0.3050
 2183SOL    HW1 6993   5.835   1.234   4.446  0.5838  1.3683 -0.8086
 2183SOL    HW2 6994   5.812   1.181   4.307 -0.0452 -0.3640 -0.0650
 2184SOL     OW 6995   3.832   1.550   1.841  0.3612 -0.1359  0.3665
 2184SOL    HW1 6996   3.755   1.561   1.896 -0.9932 -0.5765 -1.3424
 2184SOL    HW2 6997   3.821   1.614   1.771  3.0044  1.7716  1.5055
 2185SOL     OW 6998   2.650   5.104   4.524 -0.4275  0.4442  0.2101
 2185SOL    HW1 6999   2.613   5.149   4.600 -1.7565 -0.2856  0.0253
 2185SOL    HW2 7000   2.663   5.173   4.459  1.6682  1.2489  1.4011
 2186SOL     OW 7001   3.981   5.601   1.006 -0.5068 -0.0110 -0.0882
 2186SOL    HW1 7002   4.057   5.597   0.949 -0.6905  4.3384 -0.9842
 2186SOL    HW2 7003   4.009   5.656   1.079 -2.3576  0.5620  0.2401
 2187SOL     OW 7004   4.479   5.896   1.695 -0.3967  0.3580  0.3595
 2187SOL    HW1 7005   4.563   5.905   1.739 -1.3021 -0.7607  2.4641
 2187SOL    HW2 7006   4.477   5.806   1.665 -1.0716  0.1987  0.8630
 2188SOL     OW 7007   0.655   2.826   0.668 -0.0134  0.4925  0.1552
 2188SOL    HW1 7008   0.607   2.769   0.608 -0.0411  0.4386  0.2287
 2188SOL    HW2 7009   0.603   2.906   0.672 -1.6059 -0.5761  2.4073
 2189SOL     OW 7010   1.775   4.324   5.119  0.4240 -0.1844 -0.4245
 2189SOL    HW1 7011   1.788   4.229   5.124  1.7806 -0.0607 -0.9969
 2189SOL    HW2 7012   1.736   4.338   5.033  1.9558 -0.0937 -1.1355
 2190SOL     OW 7013   4.718   5.878   1.810  0.5816 -0.2107  0.2661
 2190SOL    HW1 7014   4.755   5.907   1.727  1.0082  0.4962  0.6827
 2190SOL    HW2 7015   4.775   5.806   1.838 -0.2817 -1.2505 -0.6172
 2191SOL     OW 7016   5.648   5.756   0.395  0.3714  0.6091 -0.5569
 2191SOL    HW1 7017   5.690   5.674   0.369  0.4474  1.3117 -2.9198
 2191SOL    HW2 7018   5.555   5.738   0.390  0.3677  0.1649  0.7939
 2192SOL     OW 7019   5.882   2.240   3.000 -0.0270  0.3992 -0.1350
 2192SOL    HW1 7020   5.857   2.263   3.090  1.2189  2.0953 -0.1669
 2192SOL    HW2 7021   5.942   2.166   3.010 -0.5823  0.0065  0.3488
 2193SOL     OW 7022   5.571   3.969   1.582 -0.3931  0.4210  0.4989
 2193SOL    HW1 7023   5.652   4.018   1.593 -0.7953  0.8715  1.6755
 2193SOL    HW2 7024   5.503   4.036   1.574 -1.0304  0.1362  2.7884
 2194SOL     OW 7025   4.236   4.640   6.114  0.1298  0.2690  0.4135
 2194SOL    HW1 7026   4.262   4.715   6.060  0.2081 -0.3096 -0.3750
 2194SOL    HW2 7027   4.145   4.658   6.137 -0.5089 -0.3136 -1.4492
 2195SOL     OW 7028   2.700   4.889   0.894 -0.5162  0.0365  0.0519
 2195SOL    HW1 7029   2.647   4.815   0.863 -1.6077  0.7431  0.1547
 2195SOL    HW2 7030   2.780   4.885   0.842 -0.6673 -1.0598 -0.1227
 2196SOL     OW 7031   5.776   3.001   2.409  0.9933  0.1891 -0.1253
 2196SOL    HW1 7032   5.821   3.016   2.492  0.3114 -1.0750  0.5003
 2196SOL    HW2 7033   5.701   3.060   2.410  0.8264 -0.0287  0.2903
 2197SOL     OW 7034   1.350   5.270   3.775  0.1098  0.8519  0.0923
 2197SOL    HW1 7035   1.417   5.243   3.713 -0.4781 -0.1918 -0.1166
 2197SOL    HW2 7036   1.268   5.235   3.739 -0.1913 -0.1237  1.6510
 2198SOL     OW 7037   3.030   2.895   3.855  0.2425  0.6879  0.6521
 2198SOL    HW1 7038   3.119   2.866   3.832 -0.2237  1.4389 -2.6814
 2198SOL    HW2 7039   2.974   2.822   3.827 -0.3665  1.5364 -0.4302
 2199SOL     OW 7040   1.825   3.047   1.139  0.4693 -0.2815 -0.2430
 2199SOL    HW1 7041   1.743   2.998   1.137  0.2791  0.0476 -0.8165
 2199SOL    HW2 7042   1.874   3.016   1.063  0.9435 -0.5711  0.1675
 2200SOL     OW 7043   1.645   1.136   2.425 -0.1826  0.2922  0.0048
 2200SOL    HW1 7044   1.569   1.153   2.480  0.6882 -0.8716  1.6519
 2200SOL    HW2 7045   1.715   1.116   2.487  1.1967  0.2676 -1.4997
 2201SOL     OW 7046   0.387   4.223   0.803  0.0761 -0.0572 -0.2673
 2201SOL    HW1 7047   0.359   4.154   0.743 -0.1813 -0.9756  0.8759
 2201SOL    HW2 7048   0.445   4.179   0.865 -0.2841  0.6930  0.6244
 2202SOL     OW 7049   4.608   0.860   4.000 -0.1244 -0.2254 -0.2726
 2202SOL    HW1 7050   4.544   0.824   3.939 -0.2235 -0.4766 -0.0187
 2202SOL    HW2 7051   4.658   0.922   3.947 -0.6252  0.0317 -0.4518
 2203SOL     OW 7052   4.302   1.775   1.719 -0.0819  0.3881  0.0305
 2203SOL    HW1 7053   4.372   1.822   1.766 -0.9082  1.4893  0.1986
 2203SOL    HW2 7054   4.275   1.707   1.780  0.0806  0.6700  0.4269
 2204SOL     OW 7055   4.546   1.833   2.024 -0.5901  0.4079 -0.1995
 2204SOL    HW1 7056   4.521   1.743   2.047 -0.6336  0.6981  0.9807
 2204SOL    HW2 7057   4.517   1.885   2.099  2.6507  0.8934  0.9129
 2205SOL     OW 7058   0.699   3.590   0.435 -0.2175  0.2132 -0.4712
 2205SOL    HW1 7059   0.748   3.662   0.474 -1.0460  0.3250  0.4062
 2205SOL    HW2 7060   0.757   3.556   0.367  0.9596  0.4973  0.3541
 2206SOL     OW 7061   5.760   4.126   1.686 -0.5837  0.0230  0.3018
 2206SOL    HW1 7062   5.808   4.195   1.640 -0.4385 -0.4622 -0.2798
 2206SOL    HW2 7063   5.716   4.172   1.758  1.8269  0.2840  1.7019
 2207SOL     OW 7064   3.136   0.869   3.077 -0.1519 -0.0349  0.4665
 2207SOL    HW1 7065   3.207   0.840   3.020  0.7505 -1.6517  2.3013
 2207SOL    HW2 7066   3.173   0.867   3.165 -2.3573 -0.6010  1.4493
 2208SOL     OW 7067   3.776   1.757   2.106 -0.3868  0.2893 -0.2571
 2208SOL    HW1 7068   3.813   1.704   2.176 -0.5686  1.9236  1.1533
 2208SOL    HW2 7069   3.725   1.825   2.152 -0.7004  1.2699 -1.9776
 2209SOL     OW 7070   3.070   2.171   4.080 -0.0036 -1.0072  0.1379
 2209SOL    HW1 7071   2.995   2.218   4.115 -0.9365 -1.1435 -1.5637
 2209SOL    HW2 7072   3.032   2.095   4.036  1.0448 -0.6996 -1.3700
 2210SOL     OW 7073   3.739   0.802   1.221 -0.0833  0.1377  0.2129
 2210SOL    HW1 7074   3.752   0.868   1.153 -0.8172  0.3163  0.2403
 2210SOL    HW2 7075   3.824   0.757   1.227 -0.0025  0.1323 -0.8028
 2211SOL     OW 7076   4.362   1.258   1.476  0.0744  0.2308  0.4131
 2211SOL    HW1 7077   4.377   1.166   1.499 -2.2553 -0.8065 -1.7700
 2211SOL    HW2 7078   4.290   1.285   1.532 -2.4069 -0.8380 -2.0519
 2212SOL     OW 7079   5.606   3.005   0.430  0.5215 -1.2269 -0.1329
 2212SOL    HW1 7080   5.681   3.036   0.379 -0.1370 -0.4210 -0.6221
 2212SOL    HW2 7081   5.530   3.017   0.372 -0.2797 -0.0500  1.1231
 2213SOL     OW 7082   1.364   2.963   2.007  0.1336  0.4279 -0.1690
 2213SOL    HW1 7083   1.412   3.012   1.941 -0.6810  1.9962  0.3405
 2213SOL    HW2 7084   1.273   2.965   1.978 -0.1658  0.7467  0.7473
 2214SOL     OW 7085   4.770   1.727   3.865  0.1594  0.1975 -0.4634
 2214SOL    HW1 7086   4.844   1.728   3.804  0.5808  0.4153  0.0424
 2214SOL    HW2 7087   4.730   1.814   3.855  1.0733  0.7631  0.5672
 2215SOL     OW 7088   1.321   3.659   5.554 -0.2608  0.8335  0.4506
 2215SOL    HW1 7089   1.316   3.752   5.576 -1.2012  0.5312  1.6022
 2215SOL    HW2 7090   1.299   3.614   5.636 -0.1104 -0.3984 -0.1695
 2216SOL     OW 7091   1.381   2.641   4.372 -0.1987 -0.5076 -0.3077
 2216SOL    HW1 7092   1.391   2.736   4.371 -1.2974 -0.3447  0.8957
 2216SOL    HW2 7093   1.471   2.608   4.380  0.1032  0.5284  1.1759
 2217SOL     OW 7094   5.039   5.308   3.329 -0.2240 -0.3467  0.3746
 2217SOL    HW1 7095   4.989   5.369   3.383  0.4522  0.1570  0.4444
 2217SOL    HW2 7096   4.983   5.291   3.253 -0.6352 -0.0517  0.6111
 2218SOL     OW 7097   2.018   1.478   3.958 -0.1687 -0.9780 -0.4010
 2218SOL    HW1 7098   2.073   1.425   4.015  0.4911  0.2315  0.1368
 2218SOL    HW2 7099   1.940   1.498   4.011  0.4102  0.0830  0.0753
 2219SOL     OW 7100   1.803   4.413   2.461  0.0832 -0.1879  0.4858
 2219SOL    HW1 7101   1.841   4.423   2.548 -0.0811 -0.0603  0.5437
 2219SOL    HW2 7102   1.876   4.426   2.401 -0.3949  3.4209  0.4448
 2220SOL     OW 7103   3.030   5.756   3.509 -0.1090 -0.4047 -0.2469
 2220SOL    HW1 7104   3.022   5.768   3.604 -0.6781  0.6322 -0.4113
 2220SOL    HW2 7105   3.030   5.661   3.497 -1.7252 -0.5629  0.6772
 2221SOL     OW 7106   1.032   4.618   1.136 -0.3161  0.3261 -0.1311
 2221SOL    HW1 7107   1.053   4.540   1.086  1.4017  0.5418  0.1896
 2221SOL    HW2 7108   0.954   4.595   1.186 -0.3514 -0.8639 -0.7167
 2222SOL     OW 7109   6.013   2.881   5.508  0.1185  0.2857  0.0154
 2222SOL    HW1 7110   5.975   2.825   5.575 -0.0011  1.4642  0.9703
 2222SOL    HW2 7111   5.947   2.947   5.491  0.6137  0.6844 -0.4079
 2223SOL     OW 7112   2.322   3.534   3.181  0.0262 -0.3555  0.0712
 2223SOL    HW1 7113   2.402   3.538   3.129  0.7244  3.1120  1.1297
 2223SOL    HW2 7114   2.348   3.566   3.268 -2.2085 -0.6191  0.9076
 2224SOL     OW 7115   3.878   4.672   4.143  0.2764 -0.0276 -0.1233
 2224SOL    HW1 7116   3.949   4.707   4.089 -0.0183  1.0716  0.1726
 2224SOL    HW2 7117   3.918   4.657   4.229  0.5866 -1.1651 -0.4497
 2225SOL     OW 7118   1.408   2.818   0.261 -0.1170  0.2546 -0.3211
 2225SOL    HW1 7119   1.384   2.882   0.327 -0.8971 -0.8615  0.5246
 2225SOL    HW2 7120   1.484   2.855   0.217  1.5811  0.2460  2.4138
 2226SOL     OW 7121   0.114   2.996   4.819  0.5394  0.0424  0.0473
 2226SOL    HW1 7122   0.069   2.938   4.881  1.0985  0.7792  1.1675
 2226SOL    HW2 7123   0.147   3.068   4.872  0.6955  0.9099 -1.1772
 2227SOL     OW 7124   1.337   0.809   4.806  0.2376  0.2927 -0.5904
 2227SOL    HW1 7125   1.297   0.883   4.851 -1.1830 -1.6205  1.5593
 2227SOL    HW2 7126   1.281   0.795   4.729  0.4601  1.3318 -0.9633
 2228SOL     OW 7127   5.998   2.728   1.980  0.2500 -0.0329 -0.3981
 2228SOL    HW1 7128   5.947   2.804   1.951 -0.6400  0.2088  1.5925
 2228SOL    HW2 7129   5.941   2.653   1.964  0.2216 -0.0255 -0.3350
 2229SOL     OW 7130   3.443   5.547   1.691  0.1845  0.3258  0.3078
 2229SOL    HW1 7131   3.485   5.502   1.618 -0.6694 -0.5930  0.3645
 2229SOL    HW2 7132   3.493   5.520   1.768  1.5124  1.8247  0.0299
 2230SOL     OW 7133   4.315   2.308   3.377  0.2580 -0.1425 -0.4456
 2230SOL    HW1 7134   4.332   2.272   3.290  0.8176 -0.1158 -0.3505
 2230SOL    HW2 7135   4.305   2.231   3.433  2.2491 -0.1954 -0.0874
 2231SOL     OW 7136   3.028   3.579   0.080 -0.4368 -0.3600  0.7567
 2231SOL    HW1 7137   3.091   3.618   0.141  1.0273  2.0718 -2.0322
 2231SOL    HW2 7138   3.050   3.486   0.079 -0.3383 -0.4478  3.6012
 2232SOL     OW 7139   1.113   2.505   2.122 -0.3320 -0.6119 -0.3818
 2232SOL    HW1 7140   1.034   2.483   2.171  1.1846 -1.2666  1.9708
 2232SOL    HW2 7141   1.184   2.497   2.187  1.4211  2.2541 -1.7503
 2233SOL     OW 7142   4.003   3.451   4.079  0.4347 -0.0945 -0.0738
 2233SOL    HW1 7143   4.069   3.440   4.147  1.1509 -0.1261 -0.7626
 2233SOL    HW2 7144   3.972   3.363   4.061  0.9344 -0.1980 -0.4541
 2234SOL     OW 7145   4.355   1.380   1.220  0.0365 -1.1150  0.3831
 2234SOL    HW1 7146   4.352   1.315   1.290  1.3783 -2.4585 -0.7477
 2234SOL    HW2 7147   4.444   1.376   1.187  0.0522  1.0618  0.0024
 2235SOL     OW 7148   3.573   2.339   5.331  0.3369  0.2584 -0.1658
 2235SOL    HW1 7149   3.606   2.324   5.420 -0.9239  0.9033  0.4468
 2235SOL    HW2 7150   3.647   2.377   5.284  0.8502  0.4818  0.7925
 2236SOL     OW 7151   1.393   3.752   4.284 -0.0766 -0.0884  0.1418
 2236SOL    HW1 7152   1.475   3.709   4.308 -0.0622 -0.8862 -1.2704
 2236SOL    HW2 7153   1.338   3.681   4.251 -1.0334  0.5759  0.2689
 2237SOL     OW 7154   4.162   5.867   5.198 -0.2525 -0.3706 -0.0412
 2237SOL    HW1 7155   4.242   5.890   5.150  0.5293 -1.5462  0.6579
 2237SOL    HW2 7156   4.173   5.774   5.220 -2.6282 -1.1075 -1.5132
 2238SOL     OW 7157   5.279   4.829   4.431  1.0877 -0.0078 -0.2384
 2238SOL    HW1 7158   5.312   4.758   4.377  0.1483  0.6069 -1.6764
 2238SOL    HW2 7159   5.338   4.902   4.414  1.8067 -0.2886  0.9200
 2239SOL     OW 7160   5.764   2.667   3.244 -1.0168  0.2798 -0.0130
 2239SOL    HW1 7161   5.824   2.641   3.174 -1.3630  0.1121 -0.2513
 2239SOL    HW2 7162   5.818   2.719   3.304 -0.3030 -1.0307  0.5108
 2240SOL     OW 7163   0.831   1.218   1.697 -0.1744  0.2964 -0.3691
 2240SOL    HW1 7164   0.757   1.279   1.700  0.6937  1.3706 -0.0010
 2240SOL    HW2 7165   0.869   1.222   1.784  0.1738 -0.4288 -0.4830
 2241SOL     OW 7166   5.900   2.260   1.041  0.2753 -0.1655  0.1476
 2241SOL    HW1 7167   5.846   2.338   1.052 -1.0460 -0.9842 -0.3583
 2241SOL    HW2 7168   5.844   2.198   0.994  1.7345 -0.9632 -0.6023
 2242SOL     OW 7169   0.918   0.646   2.931 -0.5474  0.0388  0.1002
 2242SOL    HW1 7170   0.886   0.641   3.021 -0.1978 -0.7060  0.1906
 2242SOL    HW2 7171   0.917   0.739   2.910  2.8957  0.7117  2.1593
 2243SOL     OW 7172   6.105   3.562   5.800  0.1197 -0.3766  0.1700
 2243SOL    HW1 7173   6.016   3.584   5.774  0.5143 -0.8002 -1.7086
 2243SOL    HW2 7174   6.124   3.621   5.874 -1.0416  1.0865 -0.6348
 2244SOL     OW 7175   3.875   0.361   1.228  0.2452  0.1134 -0.1914
 2244SOL    HW1 7176   3.862   0.268   1.208  0.8366  0.1782 -0.9284
 2244SOL    HW2 7177   3.962   0.381   1.194  0.6706  0.6323  1.1377
 2245SOL     OW 7178   0.958   5.781   2.630  0.0218  0.2287  0.2521
 2245SOL    HW1 7179   0.980   5.723   2.557 -0.0992  0.7820 -0.2347
 2245SOL    HW2 7180   0.914   5.725   2.693  0.4922 -0.3429  0.0813
 2246SOL     OW 7181   0.635   4.003   0.377  0.0243 -0.2834  0.3197
 2246SOL    HW1 7182   0.611   4.049   0.457 -1.0888  0.5039 -0.4375
 2246SOL    HW2 7183   0.564   4.021   0.316  0.9311 -0.7027 -0.9221
 2247SOL     OW 7184   2.657   5.460   2.960  0.3831 -0.0069 -0.1988
 2247SOL    HW1 7185   2.741   5.414   2.961 -0.2917 -1.2881  0.2152
 2247SOL    HW2 7186   2.609   5.421   2.887  0.0912  0.6249 -0.3494
 2248SOL     OW 7187   1.491   4.672   1.853 -0.6832 -0.1779 -0.1974
 2248SOL    HW1 7188   1.531   4.592   1.887  0.2262  0.1662 -0.4297
 2248SOL    HW2 7189   1.553   4.704   1.787 -0.4989  1.2766  0.6207
 2249SOL     OW 7190   5.155   4.242   6.082 -0.5196  0.0848 -0.2042
 2249SOL    HW1 7191   5.217   4.214   6.015 -1.0176  2.4116 -1.7228
 2249SOL    HW2 7192   5.201   4.226   6.165  0.9409 -0.9094 -1.1652
 2250SOL     OW 7193   4.544   1.920   0.474 -0.0946 -0.4650  0.0436
 2250SOL    HW1 7194   4.614   1.986   0.476  0.4447 -1.0141 -0.4261
 2250SOL    HW2 7195   4.479   1.957   0.415 -0.7414  0.5636  1.3419
 2251SOL     OW 7196   2.731   4.105   1.540 -1.1664  0.3072 -0.0649
 2251SOL    HW1 7197   2.800   4.064   1.592 -1.4741 -0.1336  0.0074
 2251SOL    HW2 7198   2.728   4.195   1.572 -1.0704  0.1524  0.3989
 2252SOL     OW 7199   3.350   2.169   0.524  0.1336 -0.1716  0.1835
 2252SOL    HW1 7200   3.385   2.257   0.513  0.8465 -0.5137 -0.4316
 2252SOL    HW2 7201   3.293   2.156   0.449  1.0795 -0.7043 -0.4632
 2253SOL     OW 7202   4.057   1.133   3.813  0.0156  0.6117 -0.1942
 2253SOL    HW1 7203   4.100   1.211   3.846 -0.3076  0.9567 -0.5716
 2253SOL    HW2 7204   4.036   1.154   3.722 -2.1699  0.9970  0.3434
 2254SOL     OW 7205   0.117   5.731   0.369  0.2537 -0.5513  0.1552
 2254SOL    HW1 7206   0.062   5.765   0.299  0.2221  0.6605  0.7386
 2254SOL    HW2 7207   0.150   5.648   0.336 -0.7938 -0.6223 -0.7688
 2255SOL     OW 7208   5.332   4.768   2.267 -0.2499  0.1111 -0.0055
 2255SOL    HW1 7209   5.357   4.695   2.210  1.5587 -0.2511  1.1707
 2255SOL    HW2 7210   5.250   4.740   2.307  0.1399 -1.0713  0.0193
 2256SOL     OW 7211   3.074   1.986   4.321 -0.3535 -0.1944  0.2335
 2256SOL    HW1 7212   3.073   2.059   4.259 -2.2545 -0.1582  0.2722
 2256SOL    HW2 7213   3.158   1.995   4.366  0.1169  1.0543 -0.8259
 2257SOL     OW 7214   1.302   4.916   1.656 -0.2124 -0.1051  0.1720
 2257SOL    HW1 7215   1.322   4.896   1.565 -1.4431  0.7780 -0.3078
 2257SOL    HW2 7216   1.380   4.962   1.687  0.0048  0.0582 -0.5886
 2258SOL     OW 7217   1.187   5.966   2.574  0.0618 -0.0455 -0.4077
 2258SOL    HW1 7218   1.124   5.905   2.613  1.0062 -0.9652 -0.2976
 2258SOL    HW2 7219   1.195   6.036   2.638  0.3980 -0.7534  0.3401
 2259SOL     OW 7220   4.538   1.462   2.187 -0.2263 -0.2291  0.4371
 2259SOL    HW1 7221   4.566   1.497   2.271 -1.1036  0.6098  0.3941
 2259SOL    HW2 7222   4.581   1.377   2.180  1.3261  0.5003  0.8938
 2260SOL     OW 7223   0.513   2.385   3.010 -0.2083 -0.2160  0.6228
 2260SOL    HW1 7224   0.477   2.386   2.921  0.1095  0.7882  0.4945
 2260SOL    HW2 7225   0.534   2.476   3.029  0.8870 -0.5818  1.2609
 2261SOL     OW 7226   2.659   0.718   1.772  0.6714 -0.8017  0.2666
 2261SOL    HW1 7227   2.683   0.807   1.744  0.6152 -0.5346  1.0390
 2261SOL    HW2 7228   2.639   0.727   1.865 -0.0201 -1.4966  0.1942
 2262SOL     OW 7229   2.937   0.408   5.718  0.3339  0.1487  0.2404
 2262SOL    HW1 7230   2.936   0.341   5.651 -1.5423 -0.1766  0.5487
 2262SOL    HW2 7231   3.019   0.456   5.703  1.5102 -1.9124 -0.2342
 2263SOL     OW 7232   2.157   2.393   5.640  0.4036 -0.3527  0.1888
 2263SOL    HW1 7233   2.095   2.328   5.606  1.1394 -0.3032 -1.3329
 2263SOL    HW2 7234   2.243   2.352   5.628  1.1364  1.7732 -3.2121
 2264SOL     OW 7235   1.464   6.081   5.143 -1.0426  0.1200 -0.3194
 2264SOL    HW1 7236   1.501   6.138   5.210 -1.4713  2.7551 -2.1582
 2264SOL    HW2 7237   1.535   6.072   5.078 -1.0687 -1.2814 -0.1813
 2265SOL     OW 7238   4.134   3.957   3.518  0.0038 -0.7033 -0.5532
 2265SOL    HW1 7239   4.124   3.869   3.556  2.8791 -0.5873  0.7444
 2265SOL    HW2 7240   4.202   3.998   3.571 -0.4252  1.9208 -1.8806
 2266SOL     OW 7241   2.699   3.014   2.785 -0.3088  0.6819  0.1937
 2266SOL    HW1 7242   2.791   3.025   2.764 -0.5054  0.6472 -0.7677
 2266SOL    HW2 7243   2.679   3.084   2.846  0.5218  0.2374  1.0009
 2267SOL     OW 7244   3.291   3.048   4.757  0.1083  0.3170  0.3697
 2267SOL    HW1 7245   3.212   3.086   4.719  0.2319  3.1002  2.5785
 2267SOL    HW2 7246   3.293   3.080   4.847  3.6635  0.2461  0.4656
 2268SOL     OW 7247   1.171   3.201   3.746  0.2100 -0.0904  0.2520
 2268SOL    HW1 7248   1.083   3.238   3.737  0.0298 -0.5960 -0.0993
 2268SOL    HW2 7249   1.171   3.125   3.688  0.8994 -0.0565  0.2055
 2269SOL     OW 7250   5.206   2.405   4.866 -0.6896  0.7558 -0.1783
 2269SOL    HW1 7251   5.270   2.454   4.814 -1.0315  1.9142  0.4577
 2269SOL    HW2 7252   5.183   2.330   4.812  0.6872  0.6862 -0.7156
 2270SOL     OW 7253   2.667   4.853   2.982 -0.2855 -0.4034 -0.0482
 2270SOL    HW1 7254   2.633   4.766   2.962 -0.4038 -0.5464  0.7433
 2270SOL    HW2 7255   2.737   4.838   3.044 -1.4960  0.1748  1.5281
 2271SOL     OW 7256   1.015   4.367   0.199 -0.4834 -0.1614  0.1543
 2271SOL    HW1 7257   1.036   4.274   0.200 -0.6119 -0.2238  2.1547
 2271SOL    HW2 7258   1.062   4.403   0.275  1.2172  1.8346 -1.7089
 2272SOL     OW 7259   0.362   5.087   1.630  0.1880  0.2201  0.0261
 2272SOL    HW1 7260   0.344   4.994   1.636 -1.4819  0.4264 -1.0058
 2272SOL    HW2 7261   0.383   5.114   1.719  2.2128 -1.3963  0.0944
 2273SOL     OW 7262   3.831   2.908   2.916  0.0110 -0.1175 -0.5753
 2273SOL    HW1 7263   3.810   2.893   2.824  0.3565  0.4162 -0.7471
 2273SOL    HW2 7264   3.773   2.979   2.943  0.3913  0.2011 -0.5809
 2274SOL     OW 7265   3.247   4.800   2.014 -0.2352  0.1732 -0.1217
 2274SOL    HW1 7266   3.158   4.765   2.012 -0.5522  1.0079 -1.1203
 2274SOL    HW2 7267   3.303   4.724   1.996 -0.7760 -0.2349 -0.1007
 2275SOL     OW 7268   0.674   0.868   4.912 -0.1357 -0.3132 -0.6456
 2275SOL    HW1 7269   0.684   0.928   4.985 -1.1322 -1.7629  0.7637
 2275SOL    HW2 7270   0.582   0.877   4.886 -0.2700 -1.1171 -0.4807
 2276SOL     OW 7271   0.095   2.948   5.232 -0.1127  0.2571 -0.0356
 2276SOL    HW1 7272   0.188   2.966   5.245  0.1748  0.1194 -1.7040
 2276SOL    HW2 7273   0.069   2.895   5.308  1.3494 -0.3582  0.0566
 2277SOL     OW 7274   4.511   5.873   1.379 -0.3451 -0.0502  0.2566
 2277SOL    HW1 7275   4.428   5.865   1.426  1.1201 -2.4616  2.6630
 2277SOL    HW2 7276   4.552   5.787   1.385  2.3481  1.0169 -0.8627
 2278SOL     OW 7277   5.957   3.090   4.823 -0.1568 -0.0075 -0.8318
 2278SOL    HW1 7278   6.023   3.023   4.805  0.5518  0.0514  1.3053
 2278SOL    HW2 7279   6.002   3.172   4.808  0.5520  0.0519  1.2883
 2279SOL     OW 7280   2.120   3.868   4.768  0.4541 -0.1887  0.2244
 2279SOL    HW1 7281   2.191   3.927   4.792 -0.2190  0.8373 -0.2589
 2279SOL    HW2 7282   2.164   3.788   4.738  1.5093  1.2500 -2.3447
 2280SOL     OW 7283   1.978   0.973   1.884 -0.3233 -0.4148 -0.0716
 2280SOL    HW1 7284   1.891   1.003   1.858 -0.6577 -1.7403 -0.5644
 2280SOL    HW2 7285   2.036   1.047   1.867 -1.3383  0.4645  0.2180
 2281SOL     OW 7286   1.423   0.128   3.882 -0.0824 -0.7645 -0.1771
 2281SOL    HW1 7287   1.505   0.150   3.838 -0.4481 -1.0073 -0.9895
 2281SOL    HW2 7288   1.357   0.130   3.813 -0.9571  0.5098  0.6660
 2282SOL     OW 7289   2.761   4.420   4.272  0.3142  0.0721 -0.3181
 2282SOL    HW1 7290   2.692   4.453   4.215  0.5901 -0.1113 -0.7678
 2282SOL    HW2 7291   2.715   4.382   4.347 -0.0134  1.3019  0.1323
 2283SOL     OW 7292   6.046   4.632   4.726  0.8429  0.4554  0.0999
 2283SOL    HW1 7293   6.061   4.541   4.753  0.5076 -0.8442 -3.5184
 2283SOL    HW2 7294   6.044   4.681   4.808 -1.1283 -3.0769  2.4445
 2284SOL     OW 7295   5.534   6.090   3.164  0.3882  0.3924 -0.0838
 2284SOL    HW1 7296   5.556   6.135   3.246  0.5034  0.3319 -0.0825
 2284SOL    HW2 7297   5.568   6.147   3.095  0.8951  0.1015 -0.0701
 2285SOL     OW 7298   1.689   5.978   4.024 -0.1120 -0.1304  0.3384
 2285SOL    HW1 7299   1.695   6.038   3.950  1.2214 -0.1048  0.4414
 2285SOL    HW2 7300   1.741   5.902   3.997 -0.0973 -0.3698  1.0246
 2286SOL     OW 7301   1.603   3.011   0.803 -0.6671 -0.3464 -0.2203
 2286SOL    HW1 7302   1.687   3.004   0.849 -1.4766 -0.0235  1.3515
 2286SOL    HW2 7303   1.557   2.930   0.824 -0.7840 -0.4920 -1.0220
 2287SOL     OW 7304   3.684   4.499   3.095  0.2251  0.1428 -0.5194
 2287SOL    HW1 7305   3.623   4.563   3.132  0.5520  0.4752 -0.5488
 2287SOL    HW2 7306   3.630   4.422   3.077 -0.0061  0.0950  0.3358
 2288SOL     OW 7307   2.979   1.843   3.182  0.1324 -0.3297 -0.2628
 2288SOL    HW1 7308   2.970   1.794   3.100 -0.0595  1.5823 -1.4574
 2288SOL    HW2 7309   3.062   1.814   3.218 -1.0206 -3.2390  0.3545
 2289SOL     OW 7310   5.088   2.060   2.230 -0.3919  0.3254 -0.3081
 2289SOL    HW1 7311   5.067   2.010   2.151 -1.2359 -0.4377  0.3818
 2289SOL    HW2 7312   5.139   1.999   2.284 -1.8308  0.0020  0.7478
 2290SOL     OW 7313   1.175   3.731   2.973 -0.5080  0.2877 -0.1870
 2290SOL    HW1 7314   1.181   3.764   3.063  0.0829  1.3155 -0.5773
 2290SOL    HW2 7315   1.202   3.639   2.979 -1.1763  0.1420  0.7873
 2291SOL     OW 7316   5.115   3.907   2.504 -0.2812  0.1026 -0.3115
 2291SOL    HW1 7317   5.185   3.841   2.510 -1.6116 -1.2452  1.6525
 2291SOL    HW2 7318   5.148   3.982   2.554  0.5990  0.3405 -1.2130
 2292SOL     OW 7319   5.455   2.233   0.400  0.2944 -0.1456  0.4234
 2292SOL    HW1 7320   5.507   2.287   0.460  1.6865 -0.0035 -0.8280
 2292SOL    HW2 7321   5.519   2.171   0.364 -0.0379  0.8798 -2.1731
 2293SOL     OW 7322   5.751   0.003   2.310 -0.0842  0.0680 -0.2659
 2293SOL    HW1 7323   5.703   0.066   2.364 -0.2133 -0.2520 -0.0031
 2293SOL    HW2 7324   5.707   0.006   2.225 -0.4989 -0.1342 -0.0617
 2294SOL     OW 7325   1.181   1.917   2.459  0.5636  0.1122  0.0329
 2294SOL    HW1 7326   1.228   1.982   2.511 -1.1682  0.4645  1.2406
 2294SOL    HW2 7327   1.233   1.838   2.466  0.8684  0.4166  1.5436
 2295SOL     OW 7328   0.000   1.432   0.672  0.0126 -0.3414 -0.4635
 2295SOL    HW1 7329  -0.036   1.385   0.597 -0.2157 -0.6695 -0.1465
 2295SOL    HW2 7330   0.045   1.507   0.633 -0.9645  0.0511 -0.8697
 2296SOL     OW 7331   5.052   1.088   0.824  0.2325  0.1178 -0.3731
 2296SOL    HW1 7332   5.132   1.095   0.772  0.5162 -0.6477 -0.0451
 2296SOL    HW2 7333   4.983   1.117   0.764  0.7539  0.8915 -0.6270
 2297SOL     OW 7334   3.279   0.034   4.074  0.2775  0.4736  0.6144
 2297SOL    HW1 7335   3.326   0.052   4.155 -2.0461  0.6674  2.0301
 2297SOL    HW2 7336   3.235  -0.050   4.090 -1.5913  1.3296  0.2829
 2298SOL     OW 7337   1.789   0.577   5.340  0.3305  0.4585 -0.1683
 2298SOL    HW1 7338   1.782   0.558   5.247 -0.3420 -0.7277  0.0962
 2298SOL    HW2 7339   1.712   0.632   5.359 -0.4955 -0.7178 -0.0055
 2299SOL     OW 7340   5.686   5.084   0.555  0.2056 -0.5236 -0.4701
 2299SOL    HW1 7341   5.711   5.072   0.646  2.6453  0.0024 -1.0183
 2299SOL    HW2 7342   5.699   4.999   0.514 -1.8370 -1.0347 -0.1980
 2300SOL     OW 7343   1.982   5.872   1.672  0.6649  0.4642  0.4449
 2300SOL    HW1 7344   1.940   5.941   1.619 -0.8509 -0.9091 -0.2303
 2300SOL    HW2 7345   1.951   5.791   1.633  1.9945 -0.6153  1.5624
 2301SOL     OW 7346   2.088   1.422   0.312 -0.1709 -0.3936  0.1795
 2301SOL    HW1 7347   2.174   1.427   0.270 -0.7386 -0.6462 -1.0629
 2301SOL    HW2 7348   2.048   1.506   0.293 -0.4299 -0.5060  0.2320
 2302SOL     OW 7349   4.536   4.838   5.077  0.0738  0.0961  0.7354
 2302SOL    HW1 7350   4.587   4.909   5.116  0.3248  1.1624 -1.3780
 2302SOL    HW2 7351   4.569   4.832   4.987 -1.4516 -1.2456  0.2217
 2303SOL     OW 7352   5.391   1.287   5.058 -0.3622 -0.5548  0.1917
 2303SOL    HW1 7353   5.334   1.228   5.107 -0.8209 -1.0523 -0.8983
 2303SOL    HW2 7354   5.450   1.229   5.009  0.9778 -0.0570  1.1439
 2304SOL     OW 7355   2.070   1.344   5.534  0.2585 -0.2889 -0.2060
 2304SOL    HW1 7356   1.988   1.392   5.544 -0.1784 -1.2918  1.3821
 2304SOL    HW2 7357   2.094   1.357   5.442 -1.9340 -0.3425 -0.8579
 2305SOL     OW 7358   5.176   2.887   4.687 -0.0017  0.0061 -0.1954
 2305SOL    HW1 7359   5.103   2.865   4.745  1.1541  0.5531  1.5590
 2305SOL    HW2 7360   5.227   2.951   4.737  0.5444  1.2559 -2.2486
 2306SOL     OW 7361   1.710   1.201   3.843  0.0038  0.2128 -0.3033
 2306SOL    HW1 7362   1.639   1.207   3.779  0.2001 -1.1268 -0.6951
 2306SOL    HW2 7363   1.778   1.258   3.809 -0.1039 -0.0713 -1.0230
 2307SOL     OW 7364   1.205   2.392   0.383 -0.3598 -0.2488  0.4636
 2307SOL    HW1 7365   1.165   2.373   0.468 -1.4792  0.2920  0.0784
 2307SOL    HW2 7366   1.262   2.466   0.399  1.6529 -1.8920  1.3227
 2308SOL     OW 7367   2.874   4.367   2.094 -0.3457 -0.2679 -0.1816
 2308SOL    HW1 7368   2.853   4.414   2.174  0.4862 -0.3639  0.1046
 2308SOL    HW2 7369   2.801   4.386   2.035  0.3385  2.1116 -0.3948
 2309SOL     OW 7370   2.335   1.968   2.780 -0.1456  0.5220  0.3885
 2309SOL    HW1 7371   2.379   1.886   2.758 -0.6062  0.8173 -1.8824
 2309SOL    HW2 7372   2.293   1.951   2.865  1.2201 -0.9709  0.8197
 2310SOL     OW 7373   1.579   0.098   0.333 -0.5276 -0.1830  0.5129
 2310SOL    HW1 7374   1.495   0.104   0.380  0.4618 -1.9310  2.6642
 2310SOL    HW2 7375   1.614   0.187   0.337 -1.2583  0.0864  1.6643
 2311SOL     OW 7376   0.189   5.259   2.735  0.0336 -0.2198 -0.4770
 2311SOL    HW1 7377   0.211   5.305   2.816 -1.3745 -0.6483  0.1725
 2311SOL    HW2 7378   0.117   5.310   2.697  0.5032 -0.1705 -1.3358
 2312SOL     OW 7379   1.020   0.720   3.434 -0.0707  0.3248 -0.0482
 2312SOL    HW1 7380   1.110   0.740   3.459 -0.3863  2.7598 -0.5985
 2312SOL    HW2 7381   0.967   0.769   3.496 -1.0168 -0.3959 -0.2657
 2313SOL     OW 7382   4.301   2.419   5.170  0.3178 -0.3516  0.4223
 2313SOL    HW1 7383   4.209   2.427   5.197  0.1341  0.0152 -0.2826
 2313SOL    HW2 7384   4.307   2.331   5.131 -0.3448  0.4882 -1.7114
 2314SOL     OW 7385   1.151   4.241   1.273  0.1993  0.1111  0.4911
 2314SOL    HW1 7386   1.146   4.147   1.259  0.4642  0.4190 -2.1831
 2314SOL    HW2 7387   1.140   4.252   1.368  0.1451 -2.5718  0.8690
 2315SOL     OW 7388   4.506   1.590   4.947  0.0029  0.7389  0.3997
 2315SOL    HW1 7389   4.590   1.571   4.904  0.0113  1.4797  0.0748
 2315SOL    HW2 7390   4.464   1.654   4.890 -0.5144  0.8367  0.8867
 2316SOL     OW 7391   6.095   3.205   2.829  0.0997  0.0756 -0.7854
 2316SOL    HW1 7392   6.133   3.289   2.803  2.0732 -1.9976 -5.9527
 2316SOL    HW2 7393   6.171   3.149   2.848 -1.1096 -0.9330  1.5187
 2317SOL     OW 7394   1.287   5.862   5.129  0.4728  0.2760  0.0546
 2317SOL    HW1 7395   1.343   5.939   5.113  1.4402 -0.5405 -0.6332
 2317SOL    HW2 7396   1.284   5.817   5.044 -0.8636  0.0461  0.2079
 2318SOL     OW 7397   4.378   3.149   0.274  0.2627 -0.1916 -0.2148
 2318SOL    HW1 7398   4.436   3.165   0.199 -1.1492 -0.0572 -1.3014
 2318SOL    HW2 7399   4.307   3.096   0.239  0.5153 -1.7451  1.4714
 2319SOL     OW 7400   1.169   0.273   5.425  0.3195  0.0634 -0.1927
 2319SOL    HW1 7401   1.183   0.186   5.389 -1.6480 -0.6823  0.7046
 2319SOL    HW2 7402   1.087   0.266   5.474  0.0222  2.4530 -0.2131
 2320SOL     OW 7403   5.727   4.615   1.136 -0.4171 -0.0871  0.6004
 2320SOL    HW1 7404   5.722   4.556   1.211  0.2010 -0.2563  0.5188
 2320SOL    HW2 7405   5.818   4.609   1.108 -0.9845 -1.3198 -1.1923
 2321SOL     OW 7406   2.361   4.567   2.786  0.4985 -0.2093  0.3904
 2321SOL    HW1 7407   2.454   4.565   2.762  0.4891 -0.3288  0.3641
 2321SOL    HW2 7408   2.354   4.507   2.861  0.1481 -1.5201 -0.6475
 2322SOL     OW 7409   3.676   1.020   0.989  0.6348 -0.5586 -0.1855
 2322SOL    HW1 7410   3.671   0.947   0.927 -0.5107 -0.1802 -0.5664
 2322SOL    HW2 7411   3.749   1.073   0.958 -0.6000  0.2117 -1.9009
 2323SOL     OW 7412   4.859   4.398   4.718  0.2173 -0.7881 -0.2210
 2323SOL    HW1 7413   4.940   4.367   4.678  0.0646 -0.1985 -1.0249
 2323SOL    HW2 7414   4.829   4.325   4.773  0.1189 -1.8841 -1.6739
 2324SOL     OW 7415   4.139   0.314   3.901  0.0633  1.1890 -0.1429
 2324SOL    HW1 7416   4.134   0.299   3.995 -0.8239  2.1914 -0.0084
 2324SOL    HW2 7417   4.118   0.229   3.862 -1.9332  1.2982  0.5782
 2325SOL     OW 7418   4.657   3.652   0.361  0.5451 -0.2751 -0.3026
 2325SOL    HW1 7419   4.568   3.617   0.361  0.3449  0.2057 -1.3045
 2325SOL    HW2 7420   4.691   3.630   0.448 -1.2512  1.3081  0.8930
 2326SOL     OW 7421   1.895   2.042   3.861  0.1300  0.1700 -0.1202
 2326SOL    HW1 7422   1.938   2.013   3.941 -0.9253  2.0447  1.1990
 2326SOL    HW2 7423   1.808   2.003   3.865 -0.4583  1.5005  0.4536
 2327SOL     OW 7424   2.988   5.480   3.472  0.3949 -0.4229 -0.2856
 2327SOL    HW1 7425   3.045   5.406   3.490 -0.2255 -0.8365  0.0190
 2327SOL    HW2 7426   2.958   5.467   3.382 -1.4890 -1.7940  0.4684
 2328SOL     OW 7427   2.898   3.052   3.043 -0.3772 -0.5110  0.1930
 2328SOL    HW1 7428   2.922   3.138   3.010 -2.2838 -0.3521 -0.9309
 2328SOL    HW2 7429   2.811   3.064   3.082 -0.3280 -1.7618  0.7473
 2329SOL     OW 7430   1.771   4.034   3.353 -0.2207  0.8666 -0.1728
 2329SOL    HW1 7431   1.824   4.012   3.276 -0.8912 -0.3000 -0.3178
 2329SOL    HW2 7432   1.833   4.031   3.426  0.0605  0.1941 -0.4319
 2330SOL     OW 7433   3.826   5.847   2.580 -0.0111  0.1227  0.0110
 2330SOL    HW1 7434   3.788   5.825   2.665  1.0682 -0.7338  0.2952
 2330SOL    HW2 7435   3.916   5.815   2.585 -0.0767 -0.4188 -1.6547
 2331SOL     OW 7436   1.404   4.105   5.783 -0.1803  0.0973 -0.7772
 2331SOL    HW1 7437   1.498   4.120   5.793 -0.3188  1.9514 -1.7168
 2331SOL    HW2 7438   1.365   4.191   5.801 -1.6254 -0.4652 -1.1274
 2332SOL     OW 7439   5.951   5.638   0.907 -0.7409  0.0104  0.6471
 2332SOL    HW1 7440   5.942   5.684   0.823 -1.8980 -1.3009  0.0171
 2332SOL    HW2 7441   6.022   5.575   0.892 -0.3041  0.4214  0.9675
 2333SOL     OW 7442   3.147   1.915   0.083  0.0230 -0.0089  0.0918
 2333SOL    HW1 7443   3.119   1.895  -0.006  0.1774 -0.9543  0.2468
 2333SOL    HW2 7444   3.066   1.936   0.130 -0.1516 -0.3209 -0.0699
 2334SOL     OW 7445   5.077   1.394   3.046 -0.2215 -0.8859  0.3384
 2334SOL    HW1 7446   5.116   1.342   2.976 -0.4461 -1.4597  0.6288
 2334SOL    HW2 7447   5.063   1.480   3.007  1.6965 -0.5288  0.3478
 2335SOL     OW 7448   4.412   2.679   1.676 -0.1762 -0.2108  0.1934
 2335SOL    HW1 7449   4.505   2.669   1.697 -0.3981 -0.6216  1.0698
 2335SOL    HW2 7450   4.405   2.765   1.637  0.7168 -0.5438 -0.7438
 2336SOL     OW 7451   0.154   0.861   2.362 -0.3877  0.1384  0.4011
 2336SOL    HW1 7452   0.116   0.863   2.449  0.8662  2.1424  0.9791
 2336SOL    HW2 7453   0.081   0.881   2.303 -1.0313 -0.1590  1.0941
 2337SOL     OW 7454   4.358   0.903   0.420  0.4075  0.2072 -0.0429
 2337SOL    HW1 7455   4.299   0.834   0.451 -1.0259  0.9312 -1.0566
 2337SOL    HW2 7456   4.339   0.978   0.476  1.9183 -0.1413  1.0128
 2338SOL     OW 7457   3.972   1.066   5.509  0.3298 -0.2957  0.0526
 2338SOL    HW1 7458   4.052   1.024   5.541  0.2750 -1.5630 -1.3744
 2338SOL    HW2 7459   3.981   1.065   5.414 -1.5817 -0.8622 -0.1574
 2339SOL     OW 7460   3.135   0.851   5.414 -0.6477  0.3133  0.3716
 2339SOL    HW1 7461   3.103   0.766   5.381 -0.3017  0.1190  0.5301
 2339SOL    HW2 7462   3.202   0.877   5.350 -2.1108  1.4217 -0.7731
 2340SOL     OW 7463   5.478   3.198   0.923 -0.5959  0.1209  0.1614
 2340SOL    HW1 7464   5.471   3.114   0.968  0.3427  0.6666  1.3891
 2340SOL    HW2 7465   5.487   3.175   0.831  0.7582 -1.2034  0.5765
 2341SOL     OW 7466   2.030   1.192   5.802 -0.5133  0.0188  0.0790
 2341SOL    HW1 7467   1.977   1.264   5.836 -0.8844  0.5624 -1.5693
 2341SOL    HW2 7468   2.013   1.192   5.708  0.8584 -1.1013 -0.1980
 2342SOL     OW 7469   2.312   2.433   1.487  0.1409 -0.1117  0.1837
 2342SOL    HW1 7470   2.354   2.381   1.555 -0.5556 -0.9877 -0.0454
 2342SOL    HW2 7471   2.243   2.481   1.532 -0.0639 -0.3889  0.1652
 2343SOL     OW 7472   4.330   1.362   2.930  0.4596  0.3011 -0.1747
 2343SOL    HW1 7473   4.368   1.355   3.017 -1.0599 -0.2224  0.4751
 2343SOL    HW2 7474   4.314   1.455   2.918  1.0055  0.4151 -0.0652
 2344SOL     OW 7475   2.600   5.618   3.304 -0.1591 -0.7845 -0.0757
 2344SOL    HW1 7476   2.613   5.533   3.262  0.0058 -0.8513  0.1082
 2344SOL    HW2 7477   2.671   5.673   3.272 -0.9414 -0.3515 -1.1236
 2345SOL     OW 7478   1.864   0.024   5.427 -0.4416  0.1707 -0.0152
 2345SOL    HW1 7479   1.887   0.117   5.419 -1.6907  0.4179 -0.9455
 2345SOL    HW2 7480   1.769   0.022   5.423 -0.7164 -0.8587  3.3567
 2346SOL     OW 7481   0.281   3.411   5.973 -0.3167 -0.1779 -0.1076
 2346SOL    HW1 7482   0.281   3.484   5.911 -1.1896 -0.1119 -0.0354
 2346SOL    HW2 7483   0.300   3.334   5.920 -3.7543 -0.5486 -0.9996
 2347SOL     OW 7484   0.542   5.646   4.979  0.2089  0.1302 -0.3883
 2347SOL    HW1 7485   0.611   5.608   5.033 -0.5576 -0.3383  0.2884
 2347SOL    HW2 7486   0.577   5.731   4.951  0.9002  0.0764  0.2808
 2348SOL     OW 7487   5.133   5.756   3.086 -0.0645 -0.0479  0.2905
 2348SOL    HW1 7488   5.103   5.747   3.176  0.6502  0.1122  0.5539
 2348SOL    HW2 7489   5.218   5.800   3.093  0.6489 -1.2515 -0.3485
 2349SOL     OW 7490   3.940   3.669   4.411  0.1093 -0.5138  0.3143
 2349SOL    HW1 7491   3.896   3.592   4.448 -0.0359 -0.7678 -0.3731
 2349SOL    HW2 7492   3.999   3.633   4.345 -0.9907  0.0401 -1.0361
 2350SOL     OW 7493   5.888   1.890   3.029 -0.3253 -0.2429  0.2170
 2350SOL    HW1 7494   5.840   1.945   2.967  1.4249  0.0486 -0.9718
 2350SOL    HW2 7495   5.917   1.950   3.097 -1.6047 -0.4266  0.9605
 2351SOL     OW 7496   2.544   0.587   1.326 -0.3608  0.1040 -0.3267
 2351SOL    HW1 7497   2.487   0.540   1.266 -1.7700 -0.2042  1.1831
 2351SOL    HW2 7498   2.543   0.677   1.294  1.1672 -0.5269 -2.3638
 2352SOL     OW 7499   0.521   2.146   1.038 -0.3871  0.0551 -0.2991
 2352SOL    HW1 7500   0.606   2.133   1.081 -0.0326  0.5255 -0.8468
 2352SOL    HW2 7501   0.517   2.078   0.971 -0.8573 -0.5593  0.3484
 2353SOL     OW 7502   6.034   4.279   0.597 -0.7343  0.4991  0.3417
 2353SOL    HW1 7503   5.966   4.275   0.665 -0.8977  1.7808  0.2826
 2353SOL    HW2 7504   6.115   4.261   0.644 -1.0413 -0.5044  0.5152
 2354SOL     OW 7505   0.929   1.123   4.624  0.0826 -0.2516  0.5697
 2354SOL    HW1 7506   0.842   1.154   4.648  0.8410  0.5069  2.5180
 2354SOL    HW2 7507   0.930   1.031   4.650 -0.7117 -0.7999 -1.1843
 2355SOL     OW 7508   0.670   3.140   4.818 -0.5971 -0.6700  0.0838
 2355SOL    HW1 7509   0.709   3.063   4.778  0.9936  0.3239 -0.3670
 2355SOL    HW2 7510   0.729   3.162   4.890  0.7526  1.8499 -1.6297
 2356SOL     OW 7511   1.501   5.980   1.633 -0.7869  0.0803  0.3290
 2356SOL    HW1 7512   1.513   5.996   1.726 -0.6989  1.6692  0.0747
 2356SOL    HW2 7513   1.583   5.940   1.604 -0.6023  0.1013  0.8179
 2357SOL     OW 7514   5.888   3.131   3.030 -0.7453 -0.3815  0.0544
 2357SOL    HW1 7515   5.960   3.162   2.974 -1.7546 -2.6949 -2.8165
 2357SOL    HW2 7516   5.899   3.036   3.032 -2.0095 -0.5334  2.1096
 2358SOL     OW 7517   3.103   1.009   5.891  0.4795  0.4443  0.3061
 2358SOL    HW1 7518   3.082   1.015   5.798 -0.8860 -1.0994  0.4824
 2358SOL    HW2 7519   3.188   0.964   5.893  0.1289 -0.2664 -0.1878
 2359SOL     OW 7520   1.943   3.661   3.009 -0.1250 -0.2673 -0.6183
 2359SOL    HW1 7521   1.879   3.603   2.967 -0.2049 -0.1810 -0.6144
 2359SOL    HW2 7522   2.012   3.671   2.945  1.0375 -2.2652  0.2275
 2360SOL     OW 7523   5.317   5.666   0.999 -0.0367 -0.2096  0.7250
 2360SOL    HW1 7524   5.308   5.681   1.094 -0.3701  0.1247  0.6436
 2360SOL    HW2 7525   5.332   5.572   0.991 -0.9088 -0.3878  1.0488
 2361SOL     OW 7526   1.862   3.585   1.743 -0.3946  0.3280 -0.3344
 2361SOL    HW1 7527   1.927   3.515   1.744  0.6873  1.3008  0.5515
 2361SOL    HW2 7528   1.780   3.541   1.725  0.5218 -0.9179 -1.7562
 2362SOL     OW 7529   1.979   3.046   0.712  0.5839  0.3213  0.3023
 2362SOL    HW1 7530   1.970   2.992   0.791 -1.1223  1.5680  1.0118
 2362SOL    HW2 7531   2.074   3.055   0.700  0.9078 -1.5092  1.0393
 2363SOL     OW 7532   3.572   1.648   3.662  1.0050  0.6392 -0.1595
 2363SOL    HW1 7533   3.633   1.701   3.610  1.0310  1.4755  0.6972
 2363SOL    HW2 7534   3.624   1.615   3.735  1.2810 -1.5673 -1.2843
 2364SOL     OW 7535   3.599   2.989   4.428  0.4800  0.6513 -0.3596
 2364SOL    HW1 7536   3.555   2.926   4.485  2.3506 -0.7254 -0.3377
 2364SOL    HW2 7537   3.584   3.074   4.470 -1.3698  0.1569  0.0731
 2365SOL     OW 7538   4.859   1.309   0.119 -0.1336  0.4918  0.1114
 2365SOL    HW1 7539   4.934   1.345   0.166  1.4707  2.0785 -3.2633
 2365SOL    HW2 7540   4.878   1.216   0.112  0.7974  0.6330  0.5538
 2366SOL     OW 7541   0.649   4.829   2.569  0.7861 -0.4284 -0.1101
 2366SOL    HW1 7542   0.714   4.869   2.627 -1.3296  2.9085  0.2593
 2366SOL    HW2 7543   0.579   4.801   2.627  0.8151 -1.7749 -0.6909
 2367SOL     OW 7544   3.339   2.816   1.709  0.0728 -0.0562 -0.5034
 2367SOL    HW1 7545   3.373   2.742   1.759 -0.8494 -1.5935 -2.0500
 2367SOL    HW2 7546   3.360   2.795   1.618 -1.7927  0.6757 -1.1469
 2368SOL     OW 7547   1.001   3.362   6.027 -0.0845 -0.0038  0.1826
 2368SOL    HW1 7548   0.981   3.375   5.935 -0.6023  0.6780  0.3916
 2368SOL    HW2 7549   0.922   3.324   6.065  0.2634 -0.6742  0.2763
 2369SOL     OW 7550   4.929   4.655   4.624 -0.2868 -0.2505  0.0201
 2369SOL    HW1 7551   4.956   4.695   4.707  1.6654 -0.9673 -0.2325
 2369SOL    HW2 7552   4.898   4.568   4.649 -0.0291 -0.3381  0.0346
 2370SOL     OW 7553   4.908   2.785   0.126 -0.0695  0.4388  0.4291
 2370SOL    HW1 7554   4.939   2.834   0.050  0.3336 -0.4147  0.0343
 2370SOL    HW2 7555   4.813   2.794   0.123 -0.1010 -0.0616 -0.5196
 2371SOL     OW 7556   0.217   5.050   3.729 -0.0879 -0.1779  0.0571
 2371SOL    HW1 7557   0.258   4.970   3.763 -0.0267 -0.2730 -0.2292
 2371SOL    HW2 7558   0.223   5.040   3.634 -1.5240 -0.5878 -0.0210
 2372SOL     OW 7559   4.078   1.365   5.479  0.3415  0.4829  0.0176
 2372SOL    HW1 7560   3.983   1.358   5.466  0.2197 -2.9503  1.6127
 2372SOL    HW2 7561   4.104   1.279   5.513  3.9528  1.5085  0.2753
 2373SOL     OW 7562   5.991   4.558   3.559  0.2350  0.1122  0.4318
 2373SOL    HW1 7563   5.998   4.603   3.643 -1.2734  0.0223  0.6365
 2373SOL    HW2 7564   6.027   4.471   3.575  1.6438  0.6691  0.4718
 2374SOL     OW 7565   4.636   1.456   1.156 -0.2751  0.2661  0.1866
 2374SOL    HW1 7566   4.731   1.452   1.141 -0.2767  0.6743  0.0751
 2374SOL    HW2 7567   4.625   1.528   1.218 -0.6761  1.3045 -1.0770
 2375SOL     OW 7568   5.218   3.187   0.636 -0.1566 -0.3140  0.4969
 2375SOL    HW1 7569   5.201   3.110   0.582 -2.0982  0.3427  0.1147
 2375SOL    HW2 7570   5.314   3.194   0.638  0.0363 -0.1811 -3.1148
 2376SOL     OW 7571   2.331   1.607   1.282 -0.1700  0.3140  0.5372
 2376SOL    HW1 7572   2.418   1.615   1.321 -0.2718 -0.9076  1.0631
 2376SOL    HW2 7573   2.347   1.587   1.190  0.1272 -0.3019  0.7150
 2377SOL     OW 7574   0.942   0.514   4.735  0.0942 -0.1661 -0.2344
 2377SOL    HW1 7575   0.877   0.558   4.789 -0.8437 -1.4966 -0.2354
 2377SOL    HW2 7576   1.016   0.498   4.794 -0.0347  0.3459  0.0646
 2378SOL     OW 7577   4.362   3.544   3.471  0.4452  0.6384  0.8096
 2378SOL    HW1 7578   4.373   3.579   3.559 -1.0803 -2.1145  2.2144
 2378SOL    HW2 7579   4.419   3.467   3.468  1.0067  1.0728 -0.9100
 2379SOL     OW 7580   2.639   4.206   4.025 -0.0048  0.5443  0.4196
 2379SOL    HW1 7581   2.603   4.152   4.095  1.0323 -1.5934 -0.5997
 2379SOL    HW2 7582   2.733   4.211   4.044  0.0805  1.0574 -0.1061
 2380SOL     OW 7583   5.263   1.461   4.872 -0.2371 -0.6928  0.4988
 2380SOL    HW1 7584   5.179   1.485   4.911 -0.5820 -1.1296  0.0264
 2380SOL    HW2 7585   5.301   1.399   4.935 -1.6676 -2.9334 -0.7482
 2381SOL     OW 7586   4.355   4.280   1.084  0.0517  0.5758  0.4235
 2381SOL    HW1 7587   4.287   4.214   1.070  1.3017 -0.6508 -0.0629
 2381SOL    HW2 7588   4.323   4.357   1.038  0.1701 -0.8041 -2.1453
 2382SOL     OW 7589   4.169   2.729   1.380 -0.1089 -0.3358 -0.3158
 2382SOL    HW1 7590   4.108   2.733   1.455 -0.7253 -0.4810 -0.8023
 2382SOL    HW2 7591   4.226   2.805   1.392  0.3558 -0.8315  0.7632
 2383SOL     OW 7592   4.208   1.075   3.106  0.0917 -0.1818 -0.1426
 2383SOL    HW1 7593   4.238   1.093   3.017  0.4430 -0.1605 -0.0232
 2383SOL    HW2 7594   4.119   1.043   3.095  0.0682 -0.0062 -0.4881
 2384SOL     OW 7595   3.929   2.437   1.978 -0.4489 -0.1675 -0.0277
 2384SOL    HW1 7596   3.866   2.476   1.918  1.0520  1.2620 -0.7669
 2384SOL    HW2 7597   3.920   2.489   2.058  1.4697  1.8078 -0.9746
 2385SOL     OW 7598   5.206   2.192   3.284 -0.6998  0.1672  0.0129
 2385SOL    HW1 7599   5.179   2.271   3.330 -1.9434  0.5809 -1.3432
 2385SOL    HW2 7600   5.271   2.223   3.220  0.6427 -0.3214  1.0957
 2386SOL     OW 7601   0.813   4.772   3.906  0.1842 -0.3086  0.6132
 2386SOL    HW1 7602   0.818   4.867   3.916 -1.5285 -0.1850  0.6270
 2386SOL    HW2 7603   0.761   4.758   3.827  0.6888 -1.2490  0.4221
 2387SOL     OW 7604   4.096   6.015   1.307  0.8305  0.0812 -0.3128
 2387SOL    HW1 7605   4.084   6.040   1.216 -0.2986 -0.1737 -0.2541
 2387SOL    HW2 7606   4.134   6.093   1.348  2.4393 -0.2030 -1.2152
 2388SOL     OW 7607   1.136   1.124   0.427  0.2296 -0.1924 -0.3939
 2388SOL    HW1 7608   1.146   1.076   0.509 -1.6765  0.2291  0.1416
 2388SOL    HW2 7609   1.157   1.215   0.449 -2.5459  0.3606  0.2850
 2389SOL     OW 7610   4.597   2.436   1.021  0.1203 -0.7619  0.5302
 2389SOL    HW1 7611   4.662   2.433   0.950 -1.0948  1.9704 -0.8506
 2389SOL    HW2 7612   4.626   2.507   1.078 -1.3526  0.2540  0.0912
 2390SOL     OW 7613   4.816   2.805   4.538  0.3548  0.4531  0.0060
 2390SOL    HW1 7614   4.872   2.810   4.616 -0.4964  0.5704  0.6260
 2390SOL    HW2 7615   4.748   2.872   4.553  0.5147  0.8914 -1.1123
 2391SOL     OW 7616   2.463   1.194   1.457 -0.1635  0.2391 -0.3565
 2391SOL    HW1 7617   2.424   1.149   1.532 -1.2000 -0.8909 -1.5342
 2391SOL    HW2 7618   2.553   1.160   1.454 -0.5945 -0.9617 -0.5595
 2392SOL     OW 7619   1.962   4.130   1.451  0.0923 -0.2860 -0.0983
 2392SOL    HW1 7620   1.906   4.150   1.526  0.3081 -0.8875  0.2256
 2392SOL    HW2 7621   2.049   4.117   1.488  0.1383 -0.8992 -0.4062
 2393SOL     OW 7622   1.477   2.396   1.468  0.3995  0.5560  0.0857
 2393SOL    HW1 7623   1.391   2.353   1.476  1.4348 -1.9990 -1.0990
 2393SOL    HW2 7624   1.534   2.347   1.526  1.2299  1.7570  0.3131
 2394SOL     OW 7625   3.758   5.013   4.251 -0.2192 -0.3027  0.2086
 2394SOL    HW1 7626   3.689   5.043   4.310 -0.2250 -0.6561  0.3847
 2394SOL    HW2 7627   3.712   4.979   4.174 -0.2091  0.2283 -0.0382
 2395SOL     OW 7628   1.076   3.749   3.648  0.1232 -0.0369 -0.1289
 2395SOL    HW1 7629   1.130   3.671   3.658  0.0198 -0.0693  0.1685
 2395SOL    HW2 7630   1.140   3.820   3.637  0.2808  0.1367  1.6431
 2396SOL     OW 7631   2.738   5.601   5.989 -0.0152  0.2095  0.2202
 2396SOL    HW1 7632   2.798   5.674   6.004  0.9889 -0.9043  2.0058
 2396SOL    HW2 7633   2.687   5.595   6.070 -1.1723 -0.1016 -0.5131
 2397SOL     OW 7634   1.882   6.045   4.780 -0.2850  0.2644  0.2591
 2397SOL    HW1 7635   1.877   6.137   4.752 -1.3726  0.5332  1.2509
 2397SOL    HW2 7636   1.968   6.038   4.822 -0.5306  1.0863  0.9539
 2398SOL     OW 7637   5.183   2.668   0.120  0.0775  0.3901  0.2226
 2398SOL    HW1 7638   5.142   2.611   0.185  1.7777  0.2389  1.2260
 2398SOL    HW2 7639   5.115   2.732   0.098 -1.9497 -2.0266 -1.0513
 2399SOL     OW 7640   4.859   5.390   4.036  0.5666  0.2826  0.3328
 2399SOL    HW1 7641   4.953   5.406   4.034  0.3867  1.4004 -0.3472
 2399SOL    HW2 7642   4.822   5.470   4.072 -0.1854  0.2235 -0.2850
 2400SOL     OW 7643   5.086   5.792   4.019  0.3319 -0.0153 -0.0356
 2400SOL    HW1 7644   5.115   5.797   4.110 -0.1502 -0.4426  0.1437
 2400SOL    HW2 7645   5.051   5.704   4.009 -2.3944  0.9560  0.2080
 2401SOL     OW 7646   1.530   3.013   4.177 -0.1669 -0.1051 -0.1050
 2401SOL    HW1 7647   1.472   3.055   4.114  1.2322  1.6926 -0.2790
 2401SOL    HW2 7648   1.472   2.986   4.249 -1.3294  0.7342 -0.6943
 2402SOL     OW 7649   4.009   2.298   2.493 -0.2177 -0.0017 -0.1297
 2402SOL    HW1 7650   4.059   2.217   2.492  1.4825  1.0160 -0.8427
 2402SOL    HW2 7651   4.026   2.338   2.408  0.1824  1.7893  0.7497
 2403SOL     OW 7652   2.925   3.613   1.154  0.3605  0.0017  0.1203
 2403SOL    HW1 7653   2.845   3.664   1.141  0.9683  1.0869  0.4880
 2403SOL    HW2 7654   2.959   3.642   1.239  0.4868 -1.3695  0.5603
 2404SOL     OW 7655   5.575   2.822   1.887 -0.3373  0.1059  0.9912
 2404SOL    HW1 7656   5.495   2.872   1.905  0.7731  1.1988  3.2328
 2404SOL    HW2 7657   5.611   2.862   1.808 -0.9172  1.0002  1.1664
 2405SOL     OW 7658   4.765   3.121   0.336 -0.2210 -0.3140  0.2941
 2405SOL    HW1 7659   4.726   3.056   0.395 -0.4585 -1.1470 -0.7438
 2405SOL    HW2 7660   4.859   3.114   0.352 -0.2777 -0.5757  0.5278
 2406SOL     OW 7661   4.592   0.345   2.160  0.1666 -0.0626 -0.6878
 2406SOL    HW1 7662   4.575   0.380   2.248  0.7045 -0.1128 -0.5630
 2406SOL    HW2 7663   4.578   0.420   2.102  1.8906  0.5391 -0.3710
 2407SOL     OW 7664   5.828   1.415   5.145 -0.4008 -0.2282 -0.3118
 2407SOL    HW1 7665   5.748   1.455   5.181 -1.0126 -0.5031 -1.3199
 2407SOL    HW2 7666   5.897   1.479   5.162 -1.1445  0.7514 -0.8534
 2408SOL     OW 7667   0.311   4.201   3.018  0.5330 -0.2338  0.3218
 2408SOL    HW1 7668   0.332   4.180   3.109 -1.6764 -1.1226  0.6984
 2408SOL    HW2 7669   0.225   4.244   3.023  1.1962  1.3828 -1.2055
 2409SOL     OW 7670   5.627   0.528   1.054 -0.2471 -0.3660 -0.2392
 2409SOL    HW1 7671   5.647   0.487   1.138 -1.4852 -0.8583 -0.1597
 2409SOL    HW2 7672   5.692   0.597   1.044 -1.2182  0.9385  1.9915
 2410SOL     OW 7673   5.679   2.753   5.977  0.2995  0.1028  0.0305
 2410SOL    HW1 7674   5.620   2.827   5.965  0.6076  0.4286  0.5086
 2410SOL    HW2 7675   5.622   2.680   6.000  0.1143  0.5200  0.9394
 2411SOL     OW 7676   5.468   0.653   2.317 -0.0536  0.4201  0.5352
 2411SOL    HW1 7677   5.459   0.740   2.279 -0.4143  1.1665  2.2468
 2411SOL    HW2 7678   5.558   0.627   2.297  0.3585  1.5911  0.8475
 2412SOL     OW 7679   2.455   2.086   6.059  0.7730  0.5382 -0.8498
 2412SOL    HW1 7680   2.505   2.168   6.072  1.2795  0.3871 -1.7404
 2412SOL    HW2 7681   2.402   2.103   5.981  0.3124  0.2745 -0.5937
 2413SOL     OW 7682   0.022   3.728   2.452  0.4458 -0.2010 -0.0580
 2413SOL    HW1 7683  -0.069   3.722   2.422  0.5421 -0.3412 -0.3240
 2413SOL    HW2 7684   0.056   3.808   2.412  0.1846  0.3157  0.7365
 2414SOL     OW 7685   3.276   0.302   2.240 -0.1057 -0.6058  0.1157
 2414SOL    HW1 7686   3.316   0.373   2.189 -0.5219 -1.0013 -0.7821
 2414SOL    HW2 7687   3.345   0.237   2.249 -0.0609 -0.5814 -0.0455
 2415SOL     OW 7688   1.229   0.855   2.013 -0.0241 -0.5944  0.0068
 2415SOL    HW1 7689   1.283   0.780   1.990 -0.0300 -0.5766 -0.0641
 2415SOL    HW2 7690   1.270   0.929   1.968 -0.5313 -0.7001 -0.6366
 2416SOL     OW 7691   2.373   0.532   5.144 -0.1840 -0.5099 -0.4036
 2416SOL    HW1 7692   2.380   0.524   5.239  0.2356 -0.4054 -0.4239
 2416SOL    HW2 7693   2.464   0.537   5.113 -0.3133 -0.6360 -0.8182
 2417SOL     OW 7694   0.332   0.303   3.318  0.6151  0.3698 -0.4968
 2417SOL    HW1 7695   0.268   0.232   3.303 -0.8394  1.6256 -0.5073
 2417SOL    HW2 7696   0.329   0.319   3.412  1.3411  0.0809 -0.4173
 2418SOL     OW 7697   2.292   0.735   0.636 -0.7497  0.4793 -0.2312
 2418SOL    HW1 7698   2.210   0.687   0.628 -0.3261 -0.1869 -0.8417
 2418SOL    HW2 7699   2.309   0.740   0.730 -0.0744 -1.9193 -0.1575
 2419SOL     OW 7700   2.285   4.578   3.916 -0.5635  0.1827  0.1044
 2419SOL    HW1 7701   2.217   4.563   3.982 -0.7018 -0.6392 -0.2153
 2419SOL    HW2 7702   2.255   4.529   3.840  0.2822 -0.0197 -0.1070
 2420SOL     OW 7703   2.854   0.820   3.357  0.5736  0.0662  0.6229
 2420SOL    HW1 7704   2.784   0.779   3.408  0.4177  0.2520  0.5634
 2420SOL    HW2 7705   2.871   0.759   3.285 -1.3742  1.1812 -0.8983
 2421SOL     OW 7706   4.067   1.395   2.867  0.1091 -0.2233  0.0143
 2421SOL    HW1 7707   4.004   1.360   2.930 -0.1770  1.5736  0.7865
 2421SOL    HW2 7708   4.151   1.362   2.897 -0.0560  0.3692  1.2191
 2422SOL     OW 7709   1.193   3.126   4.448 -0.7041 -0.0083  0.1228
 2422SOL    HW1 7710   1.116   3.181   4.432  0.5976  2.2879  1.3652
 2422SOL    HW2 7711   1.186   3.102   4.541 -0.1137 -0.0998  0.1469
 2423SOL     OW 7712   3.563   2.625   0.556 -0.2408 -0.6233 -0.0320
 2423SOL    HW1 7713   3.557   2.606   0.462  1.0883  1.5303 -0.6270
 2423SOL    HW2 7714   3.656   2.623   0.576 -0.5828 -2.7794  1.7107
 2424SOL     OW 7715   2.503   4.877   6.116  0.1293  0.0173 -0.1059
 2424SOL    HW1 7716   2.576   4.921   6.072 -0.2286  0.8655  0.1298
 2424SOL    HW2 7717   2.435   4.870   6.050 -0.7126  2.0250  0.4829
 2425SOL     OW 7718   0.787   6.123   2.823 -0.5284 -0.0112  0.5771
 2425SOL    HW1 7719   0.723   6.058   2.795 -1.6090  0.0174  2.7122
 2425SOL    HW2 7720   0.751   6.158   2.905  1.4471  1.1921  1.0091
 2426SOL     OW 7721   5.028   3.157   5.574  0.0713  0.5204  0.0779
 2426SOL    HW1 7722   5.036   3.061   5.570  0.7287  0.4800  1.4827
 2426SOL    HW2 7723   5.118   3.189   5.569 -0.1195  1.0391 -0.0703
 2427SOL     OW 7724   0.807   4.275   3.597  0.5834 -0.0001  0.0080
 2427SOL    HW1 7725   0.728   4.234   3.633  0.1221 -0.6557 -1.6602
 2427SOL    HW2 7726   0.799   4.367   3.622  0.5606 -0.4905  1.9755
 2428SOL     OW 7727   4.188   1.518   0.419  0.1811 -0.9276  0.4754
 2428SOL    HW1 7728   4.256   1.581   0.442  0.7753 -1.5446  0.4364
 2428SOL    HW2 7729   4.106   1.564   0.437  0.6049 -0.2582  0.7473
 2429SOL     OW 7730   1.895   3.033   5.197 -0.7319 -0.1541 -0.3634
 2429SOL    HW1 7731   1.974   3.056   5.147 -0.3123 -0.4453  0.1619
 2429SOL    HW2 7732   1.838   2.991   5.132  0.4504 -1.9915 -0.2899
 2430SOL     OW 7733   4.367   2.396   1.781  0.0822 -0.0830 -0.6255
 2430SOL    HW1 7734   4.367   2.480   1.735  0.7229  1.5553  2.1143
 2430SOL    HW2 7735   4.444   2.350   1.747  1.0809  1.4638 -0.5731
 2431SOL     OW 7736   0.035   2.266   0.905 -0.2446  0.1256  0.6136
 2431SOL    HW1 7737   0.007   2.336   0.965 -1.0984  0.8777 -0.6240
 2431SOL    HW2 7738  -0.001   2.186   0.944 -1.4956  0.7000  0.7160
 2432SOL     OW 7739   4.995   5.317   3.696  0.9337 -0.0655 -0.6624
 2432SOL    HW1 7740   4.931   5.246   3.705  0.9542  0.0313  0.3911
 2432SOL    HW2 7741   5.080   5.274   3.703  0.9502  0.0203 -0.3045
 2433SOL     OW 7742   4.010   0.875   2.118  0.0232 -0.0938  0.0101
 2433SOL    HW1 7743   4.103   0.853   2.113 -0.4911 -2.2591 -2.3916
 2433SOL    HW2 7744   3.997   0.941   2.051 -0.2368 -0.1039  0.0489
 2434SOL     OW 7745   0.509   3.887   1.403  0.4796 -0.3215  0.1481
 2434SOL    HW1 7746   0.566   3.815   1.378  0.1366 -0.4836 -0.1803
 2434SOL    HW2 7747   0.423   3.846   1.417  0.0008  0.1887 -1.1782
 2435SOL     OW 7748   2.089   1.652   5.930 -0.5423 -0.0414 -0.4173
 2435SOL    HW1 7749   2.114   1.623   6.018  0.8770  1.0003 -0.4358
 2435SOL    HW2 7750   2.092   1.573   5.877  0.1500 -0.4185  0.1658
 2436SOL     OW 7751   4.716   3.715   3.965 -0.3350 -0.0808 -0.2210
 2436SOL    HW1 7752   4.738   3.808   3.959  0.1212 -0.1945 -0.3563
 2436SOL    HW2 7753   4.681   3.692   3.879 -1.8628  0.3100  0.2578
 2437SOL     OW 7754   0.127   1.969   3.045  0.0375 -0.2360 -0.2635
 2437SOL    HW1 7755   0.193   1.921   3.095 -0.6272 -0.4183  0.4565
 2437SOL    HW2 7756   0.176   2.036   2.998  0.8692 -1.0202 -0.5574
 2438SOL     OW 7757   2.811   3.068   0.589 -0.0830 -0.4603  0.0412
 2438SOL    HW1 7758   2.745   3.072   0.658  0.0612  1.0278  0.1358
 2438SOL    HW2 7759   2.894   3.063   0.637  0.1268  2.0905  0.0989
 2439SOL     OW 7760   3.912   2.589   2.421 -0.1708 -0.4244  0.6214
 2439SOL    HW1 7761   3.834   2.534   2.424  0.0997 -0.7854  1.1789
 2439SOL    HW2 7762   3.930   2.601   2.328 -0.2183 -1.3114  0.4936
 2440SOL     OW 7763   4.129   5.531   4.958  0.1524 -0.1827 -0.1481
 2440SOL    HW1 7764   4.217   5.557   4.932 -0.5036  0.4005 -1.9889
 2440SOL    HW2 7765   4.120   5.441   4.925  0.5514 -0.8243  1.4018
 2441SOL     OW 7766   4.047   1.279   0.693 -0.0935 -0.3344  0.5537
 2441SOL    HW1 7767   4.109   1.352   0.685 -1.9140  1.4370  1.5362
 2441SOL    HW2 7768   3.977   1.302   0.632 -0.5443 -1.4667  0.6345
 2442SOL     OW 7769   0.736   5.372   3.474 -0.5132  0.0992 -0.2111
 2442SOL    HW1 7770   0.692   5.369   3.559 -1.5047  0.8871 -0.6639
 2442SOL    HW2 7771   0.677   5.324   3.415  0.0670 -0.2704 -0.5036
 2443SOL     OW 7772   5.959   3.077   1.536 -0.3860 -0.2637 -0.6954
 2443SOL    HW1 7773   5.963   3.150   1.473  0.1752 -0.2668 -0.6685
 2443SOL    HW2 7774   6.013   3.107   1.610 -0.6278 -0.4716 -0.4349
 2444SOL     OW 7775   5.609   4.868   4.712 -0.2293  0.3034  0.3554
 2444SOL    HW1 7776   5.638   4.795   4.768  1.6246  1.7274  1.3594
 2444SOL    HW2 7777   5.685   4.888   4.657 -0.0874  2.5078  1.2531
 2445SOL     OW 7778   4.548   0.990   3.518  0.1489 -0.1520 -0.2295
 2445SOL    HW1 7779   4.641   0.986   3.541  0.3707  2.2053 -0.4557
 2445SOL    HW2 7780   4.547   1.009   3.424 -0.5274  0.6823 -0.0699
 2446SOL     OW 7781   0.914   5.295   4.502  0.3714  0.1039 -0.4164
 2446SOL    HW1 7782   0.934   5.382   4.469  2.1847  0.5979  1.7393
 2446SOL    HW2 7783   0.969   5.285   4.580 -0.9168 -2.3759  0.3014
 2447SOL     OW 7784   0.319   5.877   2.310  0.2477  0.0248  0.2043
 2447SOL    HW1 7785   0.304   5.971   2.302  0.6682 -0.0416 -1.7048
 2447SOL    HW2 7786   0.410   5.870   2.341  0.9738  0.2710 -1.7201
 2448SOL     OW 7787   0.937   5.142   1.667 -0.4514  0.4262  0.0855
 2448SOL    HW1 7788   0.861   5.194   1.643 -0.9658 -0.5052 -0.3634
 2448SOL    HW2 7789   0.919   5.055   1.632 -0.1891 -0.4005  1.9049
 2449SOL     OW 7790   1.790   0.649   5.807 -0.3228  0.2579  0.4551
 2449SOL    HW1 7791   1.816   0.738   5.785 -1.3368 -0.0096 -2.1540
 2449SOL    HW2 7792   1.867   0.612   5.851  0.7907  1.8483 -0.0667
 2450SOL     OW 7793   1.349   3.405   1.856 -0.7073 -0.7573 -0.4792
 2450SOL    HW1 7794   1.326   3.358   1.936  0.3061 -0.9131 -0.2645
 2450SOL    HW2 7795   1.431   3.365   1.828 -1.0120 -0.6457 -1.5569
 2451SOL     OW 7796   0.428   1.062   5.683  0.4461 -0.7247  0.3983
 2451SOL    HW1 7797   0.378   0.992   5.640  1.1659 -1.5427  0.8583
 2451SOL    HW2 7798   0.379   1.081   5.763  0.5672 -1.1383  0.5746
 2452SOL     OW 7799   3.189   4.514   0.508  0.4454  0.3495 -0.4701
 2452SOL    HW1 7800   3.204   4.435   0.456 -0.3356  0.6467 -1.1464
 2452SOL    HW2 7801   3.212   4.487   0.598  0.0830 -0.6784 -0.6707
 2453SOL     OW 7802   1.699   1.124   4.119 -0.0867 -0.1817  0.4145
 2453SOL    HW1 7803   1.679   1.208   4.160 -3.1963  0.1521 -1.4497
 2453SOL    HW2 7804   1.734   1.148   4.033 -1.7955 -0.7184 -0.4687
 2454SOL     OW 7805   3.760   2.766   3.954  0.2500 -0.0189 -0.2879
 2454SOL    HW1 7806   3.710   2.692   3.987  0.8169 -0.3309 -0.1239
 2454SOL    HW2 7807   3.758   2.830   4.026 -0.2813  0.1500 -0.4492
 2455SOL     OW 7808   2.249   5.519   2.944  0.6633 -0.1047 -0.3367
 2455SOL    HW1 7809   2.290   5.605   2.948 -1.3986  1.0205 -1.6350
 2455SOL    HW2 7810   2.163   5.532   2.985  0.5225 -1.6956 -0.0606
 2456SOL     OW 7811   2.338   6.113   3.514  0.3196 -0.0697 -0.1177
 2456SOL    HW1 7812   2.316   6.204   3.535 -1.1951 -0.3530 -0.3755
 2456SOL    HW2 7813   2.424   6.118   3.473 -0.1475  1.3555 -0.9890
 2457SOL     OW 7814   1.049   2.304   4.877 -0.4962  0.5558 -0.6025
 2457SOL    HW1 7815   1.000   2.342   4.805 -2.4236 -1.2266 -0.3116
 2457SOL    HW2 7816   1.116   2.249   4.835 -1.3998 -0.2179 -1.0542
 2458SOL     OW 7817   3.285   5.516   1.392 -0.1851  0.1794  0.0632
 2458SOL    HW1 7818   3.241   5.601   1.391  0.9248  0.8479  2.0537
 2458SOL    HW2 7819   3.328   5.510   1.306 -1.0593  1.1861 -0.4649
 2459SOL     OW 7820   2.408   5.671   4.163 -0.5665  0.1595  0.5247
 2459SOL    HW1 7821   2.374   5.679   4.252 -1.9415  0.6755 -0.0193
 2459SOL    HW2 7822   2.412   5.762   4.131 -0.9048 -0.0835 -0.2310
 2460SOL     OW 7823   5.597   2.459   4.452 -0.0943  0.0996 -0.4208
 2460SOL    HW1 7824   5.506   2.465   4.424 -0.0752 -0.7013 -0.6837
 2460SOL    HW2 7825   5.636   2.542   4.425 -0.1802 -0.4601 -2.4498
 2461SOL     OW 7826   3.945   2.707   3.190  0.5573  0.2974 -0.4720
 2461SOL    HW1 7827   3.976   2.737   3.276 -0.9357 -1.4546  0.7770
 2461SOL    HW2 7828   3.969   2.614   3.187 -1.3450 -0.2297 -0.9406
 2462SOL     OW 7829   2.614   1.718   4.087 -0.6451 -0.5562 -0.2682
 2462SOL    HW1 7830   2.629   1.746   4.177  0.3664 -0.9438 -0.3084
 2462SOL    HW2 7831   2.620   1.622   4.090  1.3371 -0.5058 -1.0602
 2463SOL     OW 7832   0.263   0.594   5.458  0.1178  0.0625 -0.2876
 2463SOL    HW1 7833   0.304   0.586   5.372 -0.5356 -0.3032 -0.5678
 2463SOL    HW2 7834   0.270   0.507   5.497  1.2715  0.4477  0.4396
 2464SOL     OW 7835   2.001   1.970   5.963 -0.3395 -0.2617 -0.2500
 2464SOL    HW1 7836   2.037   1.884   5.943  1.2140  0.0226  1.1326
 2464SOL    HW2 7837   2.078   2.028   5.965 -1.0164  0.6362  1.4258
 2465SOL     OW 7838   1.075   4.626   0.098  0.3045 -0.0972 -0.2967
 2465SOL    HW1 7839   1.157   4.607   0.053  0.0149 -0.2295 -0.7749
 2465SOL    HW2 7840   1.043   4.540   0.127  0.0180 -0.1201 -0.6709
 2466SOL     OW 7841   1.774   5.646   1.006 -0.2301 -0.8804 -0.1367
 2466SOL    HW1 7842   1.714   5.720   1.014  1.9123  0.8588  0.9657
 2466SOL    HW2 7843   1.747   5.601   0.926 -2.2691  0.4560 -0.2616
 2467SOL     OW 7844   0.464   1.593   5.996 -0.2746 -0.6790  0.3704
 2467SOL    HW1 7845   0.535   1.602   5.933 -0.2837  2.1771  0.6562
 2467SOL    HW2 7846   0.407   1.525   5.959  1.8825 -2.1268 -0.4810
 2468SOL     OW 7847   1.432   2.528   4.916 -0.5824  0.3068 -0.1885
 2468SOL    HW1 7848   1.515   2.554   4.877  0.0801 -1.0919  0.2250
 2468SOL    HW2 7849   1.436   2.561   5.006  0.2237 -1.0471  0.3102
 2469SOL     OW 7850   0.737   4.843   0.576 -0.1286 -0.7160 -0.0059
 2469SOL    HW1 7851   0.706   4.909   0.637 -1.0454 -1.6115  0.5434
 2469SOL    HW2 7852   0.707   4.760   0.614 -0.9586 -1.2845 -1.7809
 2470SOL     OW 7853   0.419   2.087   1.300 -0.0063  0.0769  0.4839
 2470SOL    HW1 7854   0.490   2.132   1.254  1.1717 -0.9294  1.2633
 2470SOL    HW2 7855   0.392   2.017   1.241  0.1613 -0.0009  0.5002
 2471SOL     OW 7856   3.800   4.413   3.350  0.2648 -0.3545 -0.1699
 2471SOL    HW1 7857   3.751   4.444   3.275  0.7257 -0.8115 -0.6670
 2471SOL    HW2 7858   3.878   4.373   3.313 -0.7154 -2.9390  0.3592
 2472SOL     OW 7859   2.422   0.375   3.800 -0.0577  0.2403  1.3401
 2472SOL    HW1 7860   2.378   0.391   3.717 -0.6875  0.4273  1.7028
 2472SOL    HW2 7861   2.392   0.445   3.857 -1.3753 -1.0897  2.3800
 2473SOL     OW 7862   3.038   0.936   4.757 -0.0293  0.5121  0.5190
 2473SOL    HW1 7863   3.001   0.887   4.831 -0.6299 -0.0811 -0.1687
 2473SOL    HW2 7864   3.082   0.870   4.704 -0.5216  0.7606 -0.2140
 2474SOL     OW 7865   5.554   2.843   3.908  0.2786  0.4043  0.2346
 2474SOL    HW1 7866   5.460   2.831   3.921 -0.1126 -0.9760 -2.9382
 2474SOL    HW2 7867   5.594   2.814   3.990 -2.0080  0.6313  1.4994
 2475SOL     OW 7868   4.152   1.117   4.541 -0.1124  0.2062 -0.0169
 2475SOL    HW1 7869   4.201   1.177   4.485 -0.0481 -0.2143 -0.4135
 2475SOL    HW2 7870   4.153   1.033   4.494 -0.1545 -0.1194  0.5569
 2476SOL     OW 7871   4.632   5.683   3.538  0.0725 -0.0436 -0.5870
 2476SOL    HW1 7872   4.620   5.762   3.590  1.1136  0.5159 -1.1673
 2476SOL    HW2 7873   4.705   5.638   3.579  2.1785  1.3471 -2.5993
 2477SOL     OW 7874   1.260   3.245   5.214 -0.0657 -0.1240 -0.3647
 2477SOL    HW1 7875   1.239   3.331   5.175  0.9006  1.0680  1.5877
 2477SOL    HW2 7876   1.179   3.195   5.205 -0.4599  0.7371 -2.1446
 2478SOL     OW 7877   1.786   3.172   2.743  0.1668 -0.2231  0.6177
 2478SOL    HW1 7878   1.809   3.088   2.784  0.7913 -0.3875 -0.0501
 2478SOL    HW2 7879   1.691   3.172   2.742  0.0186  0.7033  3.9219
 2479SOL     OW 7880   0.006   1.018   6.121  0.0210  0.3162  0.3548
 2479SOL    HW1 7881   0.019   1.024   6.026  1.0449  0.3351  0.4823
 2479SOL    HW2 7882  -0.063   0.952   6.132  0.5086 -0.3312 -0.3662
 2480SOL     OW 7883   4.133   5.321   1.241 -0.0124  0.2126  0.1296
 2480SOL    HW1 7884   4.156   5.241   1.287  1.6042  0.3467 -0.4030
 2480SOL    HW2 7885   4.055   5.354   1.287  0.6665 -0.4415  1.8017
 2481SOL     OW 7886   3.581   2.957   2.228 -0.1190  0.1533  0.2096
 2481SOL    HW1 7887   3.545   3.041   2.257 -2.1599 -0.9814  1.1404
 2481SOL    HW2 7888   3.512   2.919   2.173  1.1465 -0.5538 -0.9504
 2482SOL     OW 7889   2.245   1.917   1.353  0.5488  0.2088  0.0235
 2482SOL    HW1 7890   2.309   1.983   1.325 -0.1373 -0.8058 -4.8432
 2482SOL    HW2 7891   2.292   1.834   1.342 -0.5350 -0.3741 -0.2550
 2483SOL     OW 7892   4.428   4.422   1.350 -0.0205  0.7395 -0.3574
 2483SOL    HW1 7893   4.348   4.463   1.317 -1.0758  0.0572  1.1919
 2483SOL    HW2 7894   4.427   4.334   1.311 -1.8099 -0.4434  2.0345
 2484SOL     OW 7895   5.501   2.688   3.163  0.1569  0.0348  0.6360
 2484SOL    HW1 7896   5.523   2.708   3.072  1.0183 -0.0949  0.8096
 2484SOL    HW2 7897   5.582   2.704   3.211 -0.3368  0.2600  1.4091
 2485SOL     OW 7898   3.500   5.196   2.970  0.1293  0.2856 -0.3263
 2485SOL    HW1 7899   3.493   5.160   3.058  0.9127  0.0977 -0.3333
 2485SOL    HW2 7900   3.428   5.154   2.921 -1.6274  1.9521  0.7096
 2486SOL     OW 7901   5.333   4.811   0.906 -0.4851  0.3794  0.3055
 2486SOL    HW1 7902   5.419   4.779   0.934 -1.0746 -0.0288  1.7520
 2486SOL    HW2 7903   5.292   4.735   0.864 -0.1473  0.5800 -0.4029
 2487SOL     OW 7904   5.560   2.391   0.588 -0.3682 -0.1389  0.0006
 2487SOL    HW1 7905   5.644   2.384   0.633  0.5185  1.2984 -1.3226
 2487SOL    HW2 7906   5.506   2.445   0.646 -0.5808 -1.4687  1.0842
 2488SOL     OW 7907   3.062   1.557   5.412 -0.3633  0.0737 -0.3382
 2488SOL    HW1 7908   3.026   1.490   5.469  1.1208 -1.2370 -0.8739
 2488SOL    HW2 7909   3.144   1.582   5.453 -0.0318  0.2453 -1.0876
 2489SOL     OW 7910   0.601   2.203   2.081 -0.2608  0.2753 -0.7739
 2489SOL    HW1 7911   0.638   2.133   2.026  0.2832  0.3548 -0.5204
 2489SOL    HW2 7912   0.546   2.157   2.145  0.3194  0.0440 -0.4278
 2490SOL     OW 7913   1.279   2.743   3.429 -0.1592 -0.1396  0.9685
 2490SOL    HW1 7914   1.335   2.701   3.495 -0.0085 -0.1097  0.8592
 2490SOL    HW2 7915   1.193   2.747   3.471 -0.0773 -0.1721  1.1429
 2491SOL     OW 7916   5.158   2.651   3.279  0.2225  0.1778 -0.1035
 2491SOL    HW1 7917   5.203   2.732   3.254  0.2988 -0.0215 -0.6240
 2491SOL    HW2 7918   5.070   2.660   3.242  0.1884  0.0839 -0.0453
 2492SOL     OW 7919   4.172   3.243   2.127  0.2258 -0.1133  0.5101
 2492SOL    HW1 7920   4.232   3.236   2.053 -0.6570 -0.2985 -0.2020
 2492SOL    HW2 7921   4.103   3.179   2.108 -0.3224  0.2611  1.2029
 2493SOL     OW 7922   0.494   5.253   0.744  0.2101 -0.7249 -0.1051
 2493SOL    HW1 7923   0.576   5.259   0.696 -0.5453  0.0875 -1.3681
 2493SOL    HW2 7924   0.452   5.338   0.731 -1.5080 -1.6093 -0.8353
 2494SOL     OW 7925   2.903   1.258   3.877  0.5547  0.4716  0.2216
 2494SOL    HW1 7926   2.828   1.315   3.896  1.3115  1.6167 -0.1208
 2494SOL    HW2 7927   2.864   1.174   3.852 -0.6354  1.3423 -0.9347
 2495SOL     OW 7928   1.567   0.008   5.395  0.4641  0.1318  0.2117
 2495SOL    HW1 7929   1.565   0.101   5.376 -2.3710  0.3163  1.0348
 2495SOL    HW2 7930   1.510  -0.003   5.471  0.2483 -2.3352 -0.2234
 2496SOL     OW 7931   2.160   1.551   4.993 -0.1849 -0.3002  0.4114
 2496SOL    HW1 7932   2.248   1.568   5.028  0.0459 -0.7865  0.0837
 2496SOL    HW2 7933   2.101   1.573   5.065  0.0090  2.7354 -0.2481
 2497SOL     OW 7934   4.687   3.107   3.811  0.2452 -0.0916  0.1455
 2497SOL    HW1 7935   4.683   3.142   3.899  0.5623  0.2619  0.0190
 2497SOL    HW2 7936   4.612   3.146   3.766  0.0147 -0.3639  0.2868
 2498SOL     OW 7937   3.192   6.021   3.197 -0.1761  0.0456  0.3755
 2498SOL    HW1 7938   3.247   6.072   3.256 -0.5191  0.7928  0.0678
 2498SOL    HW2 7939   3.155   6.086   3.137 -0.2933 -0.6255 -0.2906
 2499SOL     OW 7940   0.316   1.695   0.117  0.1423 -0.2450  0.3326
 2499SOL    HW1 7941   0.226   1.680   0.146  0.8879 -1.4315  2.2571
 2499SOL    HW2 7942   0.308   1.733   0.030 -2.1963 -1.4472 -0.0483
 2500SOL     OW 7943   2.791   1.761   2.963 -0.3939 -0.2773  0.1965
 2500SOL    HW1 7944   2.766   1.671   2.945 -0.9973  0.3432 -2.5382
 2500SOL    HW2 7945   2.841   1.788   2.886 -0.4509  1.7956  0.8175
 2501SOL     OW 7946   2.192   1.928   5.490 -0.6168  0.4778  0.9545
 2501SOL    HW1 7947   2.212   1.862   5.423  1.2706 -0.4483  2.3410
 2501SOL    HW2 7948   2.239   1.898   5.568 -1.5694  2.2838  2.2960
 2502SOL     OW 7949   2.814   4.495   0.033 -0.2495  0.3581  0.4550
 2502SOL    HW1 7950   2.842   4.545  -0.043  1.4739 -0.3823  0.5445
 2502SOL    HW2 7951   2.895   4.480   0.083 -0.9810 -1.0307  1.3024
 2503SOL     OW 7952   1.156   5.814   0.192 -0.0568 -0.1354  0.3367
 2503SOL    HW1 7953   1.181   5.858   0.111  0.5232  0.6061  0.9058
 2503SOL    HW2 7954   1.237   5.775   0.224 -0.1140  0.2424  0.9566
 2504SOL     OW 7955   3.862   2.272   0.598  0.2134 -0.3839 -0.4281
 2504SOL    HW1 7956   3.908   2.290   0.516 -0.3597  0.1874 -0.6314
 2504SOL    HW2 7957   3.899   2.188   0.627  3.0621  1.0845  0.6139
 2505SOL     OW 7958   0.939   2.388   2.613  0.1735 -0.2099  0.0069
 2505SOL    HW1 7959   0.897   2.446   2.550  2.4042  1.1792 -0.2919
 2505SOL    HW2 7960   0.872   2.372   2.680 -0.9369  1.5967 -0.6276
 2506SOL     OW 7961   5.848   0.197   3.190  0.0535 -0.1888  0.3494
 2506SOL    HW1 7962   5.879   0.269   3.244  0.7907 -0.0721 -0.2118
 2506SOL    HW2 7963   5.829   0.237   3.105 -1.0428 -0.3755  0.4853
 2507SOL     OW 7964   4.447   1.677   4.198 -0.0035 -0.0104 -0.5605
 2507SOL    HW1 7965   4.468   1.597   4.246 -0.0030  0.1142 -0.3561
 2507SOL    HW2 7966   4.363   1.658   4.156 -0.6807  0.3762  0.5977
 2508SOL     OW 7967   5.131   3.547   0.421 -0.2871  0.1366  0.3698
 2508SOL    HW1 7968   5.106   3.471   0.472  0.1421  0.7967  1.5997
 2508SOL    HW2 7969   5.143   3.617   0.485  3.3826  0.2248 -0.1658
 2509SOL     OW 7970   5.644   1.955   1.167 -0.0908 -0.0464 -0.4390
 2509SOL    HW1 7971   5.726   1.932   1.212  0.1098 -0.4310 -0.9886
 2509SOL    HW2 7972   5.575   1.929   1.228  0.1797 -0.5352 -0.3332
 2510SOL     OW 7973   3.578   5.177   5.947  0.5571 -0.5094 -0.4939
 2510SOL    HW1 7974   3.623   5.226   5.878 -0.0096 -1.4712 -1.5956
 2510SOL    HW2 7975   3.539   5.244   6.003  0.3041  0.3119 -1.6149
 2511SOL     OW 7976   4.214   2.075   1.333 -0.0755  0.3956 -0.5227
 2511SOL    HW1 7977   4.204   2.111   1.421 -0.8648  0.0205 -0.4477
 2511SOL    HW2 7978   4.303   2.097   1.308  0.4776 -0.2965  0.7390
 2512SOL     OW 7979   1.640   4.439   1.851 -0.1687  0.3249 -0.1204
 2512SOL    HW1 7980   1.661   4.401   1.936  1.4755  0.3622 -0.4820
 2512SOL    HW2 7981   1.723   4.441   1.804 -0.9795  0.6264 -1.6111
 2513SOL     OW 7982   4.634   2.829   3.709  0.3386 -0.3718 -0.1305
 2513SOL    HW1 7983   4.674   2.839   3.622 -1.5194 -0.1595 -1.0018
 2513SOL    HW2 7984   4.644   2.915   3.750  1.1509 -0.4488 -0.1372
 2514SOL     OW 7985   5.547   3.572   2.084  0.0478 -0.6306 -0.0120
 2514SOL    HW1 7986   5.585   3.489   2.058  2.0369  0.1971  0.0450
 2514SOL    HW2 7987   5.614   3.613   2.139 -0.1326  1.6900 -1.3697
 2515SOL     OW 7988   4.037   4.781   0.098  0.0061  0.2146  0.3492
 2515SOL    HW1 7989   4.069   4.867   0.074  0.2733 -0.3590 -1.5526
 2515SOL    HW2 7990   3.946   4.795   0.124 -0.8558  0.7722 -2.6340
 2516SOL     OW 7991   5.729   2.154   1.552  0.2034  0.6065  0.0564
 2516SOL    HW1 7992   5.731   2.197   1.466 -0.2786  0.0072 -0.2611
 2516SOL    HW2 7993   5.685   2.218   1.609  0.6049  1.0437 -0.1203
 2517SOL     OW 7994   4.391   5.778   3.940  0.2793 -0.4722 -0.3159
 2517SOL    HW1 7995   4.424   5.690   3.923 -0.6095 -0.9057  0.1491
 2517SOL    HW2 7996   4.335   5.798   3.865  0.9172 -0.0675 -0.6964
 2518SOL     OW 7997   1.231   0.247   0.113  0.5409 -0.1816  0.4258
 2518SOL    HW1 7998   1.156   0.231   0.056  0.8987 -2.1718  0.4453
 2518SOL    HW2 7999   1.214   0.333   0.152 -1.1499 -0.0918 -0.4301
 2519SOL     OW 8000   6.113   2.859   3.156 -0.3422 -0.5516  0.5952
 2519SOL    HW1 8001   6.176   2.906   3.101 -1.4984  0.4726  0.0906
 2519SOL    HW2 8002   6.099   2.916   3.232 -0.2200 -1.0404  0.9868
 2520SOL     OW 8003   4.914   4.285   5.673  0.1857 -0.0234  0.5696
 2520SOL    HW1 8004   4.949   4.248   5.592  1.8672  0.2345  1.1491
 2520SOL    HW2 8005   4.822   4.302   5.654  0.3743 -0.6832 -1.0293
 2521SOL     OW 8006   2.909   4.131   4.023 -0.1503 -0.5500 -0.5887
 2521SOL    HW1 8007   2.880   4.061   3.965  1.3526 -0.5402 -1.3837
 2521SOL    HW2 8008   2.932   4.204   3.965 -0.1497  0.0339  0.1242
 2522SOL     OW 8009   3.003   2.550   1.702  0.0957  0.0561  0.2142
 2522SOL    HW1 8010   2.996   2.488   1.774 -0.3792  0.1515  0.2533
 2522SOL    HW2 8011   3.082   2.524   1.656  0.4720  0.0676  0.8405
 2523SOL     OW 8012   3.518   3.509   0.424 -0.9089 -0.6690 -0.0330
 2523SOL    HW1 8013   3.551   3.530   0.336 -1.8553 -0.1210 -0.2811
 2523SOL    HW2 8014   3.565   3.568   0.482 -2.4727  1.1850 -0.5541
 2524SOL     OW 8015   0.354   5.663   1.562  0.5424 -0.2305  0.5889
 2524SOL    HW1 8016   0.319   5.594   1.506  1.2782 -0.7191  0.7139
 2524SOL    HW2 8017   0.325   5.744   1.521 -1.0831 -0.6108  0.9282
 2525SOL     OW 8018   1.458   0.855   2.610 -0.0473  0.2174 -0.9585
 2525SOL    HW1 8019   1.370   0.877   2.643  0.0170 -1.1250  0.2122
 2525SOL    HW2 8020   1.465   0.760   2.623  2.4810  0.5831  1.3116
 2526SOL     OW 8021   4.696   1.800   4.738  0.1612  0.2477 -0.7761
 2526SOL    HW1 8022   4.705   1.729   4.802  2.6707 -0.3935 -1.7110
 2526SOL    HW2 8023   4.633   1.766   4.673  0.9337 -0.9492 -0.9375
 2527SOL     OW 8024   0.315   1.980   5.695 -0.0992 -0.4713  0.0402
 2527SOL    HW1 8025   0.361   2.052   5.739 -1.6199  0.6246 -0.0737
 2527SOL    HW2 8026   0.376   1.949   5.629 -0.3436  2.6237 -1.8583
 2528SOL     OW 8027   2.065   5.402   0.159  0.8843  0.0925  0.1420
 2528SOL    HW1 8028   2.148   5.355   0.151  1.3064  0.7925  0.3280
 2528SOL    HW2 8029   2.046   5.401   0.253  0.8266  0.1710  0.1314
 2529SOL     OW 8030   4.280   4.763   1.035 -0.1016 -0.6068  0.2681
 2529SOL    HW1 8031   4.332   4.691   0.999 -0.7228 -0.4618 -0.9694
 2529SOL    HW2 8032   4.268   4.739   1.127  3.3793  0.1137  1.0509
 2530SOL     OW 8033   4.142   3.628   1.113 -0.0671 -0.2335 -0.5541
 2530SOL    HW1 8034   4.227   3.605   1.074  0.8500 -0.5055  1.4803
 2530SOL    HW2 8035   4.099   3.543   1.126 -0.5053 -0.1210 -1.2451
 2531SOL     OW 8036   3.275   3.083   0.256 -0.4516 -0.5495 -0.5027
 2531SOL    HW1 8037   3.366   3.061   0.279 -0.9081 -2.7514 -0.5900
 2531SOL    HW2 8038   3.263   3.172   0.289  1.4774 -0.5284  0.2832
 2532SOL     OW 8039   3.015   4.972   5.283 -0.0692 -0.4943  0.4924
 2532SOL    HW1 8040   2.978   5.013   5.205 -0.8991 -1.4656  0.3475
 2532SOL    HW2 8041   3.109   4.984   5.275 -0.1760 -0.2208 -0.4514
 2533SOL     OW 8042   5.161   0.314   3.762  0.4744 -0.2041  0.7605
 2533SOL    HW1 8043   5.246   0.312   3.805  0.1100  1.1374  1.6213
 2533SOL    HW2 8044   5.165   0.390   3.704  0.1463 -0.6334  0.1642
 2534SOL     OW 8045   3.886   5.530   4.558  0.0333 -0.0946 -0.5049
 2534SOL    HW1 8046   3.896   5.558   4.649 -1.2326 -2.4260  0.4402
 2534SOL    HW2 8047   3.975   5.535   4.522  0.4984  1.2276  0.7216
 2535SOL     OW 8048   4.179   3.372   0.350 -0.3821 -0.5008  0.2193
 2535SOL    HW1 8049   4.120   3.389   0.277  0.1277 -0.8027 -0.2782
 2535SOL    HW2 8050   4.228   3.294   0.323  0.1996 -0.2870  0.6397
 2536SOL     OW 8051   5.241   3.224   4.096  0.0778 -0.1907 -0.7628
 2536SOL    HW1 8052   5.156   3.266   4.103  0.5034  0.4699  0.8590
 2536SOL    HW2 8053   5.298   3.292   4.060  0.3748  0.0861  0.1962
 2537SOL     OW 8054   5.457   1.188   3.544 -0.5003 -0.2039 -0.1716
 2537SOL    HW1 8055   5.426   1.137   3.619 -0.6694 -0.2719 -0.2856
 2537SOL    HW2 8056   5.444   1.130   3.469 -1.0119  0.1331 -0.3490
 2538SOL     OW 8057   6.130   6.059   2.255 -0.5668 -0.2187 -0.3613
 2538SOL    HW1 8058   6.050   6.043   2.305 -0.3887 -0.3211 -0.1048
 2538SOL    HW2 8059   6.197   6.074   2.322 -0.1238 -1.3104 -0.5476
 2539SOL     OW 8060   5.915   1.660   3.795 -0.0240 -0.1615  0.7932
 2539SOL    HW1 8061   5.994   1.606   3.790 -0.3067 -0.4714 -0.8592
 2539SOL    HW2 8062   5.883   1.649   3.885  0.5413 -1.8459  0.8099
 2540SOL     OW 8063   2.264   1.661   0.507 -0.5032 -0.0774 -0.0349
 2540SOL    HW1 8064   2.317   1.599   0.558 -3.3125 -2.8316 -0.1633
 2540SOL    HW2 8065   2.295   1.649   0.417  0.3286  0.2313  0.2000
 2541SOL     OW 8066   4.067   0.986   1.453 -0.0378 -1.0961  0.6427
 2541SOL    HW1 8067   4.023   0.903   1.469 -3.0025  0.3083  0.4684
 2541SOL    HW2 8068   4.013   1.029   1.387  1.2651  1.0770  0.9051
 2542SOL     OW 8069   0.984   4.144   0.878 -0.0350  0.7121 -0.4418
 2542SOL    HW1 8070   1.056   4.088   0.849 -0.1589  1.5540 -2.4954
 2542SOL    HW2 8071   0.914   4.128   0.815 -1.2377  0.8336  0.8137
 2543SOL     OW 8072   2.381   0.673   5.621 -0.1257  0.1948  0.8749
 2543SOL    HW1 8073   2.332   0.736   5.568  0.2414  1.3927  1.9299
 2543SOL    HW2 8074   2.380   0.592   5.568 -2.6363  0.3577  0.5427
 2544SOL     OW 8075   5.247   1.374   4.602 -0.7343  0.3326 -0.0316
 2544SOL    HW1 8076   5.160   1.411   4.618 -0.3793  0.8576  0.7835
 2544SOL    HW2 8077   5.280   1.352   4.690  0.0995  0.4866 -0.2961
 2545SOL     OW 8078   2.662   3.984   2.978  0.0166 -0.4084  0.4783
 2545SOL    HW1 8079   2.696   4.054   3.034 -0.1529  0.8466 -0.9037
 2545SOL    HW2 8080   2.586   3.950   3.024  0.6076 -0.2729  1.5813
 2546SOL     OW 8081   1.260   3.703   0.143 -0.3520 -0.3375 -0.3515
 2546SOL    HW1 8082   1.291   3.636   0.204 -1.2202 -1.2771 -0.8989
 2546SOL    HW2 8083   1.166   3.687   0.136 -0.7993  1.6720  0.3507
 2547SOL     OW 8084   0.582   0.101   1.826  0.2545  0.3027 -0.0611
 2547SOL    HW1 8085   0.487   0.108   1.836  0.2733 -0.4764  0.9028
 2547SOL    HW2 8086   0.604   0.159   1.754 -0.9656  0.4457 -0.3301
 2548SOL     OW 8087   0.892   2.288   1.289 -0.4689  0.0087 -0.3347
 2548SOL    HW1 8088   0.985   2.289   1.268 -0.4445 -0.5272 -0.2569
 2548SOL    HW2 8089   0.859   2.370   1.253 -0.4347 -0.8685 -2.5414
 2549SOL     OW 8090   5.304   6.026   4.859  0.1166  0.9917  0.0010
 2549SOL    HW1 8091   5.301   6.120   4.879  1.7168  0.9698  0.5025
 2549SOL    HW2 8092   5.392   6.012   4.822  0.6852 -0.6174  1.7779
 2550SOL     OW 8093   0.330   1.412   0.943  0.3806  0.0525  0.1078
 2550SOL    HW1 8094   0.244   1.415   0.983  0.2148 -0.2091 -0.2264
 2550SOL    HW2 8095   0.382   1.355   1.000 -0.1638 -1.2275 -0.6227
 2551SOL     OW 8096   5.013   1.206   1.068  0.0014 -0.1952  0.2392
 2551SOL    HW1 8097   5.034   1.166   0.984  1.1666  0.4805  0.1832
 2551SOL    HW2 8098   4.917   1.202   1.074  0.0655 -3.3268  0.4298
 2552SOL     OW 8099   4.473   1.334   4.499 -0.3875  0.9644 -0.1293
 2552SOL    HW1 8100   4.446   1.328   4.408  1.3664  0.3918 -0.6423
 2552SOL    HW2 8101   4.533   1.261   4.512 -0.7883  0.8906  1.5620
 2553SOL     OW 8102   2.761   5.826   5.303  0.3258 -0.2907  0.4021
 2553SOL    HW1 8103   2.842   5.855   5.345  0.4320 -2.0197  1.5061
 2553SOL    HW2 8104   2.744   5.740   5.343 -1.2094 -0.6425 -0.9488
 2554SOL     OW 8105   2.207   4.447   5.020  0.1464 -0.1331  0.4024
 2554SOL    HW1 8106   2.193   4.356   4.992  0.6111 -0.5161  1.3719
 2554SOL    HW2 8107   2.184   4.499   4.943 -0.9482 -1.0212  0.0992
 2555SOL     OW 8108   1.861   2.027   2.052 -0.1688 -0.4491 -0.4076
 2555SOL    HW1 8109   1.792   1.982   2.002 -1.0936  0.5598 -0.0768
 2555SOL    HW2 8110   1.818   2.106   2.085  0.7487 -0.5300  1.0219
 2556SOL     OW 8111   2.044   4.503   3.299 -0.2817  0.3434  0.4946
 2556SOL    HW1 8112   1.993   4.498   3.380  2.3344  0.8548  2.3142
 2556SOL    HW2 8113   2.131   4.531   3.327  0.6579  0.9137 -2.5835
 2557SOL     OW 8114   3.942   3.332   0.160  0.3794  0.1043 -0.2361
 2557SOL    HW1 8115   3.879   3.272   0.120 -0.4501  1.5255 -1.1495
 2557SOL    HW2 8116   3.960   3.397   0.092  1.8418  0.4799  0.4557
 2558SOL     OW 8117   4.308   5.686   1.907 -0.0848 -0.1163  0.1384
 2558SOL    HW1 8118   4.379   5.633   1.870  0.1787 -0.1542  0.6812
 2558SOL    HW2 8119   4.350   5.769   1.930 -0.3316  0.0513 -0.0066
 2559SOL     OW 8120   5.093   5.230   2.236 -0.0125  0.8198 -0.3278
 2559SOL    HW1 8121   5.145   5.280   2.299 -0.2100 -0.6157  1.0707
 2559SOL    HW2 8122   5.152   5.216   2.162  1.2214  0.2889  0.6945
 2560SOL     OW 8123   1.463   0.207   6.099 -0.5488 -0.1266  0.2427
 2560SOL    HW1 8124   1.390   0.220   6.159  0.3008  1.5306  0.9766
 2560SOL    HW2 8125   1.423   0.175   6.018 -1.8182 -1.4313  1.3461
 2561SOL     OW 8126   0.692   2.996   5.345 -0.0332  0.0255 -0.2009
 2561SOL    HW1 8127   0.623   2.994   5.411  0.1097 -0.8259 -0.0651
 2561SOL    HW2 8128   0.683   2.913   5.298  1.2090 -0.3279  0.1464
 2562SOL     OW 8129   4.858   2.650   3.812  0.4306  0.0340  0.2959
 2562SOL    HW1 8130   4.776   2.700   3.810 -0.0393 -0.7573 -1.0974
 2562SOL    HW2 8131   4.881   2.646   3.905 -1.4570 -0.2838  0.7932
 2563SOL     OW 8132   0.224   4.306   4.737  0.4161 -0.2047  0.7829
 2563SOL    HW1 8133   0.296   4.264   4.691 -0.8456 -2.4451  0.7532
 2563SOL    HW2 8134   0.224   4.266   4.824 -0.8237 -0.2855  0.7664
 2564SOL     OW 8135   0.596   1.603   3.083 -0.1238 -0.5531  0.0502
 2564SOL    HW1 8136   0.599   1.679   3.141  0.9623 -1.7592  1.6843
 2564SOL    HW2 8137   0.685   1.598   3.047 -0.6166 -0.1870 -1.2608
 2565SOL     OW 8138   0.391   4.735   4.479  0.3523  0.1257  0.0038
 2565SOL    HW1 8139   0.322   4.686   4.523  0.5208  0.5016  0.6922
 2565SOL    HW2 8140   0.459   4.747   4.545  2.3670 -2.6250 -1.3505
 2566SOL     OW 8141   5.809   2.296   4.476 -0.0830 -0.4969 -0.4615
 2566SOL    HW1 8142   5.869   2.311   4.402 -0.0703 -0.2494 -0.4034
 2566SOL    HW2 8143   5.737   2.357   4.460  0.6159  0.6221  0.4946
 2567SOL     OW 8144   2.675   2.096   1.857  0.1668 -0.2523 -0.0162
 2567SOL    HW1 8145   2.655   2.095   1.763 -0.5756  1.3663  0.0892
 2567SOL    HW2 8146   2.681   2.004   1.881  0.3228 -0.7047 -1.6401
 2568SOL     OW 8147   3.221   3.199   2.144  0.2174  0.2241 -0.8007
 2568SOL    HW1 8148   3.252   3.287   2.122  1.2308 -0.3200 -1.6054
 2568SOL    HW2 8149   3.131   3.196   2.111 -0.1773  1.2705  0.1148
 2569SOL     OW 8150   5.154   5.107   0.728 -0.0415 -0.0602  0.5932
 2569SOL    HW1 8151   5.241   5.142   0.749 -1.1008  2.6023  0.9154
 2569SOL    HW2 8152   5.137   5.139   0.639  0.0663 -2.2827 -0.2867
 2570SOL     OW 8153   5.615   1.280   2.235 -0.4438 -0.3516  0.4865
 2570SOL    HW1 8154   5.681   1.212   2.224 -0.2228 -0.2657  1.2456
 2570SOL    HW2 8155   5.664   1.357   2.264 -0.5087  0.5216 -1.5289
 2571SOL     OW 8156   3.151   1.651   4.067  0.6745 -0.1981  0.0920
 2571SOL    HW1 8157   3.229   1.610   4.105  1.4372  2.5570  1.8168
 2571SOL    HW2 8158   3.078   1.608   4.111  1.3802 -0.5825  0.9424
 2572SOL     OW 8159   2.819   1.713   1.291  0.6087  0.7124 -0.2315
 2572SOL    HW1 8160   2.830   1.636   1.347 -2.3764 -0.7175 -1.3875
 2572SOL    HW2 8161   2.858   1.687   1.207  1.1960  1.1786 -0.1103
 2573SOL     OW 8162   2.170   2.208   4.420  0.3293  0.5861 -0.5480
 2573SOL    HW1 8163   2.119   2.230   4.342  0.3025  1.5095 -0.2835
 2573SOL    HW2 8164   2.181   2.291   4.466  0.9251  0.1708  0.0893
 2574SOL     OW 8165   4.058   2.370   1.461  0.5585  0.3888  0.8457
 2574SOL    HW1 8166   4.108   2.389   1.382 -1.4843  0.5388 -0.4961
 2574SOL    HW2 8167   4.104   2.297   1.502  0.5098 -1.1518 -1.6547
 2575SOL     OW 8168   2.907   5.047   4.733  0.7906  0.1123  0.4036
 2575SOL    HW1 8169   2.910   5.142   4.745  0.2865  0.1285  0.4472
 2575SOL    HW2 8170   2.818   5.023   4.758  0.4402 -0.1717 -1.0240
 2576SOL     OW 8171   4.860   5.814   0.275  0.3571  0.1512 -0.1192
 2576SOL    HW1 8172   4.787   5.763   0.311 -1.4848  3.0897  0.7408
 2576SOL    HW2 8173   4.824   5.853   0.195  1.0303  1.4464  0.1867
 2577SOL     OW 8174   1.579   0.699   3.355 -0.0650  0.1076 -0.0749
 2577SOL    HW1 8175   1.628   0.771   3.394  1.4928 -1.0953  0.2917
 2577SOL    HW2 8176   1.524   0.741   3.289  1.5950  1.5406 -0.6303
 2578SOL     OW 8177   3.471   5.896   0.497  0.0603 -0.1879  0.1833
 2578SOL    HW1 8178   3.548   5.846   0.527  0.7266  1.3036  1.0478
 2578SOL    HW2 8179   3.456   5.865   0.408  3.9343  1.9798 -1.4479
 2579SOL     OW 8180   4.329   3.088   5.476 -0.0295  0.7842  0.4235
 2579SOL    HW1 8181   4.324   3.027   5.550 -1.0407 -0.3148 -0.5101
 2579SOL    HW2 8182   4.418   3.078   5.442 -0.0656  0.0974  0.5180
 2580SOL     OW 8183   2.620   4.202   2.691 -0.0790 -0.0851  0.2684
 2580SOL    HW1 8184   2.663   4.117   2.699 -0.6852 -0.6795 -2.0449
 2580SOL    HW2 8185   2.573   4.213   2.774  2.0604 -0.7779  1.6317
 2581SOL     OW 8186   5.474   6.013   5.241 -0.3023  0.2138  0.2979
 2581SOL    HW1 8187   5.420   6.058   5.176 -0.5531 -2.4994 -1.5639
 2581SOL    HW2 8188   5.559   6.003   5.199  0.0139 -0.2438  1.0258
 2582SOL     OW 8189   2.329   5.228   5.972  0.3092  0.0729 -0.2840
 2582SOL    HW1 8190   2.288   5.314   5.963 -1.5453 -0.7705 -0.3346
 2582SOL    HW2 8191   2.367   5.210   5.886 -2.0325 -0.4478 -1.2748
 2583SOL     OW 8192   1.016   3.366   0.657 -0.2711  0.6780  0.0439
 2583SOL    HW1 8193   1.066   3.406   0.728  0.2208 -0.9240  0.6587
 2583SOL    HW2 8194   0.926   3.393   0.673 -0.3078 -0.3491  1.8321
 2584SOL     OW 8195   1.563   4.770   5.026 -0.0359 -0.1134 -0.4927
 2584SOL    HW1 8196   1.566   4.818   4.944  2.3865  1.1966  0.2542
 2584SOL    HW2 8197   1.547   4.838   5.092 -2.1217 -1.1618  0.1681
 2585SOL     OW 8198   0.170   0.757   3.986 -0.1321 -0.1026 -0.3321
 2585SOL    HW1 8199   0.187   0.754   3.892  1.6853  1.7244 -0.1426
 2585SOL    HW2 8200   0.180   0.666   4.015 -0.3014 -0.6277 -1.8156
 2586SOL     OW 8201   4.472   4.661   3.576  0.6637 -0.5773  0.5253
 2586SOL    HW1 8202   4.507   4.695   3.658 -0.1358 -2.2984  1.6245
 2586SOL    HW2 8203   4.382   4.635   3.596 -0.7544  1.9385 -1.7463
 2587SOL     OW 8204   3.840   5.443   5.458 -0.0436 -0.2783  0.4230
 2587SOL    HW1 8205   3.876   5.468   5.543  3.7122  2.7776 -1.6838
 2587SOL    HW2 8206   3.759   5.493   5.450  0.0878  0.1904  1.7862
 2588SOL     OW 8207   6.022   5.905   4.963 -0.4089  0.2629 -0.5797
 2588SOL    HW1 8208   6.061   5.818   4.952 -0.9028 -0.0000 -0.2639
 2588SOL    HW2 8209   6.020   5.919   5.057 -0.9449  0.3319 -0.5965
 2589SOL     OW 8210   3.028   0.825   3.955 -0.6497  0.0544  0.6717
 2589SOL    HW1 8211   3.109   0.795   3.996 -0.8153  0.9905  1.7043
 2589SOL    HW2 8212   3.056   0.894   3.895 -0.5373 -0.5815 -0.0300
 2590SOL     OW 8213   2.206   0.540   3.231 -0.6924  0.1599  0.2968
 2590SOL    HW1 8214   2.241   0.526   3.143  0.3586  0.6392  0.6254
 2590SOL    HW2 8215   2.276   0.584   3.278 -2.1059  2.1780  0.6571
 2591SOL     OW 8216   0.767   2.553   4.282  0.4165  1.1038 -0.1313
 2591SOL    HW1 8217   0.851   2.513   4.259  0.3835  0.6033  0.6046
 2591SOL    HW2 8218   0.716   2.549   4.200  0.3435 -0.5533 -0.0345
 2592SOL     OW 8219   4.825   3.611   2.303 -0.0502 -0.1955  0.5855
 2592SOL    HW1 8220   4.804   3.553   2.230 -0.7264  0.2818  0.3890
 2592SOL    HW2 8221   4.745   3.612   2.356 -0.2040  0.9023  0.3466
 2593SOL     OW 8222   3.395   5.919   2.335  0.2617 -0.5482 -0.9357
 2593SOL    HW1 8223   3.380   5.931   2.242 -0.9169 -0.2127 -0.7135
 2593SOL    HW2 8224   3.490   5.911   2.343  0.3001 -1.9863 -2.3192
 2594SOL     OW 8225   3.368   0.938   1.350 -0.8596  0.0324 -0.6374
 2594SOL    HW1 8226   3.431   0.868   1.337  1.0490  1.2749  1.2453
 2594SOL    HW2 8227   3.405   1.013   1.305 -1.7114  0.4439 -0.6777
 2595SOL     OW 8228   0.339   3.041   5.263 -0.2920 -0.3825  0.0294
 2595SOL    HW1 8229   0.372   3.094   5.336 -0.1649 -1.1787  0.5664
 2595SOL    HW2 8230   0.377   3.081   5.185 -0.0224  0.1839  0.4438
 2596SOL     OW 8231   6.098   0.101   3.995  0.8747 -0.0683  1.0334
 2596SOL    HW1 8232   6.038   0.137   4.060  1.2475 -0.2110  1.4597
 2596SOL    HW2 8233   6.082   0.007   3.997  1.9097 -0.2452  1.9767
 2597SOL     OW 8234   3.788   3.134   3.233  0.0058  0.1753  0.6249
 2597SOL    HW1 8235   3.801   3.228   3.221  0.3939  0.0793  0.2905
 2597SOL    HW2 8236   3.872   3.095   3.210  0.2134 -0.1670  1.8887
 2598SOL     OW 8237   1.568   5.417   2.643 -0.4104 -0.5610 -0.2300
 2598SOL    HW1 8238   1.490   5.467   2.620 -0.8214 -1.7709 -1.6017
 2598SOL    HW2 8239   1.623   5.479   2.691 -1.4360  0.8217 -0.7720
 2599SOL     OW 8240   0.859   3.456   1.640 -0.3352 -0.0275 -0.1228
 2599SOL    HW1 8241   0.791   3.389   1.651  0.5933 -0.9063  0.5057
 2599SOL    HW2 8242   0.940   3.410   1.662  0.4796  0.9627 -1.0081
 2600SOL     OW 8243   0.683   4.821   6.126 -0.7627 -0.0645 -0.3914
 2600SOL    HW1 8244   0.771   4.815   6.163 -0.2633  1.5738 -1.1900
 2600SOL    HW2 8245   0.677   4.746   6.067  0.1763 -0.1093 -0.4549
 2601SOL     OW 8246   5.952   4.020   5.655 -0.3699 -0.2990  0.1816
 2601SOL    HW1 8247   5.957   3.960   5.730  0.4145 -0.2422  0.1826
 2601SOL    HW2 8248   5.863   4.009   5.623  0.1160 -2.4799 -0.6257
 2602SOL     OW 8249   5.119   4.658   5.605  0.0175 -0.0551  0.0365
 2602SOL    HW1 8250   5.114   4.568   5.638 -0.2100  0.1724  0.6294
 2602SOL    HW2 8251   5.212   4.682   5.614 -0.1129  0.1466  0.8986
 2603SOL     OW 8252   4.942   0.683   3.300  0.1950  0.4477 -0.4630
 2603SOL    HW1 8253   4.920   0.768   3.339 -2.4726 -0.3487 -0.0498
 2603SOL    HW2 8254   4.924   0.619   3.369  0.8845 -0.5738 -1.1946
 2604SOL     OW 8255   5.864   2.690   2.739 -0.0169  0.5095  0.3642
 2604SOL    HW1 8256   5.900   2.605   2.767  0.6852  0.7552  0.2240
 2604SOL    HW2 8257   5.900   2.703   2.652 -1.7795 -0.0105 -0.5074
 2605SOL     OW 8258   3.455   6.025   4.241 -0.2815  0.0849  0.5295
 2605SOL    HW1 8259   3.523   5.961   4.219  0.4621  0.9717  0.1965
 2605SOL    HW2 8260   3.391   5.975   4.292  1.2307 -0.5025  1.9549
 2606SOL     OW 8261   5.106   2.388   2.253 -0.1249  0.3180  0.5205
 2606SOL    HW1 8262   5.116   2.293   2.251 -0.7508  0.2383  0.9945
 2606SOL    HW2 8263   5.067   2.410   2.169 -1.3419 -0.0109  0.9879
 2607SOL     OW 8264   5.018   2.687   1.215 -1.0837 -0.3636 -0.2087
 2607SOL    HW1 8265   5.055   2.599   1.217  1.9633  0.8283  0.2462
 2607SOL    HW2 8266   5.081   2.739   1.165 -2.3703  1.7696  0.2634
 2608SOL     OW 8267   2.132   4.991   5.305  0.0121 -0.3153  0.0031
 2608SOL    HW1 8268   2.070   5.033   5.244 -0.4387  0.1712  0.7872
 2608SOL    HW2 8269   2.153   4.907   5.262  0.5069  0.4529 -1.3162
 2609SOL     OW 8270   4.377   4.087   2.979 -0.6105  0.1823 -0.0345
 2609SOL    HW1 8271   4.427   4.165   2.954  0.1627 -0.1106  0.5717
 2609SOL    HW2 8272   4.345   4.106   3.067  0.3080 -0.5080  0.4727
 2610SOL     OW 8273   1.527   4.239   4.377 -0.1746  0.2561  0.6603
 2610SOL    HW1 8274   1.523   4.161   4.320 -1.4361  0.5897  0.2420
 2610SOL    HW2 8275   1.568   4.306   4.322 -1.4329  0.5911  0.0729
 2611SOL     OW 8276   4.056   3.819   0.949 -0.2636 -0.0446  0.3552
 2611SOL    HW1 8277   3.967   3.784   0.946  0.1670 -1.1670  0.1793
 2611SOL    HW2 8278   4.104   3.760   1.008  0.2510  0.8173  0.8137
 2612SOL     OW 8279   5.815   2.787   4.692 -0.0391  0.0128  0.1017
 2612SOL    HW1 8280   5.863   2.738   4.758  0.9747  3.3629  2.1071
 2612SOL    HW2 8281   5.881   2.816   4.630 -0.3554  0.1621 -0.1700
 2613SOL     OW 8282   0.544   5.152   5.361 -0.3277 -0.0558  0.3388
 2613SOL    HW1 8283   0.585   5.117   5.282  1.4201  2.9077 -0.2325
 2613SOL    HW2 8284   0.456   5.178   5.332 -1.1899 -2.5285  0.4777
 2614SOL     OW 8285   2.903   2.272   4.619 -0.4152 -0.1029 -0.2072
 2614SOL    HW1 8286   2.979   2.236   4.574  1.8844  1.1560  2.3974
 2614SOL    HW2 8287   2.924   2.365   4.633 -2.6603  0.4286  0.1720
 2615SOL     OW 8288   4.641   5.262   2.395  0.4905 -0.0587  0.2990
 2615SOL    HW1 8289   4.563   5.317   2.391  0.8317  0.5161  1.2291
 2615SOL    HW2 8290   4.714   5.323   2.392  0.9144 -0.5756 -0.2904
 2616SOL     OW 8291   0.772   2.356   3.184 -0.1147 -0.1141 -0.2398
 2616SOL    HW1 8292   0.716   2.307   3.124 -0.2062  2.2696 -2.2818
 2616SOL    HW2 8293   0.711   2.408   3.236  0.0594 -0.3636  0.2155
 2617SOL     OW 8294   5.642   1.054   0.344  0.0176  0.1164  0.1804
 2617SOL    HW1 8295   5.621   1.146   0.358 -3.5171 -0.3080 -1.4888
 2617SOL    HW2 8296   5.602   1.009   0.418  1.1381 -0.2035  0.6195
 2618SOL     OW 8297   2.181   1.469   4.384  0.6952 -0.6483 -0.4139
 2618SOL    HW1 8298   2.110   1.407   4.369  0.0800  0.0379 -0.4106
 2618SOL    HW2 8299   2.249   1.444   4.322  1.5949 -3.0110  1.3703
 2619SOL     OW 8300   1.411   0.016   5.658 -0.3115 -0.3431 -0.2566
 2619SOL    HW1 8301   1.319  -0.009   5.666 -0.6851  1.3057  0.9099
 2619SOL    HW2 8302   1.439   0.036   5.747  0.6523  0.9128 -0.8099
 2620SOL     OW 8303   2.793   4.324   5.311 -0.3541  0.6600 -0.2853
 2620SOL    HW1 8304   2.778   4.318   5.406 -0.4864  0.4327 -0.3200
 2620SOL    HW2 8305   2.830   4.239   5.288 -0.6804  0.5803 -0.5046
 2621SOL     OW 8306   4.729   0.865   2.214 -0.4599  0.3462 -0.7197
 2621SOL    HW1 8307   4.786   0.791   2.232 -2.0346 -0.3541  2.0572
 2621SOL    HW2 8308   4.643   0.825   2.200 -1.1060  1.5624 -0.3328
 2622SOL     OW 8309   0.908   3.265   1.254 -0.4348  0.0414  0.2944
 2622SOL    HW1 8310   0.875   3.215   1.329  1.0698 -1.5000 -0.0080
 2622SOL    HW2 8311   0.881   3.214   1.178 -0.9685  0.9946 -0.1654
 2623SOL     OW 8312   4.440   3.728   5.254  0.0843  0.1008  0.2710
 2623SOL    HW1 8313   4.438   3.696   5.164 -1.7147 -1.1718  0.7035
 2623SOL    HW2 8314   4.475   3.817   5.247  2.6136 -0.9108 -1.3067
 2624SOL     OW 8315   2.566   2.359   6.013  0.2678  0.1734  0.0025
 2624SOL    HW1 8316   2.631   2.384   6.079  0.9486 -0.7926 -0.2740
 2624SOL    HW2 8317   2.611   2.367   5.930  0.3018 -1.2584 -0.1395
 2625SOL     OW 8318   3.516   3.182   4.590  0.3051 -0.4445 -0.2835
 2625SOL    HW1 8319   3.550   3.207   4.676  1.9332  1.2518 -1.3729
 2625SOL    HW2 8320   3.422   3.169   4.605  0.5223 -0.0534  1.7116
 2626SOL     OW 8321   3.062   0.808   1.996  0.3665 -0.1102  0.6247
 2626SOL    HW1 8322   3.113   0.799   1.916  0.0035 -2.4288  0.5760
 2626SOL    HW2 8323   3.011   0.888   1.984 -0.5934 -1.0246 -2.0301
 2627SOL     OW 8324   4.689   3.445   5.389  0.0436 -0.5533  0.5698
 2627SOL    HW1 8325   4.644   3.491   5.459 -0.1915 -0.3017  0.2559
 2627SOL    HW2 8326   4.776   3.424   5.425 -0.7489 -2.2243  1.6729
 2628SOL     OW 8327   2.879   0.658   2.209 -0.2239  0.3299 -0.4253
 2628SOL    HW1 8328   2.858   0.712   2.134 -0.8342 -0.3610 -0.7628
 2628SOL    HW2 8329   2.934   0.588   2.174  1.9519  1.5784  0.2787
 2629SOL     OW 8330   1.548   3.091   3.164  0.1208 -0.3323  0.2842
 2629SOL    HW1 8331   1.480   3.148   3.127  1.4856 -0.9482 -3.6547
 2629SOL    HW2 8332   1.629   3.140   3.151  0.9775 -1.8284 -0.2993
 2630SOL     OW 8333   0.622   4.780   1.927  0.1408 -0.2153 -0.3460
 2630SOL    HW1 8334   0.531   4.796   1.952  0.3651 -2.1666  2.1083
 2630SOL    HW2 8335   0.624   4.687   1.901  1.5691 -0.4899  0.6010
 2631SOL     OW 8336   0.705   0.688   0.583  0.6425  0.2635 -0.0249
 2631SOL    HW1 8337   0.790   0.681   0.540  0.5566  0.9971 -0.3334
 2631SOL    HW2 8338   0.723   0.670   0.675  0.7219 -1.9558 -0.4343
 2632SOL     OW 8339   2.201   2.001   3.164  0.6348 -0.5282 -0.2496
 2632SOL    HW1 8340   2.224   1.933   3.228 -0.7842 -1.6560 -0.9007
 2632SOL    HW2 8341   2.285   2.042   3.142  1.2311 -0.4336  1.9364
 2633SOL     OW 8342   0.797   5.988   0.378  0.6482 -0.3979  0.5636
 2633SOL    HW1 8343   0.702   5.995   0.369  0.6630 -0.1430  0.5814
 2633SOL    HW2 8344   0.812   5.898   0.407  0.3288 -0.0935  1.7311
 2634SOL     OW 8345   1.614   5.084   1.291 -0.1400 -0.3422  0.0480
 2634SOL    HW1 8346   1.688   5.028   1.316  0.2987 -0.1757 -0.8289
 2634SOL    HW2 8347   1.552   5.025   1.250 -0.4053 -0.4454  0.5857
 2635SOL     OW 8348   3.913   1.435   2.135 -0.0501  0.6516 -0.2417
 2635SOL    HW1 8349   3.978   1.368   2.157 -0.8098 -0.1073 -0.2626
 2635SOL    HW2 8350   3.915   1.439   2.039 -0.2953  0.3487 -0.2634
 2636SOL     OW 8351   1.297   5.189   0.983  0.3031 -0.1982  0.0572
 2636SOL    HW1 8352   1.365   5.158   1.043  0.2202  0.4568  0.5035
 2636SOL    HW2 8353   1.229   5.122   0.987 -0.9169  1.0743  2.7723
 2637SOL     OW 8354   1.286   1.898   6.128  0.3131  0.5593 -0.1008
 2637SOL    HW1 8355   1.371   1.924   6.094  0.5482  0.3764  0.3406
 2637SOL    HW2 8356   1.287   1.926   6.219 -0.6086  1.7389 -0.4278
 2638SOL     OW 8357   0.619   2.149   2.723  0.2260 -0.0970  0.0296
 2638SOL    HW1 8358   0.566   2.074   2.749  0.5866 -0.6870 -0.9187
 2638SOL    HW2 8359   0.707   2.130   2.756  0.2654  0.0218 -0.0046
 2639SOL     OW 8360   4.938   1.271   5.710 -0.6361 -0.4646  0.1864
 2639SOL    HW1 8361   5.013   1.294   5.656  0.8308 -0.2175  2.1975
 2639SOL    HW2 8362   4.944   1.176   5.720  0.1416 -0.3161  1.3008
 2640SOL     OW 8363   2.702   5.223   3.811  0.1303  0.5148 -0.1301
 2640SOL    HW1 8364   2.608   5.237   3.820  0.1140 -0.7663  2.5448
 2640SOL    HW2 8365   2.738   5.311   3.797 -1.4164  1.0455 -0.9655
 2641SOL     OW 8366   2.041   3.867   4.280  0.4546 -0.8686  0.1630
 2641SOL    HW1 8367   1.989   3.930   4.230  0.5940 -0.7825  0.1242
 2641SOL    HW2 8368   2.009   3.876   4.370 -0.5227 -1.7712 -0.0729
 2642SOL     OW 8369   5.884   1.894   1.305 -0.1766 -0.2107  0.0033
 2642SOL    HW1 8370   5.939   1.817   1.323  0.4474  0.3554  0.5587
 2642SOL    HW2 8371   5.946   1.967   1.299 -0.4732 -0.1082 -3.1034
 2643SOL     OW 8372   0.722   1.371   1.210  0.4123 -0.0417  0.4562
 2643SOL    HW1 8373   0.749   1.446   1.157 -0.3583  0.4767  0.7740
 2643SOL    HW2 8374   0.785   1.302   1.188  0.3294  0.2695 -0.8534
 2644SOL     OW 8375   1.586   5.172   3.137  0.0439 -0.5021  0.0437
 2644SOL    HW1 8376   1.572   5.227   3.060 -0.0592  1.5990  1.4945
 2644SOL    HW2 8377   1.501   5.166   3.179  0.3631 -0.4590  0.7193
 2645SOL     OW 8378   5.731   4.784   2.013  0.0368 -0.0884  0.4179
 2645SOL    HW1 8379   5.712   4.853   2.077  1.7572  1.0784 -0.2500
 2645SOL    HW2 8380   5.815   4.748   2.041 -0.4280 -1.3441  0.2484
 2646SOL     OW 8381   2.386   3.578   0.387  0.6807 -0.1464 -0.1858
 2646SOL    HW1 8382   2.471   3.606   0.355  1.1859  0.2718  1.4102
 2646SOL    HW2 8383   2.406   3.527   0.466 -0.4621 -1.5514 -0.7521
 2647SOL     OW 8384   2.328   2.835   4.357  0.3089  0.4722 -0.0666
 2647SOL    HW1 8385   2.346   2.921   4.319  0.5664  0.7268  0.6091
 2647SOL    HW2 8386   2.328   2.775   4.283  0.7772  0.9593 -0.4678
 2648SOL     OW 8387   2.388   4.548   1.827  0.2114  1.0822 -0.4688
 2648SOL    HW1 8388   2.460   4.487   1.820 -0.9360 -0.2336 -1.2289
 2648SOL    HW2 8389   2.426   4.625   1.871  1.7831  0.0228  0.1171
 2649SOL     OW 8390   6.031   0.085   0.165  0.4733  0.5603 -0.2330
 2649SOL    HW1 8391   6.081   0.116   0.090 -0.0247  0.0202 -0.7996
 2649SOL    HW2 8392   5.985   0.163   0.197 -0.8690  0.4197 -1.7188
 2650SOL     OW 8393   2.222   5.303   5.425  0.3625  0.2471 -0.1144
 2650SOL    HW1 8394   2.151   5.340   5.374  0.3928  0.6002  0.0980
 2650SOL    HW2 8395   2.278   5.260   5.360 -0.2058 -0.3059 -0.2460
 2651SOL     OW 8396   2.737   0.147   4.524  0.1711  0.0836  0.0786
 2651SOL    HW1 8397   2.796   0.077   4.500 -1.1789 -0.3830 -2.1372
 2651SOL    HW2 8398   2.765   0.222   4.471  0.6623  0.8097  1.3155
 2652SOL     OW 8399   3.117   2.258   4.973 -0.5880 -0.3076 -0.0007
 2652SOL    HW1 8400   3.114   2.312   4.894 -2.9339 -0.6789 -0.2523
 2652SOL    HW2 8401   3.145   2.318   5.042 -1.1028  0.6993 -0.6394
 2653SOL     OW 8402   3.820   2.307   1.346  0.3173  0.6426  0.1762
 2653SOL    HW1 8403   3.895   2.348   1.389 -0.1992  1.3602  0.4033
 2653SOL    HW2 8404   3.858   2.264   1.269  0.9826  0.8751  0.3654
 2654SOL     OW 8405   1.047   0.928   5.802 -0.1036 -0.0475 -0.1542
 2654SOL    HW1 8406   1.108   0.874   5.750  1.6479  0.8443  0.8647
 2654SOL    HW2 8407   1.088   0.933   5.888  0.4609  3.7833 -0.4773
 2655SOL     OW 8408   5.486   0.673   3.003  0.5667  0.2829  0.3592
 2655SOL    HW1 8409   5.499   0.634   2.916 -2.1546  0.5033 -0.2350
 2655SOL    HW2 8410   5.485   0.767   2.986  0.5727  0.3520  0.7469
 2656SOL     OW 8411   3.937   5.632   3.397  0.4827  0.4755 -0.3413
 2656SOL    HW1 8412   3.844   5.647   3.415  0.7790 -0.9351  3.5923
 2656SOL    HW2 8413   3.982   5.692   3.456  1.9203 -0.9587  0.1006
 2657SOL     OW 8414   2.609   0.591   4.575  0.3386  0.1638 -0.3084
 2657SOL    HW1 8415   2.597   0.674   4.622 -0.3233 -0.2882  0.3433
 2657SOL    HW2 8416   2.652   0.616   4.493  1.0284  1.0355  0.2959
 2658SOL     OW 8417   4.523   0.961   1.190  0.0542  0.3326 -0.3623
 2658SOL    HW1 8418   4.441   0.991   1.229  1.0774  1.1473  1.2707
 2658SOL    HW2 8419   4.558   0.899   1.253  0.6780 -0.0420 -1.0646
 2659SOL     OW 8420   0.932   4.282   4.818 -0.5326 -0.2184 -0.0343
 2659SOL    HW1 8421   1.024   4.295   4.792 -0.7040 -0.9378 -1.0586
 2659SOL    HW2 8422   0.937   4.263   4.912  0.3983 -0.5330 -0.1320
 2660SOL     OW 8423   4.326   6.036   3.777  0.8798  0.1227 -0.3705
 2660SOL    HW1 8424   4.302   5.948   3.746  0.7986  0.2792 -0.7702
 2660SOL    HW2 8425   4.319   6.031   3.872 -2.3566  0.5629 -0.4576
 2661SOL     OW 8426   2.609   3.416   0.210  0.4681 -0.3509 -0.2503
 2661SOL    HW1 8427   2.585   3.509   0.210 -0.2109 -0.5105  0.2599
 2661SOL    HW2 8428   2.570   3.381   0.130 -0.7003 -0.5166  0.3585
 2662SOL     OW 8429   6.045   0.507   5.405  0.0574  1.0390 -0.0004
 2662SOL    HW1 8430   6.081   0.425   5.439 -0.1286  1.0754  0.2819
 2662SOL    HW2 8431   5.984   0.537   5.472  1.4378  2.3326  0.7601
 2663SOL     OW 8432   3.284   4.347   3.014  0.1448 -0.0606 -0.2487
 2663SOL    HW1 8433   3.237   4.279   2.965  0.2831 -1.4893  1.5157
 2663SOL    HW2 8434   3.376   4.320   3.011  0.1851 -0.0400  0.5618
 2664SOL     OW 8435   2.001   2.814   0.497 -0.4044  0.3716 -0.4028
 2664SOL    HW1 8436   1.982   2.896   0.544 -0.6244 -0.0078  0.1843
 2664SOL    HW2 8437   1.914   2.779   0.475 -0.3133  0.2420 -0.5571
 2665SOL     OW 8438   1.167   0.993   6.049  0.3678  0.1514 -0.4593
 2665SOL    HW1 8439   1.217   1.065   6.088  0.2535  0.1618 -0.3330
 2665SOL    HW2 8440   1.160   0.928   6.119 -2.2484  1.3173  0.4873
 2666SOL     OW 8441   0.308   2.706   3.726  0.0221  0.8841 -0.0037
 2666SOL    HW1 8442   0.391   2.752   3.717  2.9476 -4.0736 -1.7178
 2666SOL    HW2 8443   0.301   2.686   3.819  1.3713  0.3403 -0.0107
 2667SOL     OW 8444   4.984   2.497   0.915  0.3318  0.1606 -0.0313
 2667SOL    HW1 8445   5.011   2.408   0.941  1.2295  0.1108 -1.0372
 2667SOL    HW2 8446   5.059   2.530   0.866 -0.4296  1.0781 -0.5882
 2668SOL     OW 8447   5.291   2.692   3.975  0.0207  0.1209 -0.0573
 2668SOL    HW1 8448   5.288   2.625   3.907  0.2127  0.8800 -0.8266
 2668SOL    HW2 8449   5.233   2.761   3.943 -0.1863  0.3236  0.7318
 2669SOL     OW 8450   2.412   3.134   5.410  0.1356  0.0954  0.8325
 2669SOL    HW1 8451   2.434   3.217   5.367  1.1056 -0.2467  0.6367
 2669SOL    HW2 8452   2.329   3.109   5.371 -0.3496  1.1424  1.1435
 2670SOL     OW 8453   3.466   3.947   4.983 -0.5109 -0.5776  0.3510
 2670SOL    HW1 8454   3.481   3.869   5.037  1.6789  0.6751  1.6977
 2670SOL    HW2 8455   3.410   4.003   5.036 -2.2816 -1.2643 -0.7145
 2671SOL     OW 8456   4.276   3.561   2.453  0.4743  0.5179  0.1670
 2671SOL    HW1 8457   4.318   3.479   2.431  1.3956  0.8281  0.7217
 2671SOL    HW2 8458   4.213   3.576   2.382  0.4721 -0.5308 -0.0623
 2672SOL     OW 8459   2.135   2.044   3.515  0.0156  0.0590 -0.4528
 2672SOL    HW1 8460   2.230   2.051   3.518  0.0950 -0.1007 -1.9285
 2672SOL    HW2 8461   2.114   1.974   3.576  0.9239 -0.4575 -0.7146
 2673SOL     OW 8462   3.474   0.577   5.982  0.0876 -0.1493 -0.1033
 2673SOL    HW1 8463   3.545   0.637   5.959  0.3072 -0.0017  0.9259
 2673SOL    HW2 8464   3.397   0.633   5.994 -0.3105 -0.3373 -1.5168
 2674SOL     OW 8465   3.379   2.740   4.987 -0.7105  0.7094 -0.0365
 2674SOL    HW1 8466   3.441   2.736   5.060 -0.1509  0.3103 -0.5287
 2674SOL    HW2 8467   3.293   2.728   5.028 -0.2152 -2.8239  0.2608
 2675SOL     OW 8468   2.405   1.315   3.509 -0.1331  0.8390 -0.0630
 2675SOL    HW1 8469   2.472   1.381   3.521  0.0380  0.8137 -0.8270
 2675SOL    HW2 8470   2.336   1.360   3.461 -0.4744  0.7407  0.3256
 2676SOL     OW 8471   6.065   2.817   4.560 -0.3089 -0.2802  0.2923
 2676SOL    HW1 8472   6.094   2.898   4.519 -0.7393 -0.6077 -0.7026
 2676SOL    HW2 8473   6.065   2.753   4.488 -0.1406 -1.1179  1.0186
 2677SOL     OW 8474   3.797   0.788   3.712 -0.6747  0.4999 -0.8018
 2677SOL    HW1 8475   3.875   0.841   3.726 -0.3734 -0.1334  0.0846
 2677SOL    HW2 8476   3.728   0.851   3.689 -0.0919  1.1495 -0.7966
 2678SOL     OW 8477   1.419   2.275   5.076 -0.0208 -0.5181  0.0476
 2678SOL    HW1 8478   1.438   2.267   5.169  0.6795 -0.3399 -0.0746
 2678SOL    HW2 8479   1.348   2.339   5.071  1.0376  0.7119  0.3588
 2679SOL     OW 8480   3.377   0.385   0.774  0.1357 -0.0437 -0.0316
 2679SOL    HW1 8481   3.430   0.427   0.706  0.9390 -0.3941  0.3641
 2679SOL    HW2 8482   3.431   0.391   0.853 -1.1013  1.0354  0.7714
 2680SOL     OW 8483   5.618   1.399   1.632 -0.3052 -0.3342 -0.3746
 2680SOL    HW1 8484   5.631   1.361   1.545  0.2400 -0.3652 -0.2842
 2680SOL    HW2 8485   5.630   1.493   1.619 -0.4708 -0.3157 -0.3832
 2681SOL     OW 8486   4.106   2.903   3.358 -0.2170  0.1282 -0.0354
 2681SOL    HW1 8487   4.188   2.862   3.331 -0.0848  0.2585  0.1661
 2681SOL    HW2 8488   4.075   2.850   3.431  1.1345  1.6787  1.7903
 2682SOL     OW 8489   3.660   1.045   4.987 -0.0787  0.2908 -0.1177
 2682SOL    HW1 8490   3.659   0.962   5.036  1.4262  0.4360  0.2062
 2682SOL    HW2 8491   3.681   1.019   4.897  1.0324  0.3373  0.1043
 2683SOL     OW 8492   4.843   0.444   0.477 -0.0749 -0.3364  0.2800
 2683SOL    HW1 8493   4.798   0.521   0.443  0.1749 -1.1856 -2.2270
 2683SOL    HW2 8494   4.773   0.383   0.500 -0.2521  0.1628  1.0687
 2684SOL     OW 8495   0.379   2.792   0.342 -0.0116  0.4977 -0.7813
 2684SOL    HW1 8496   0.390   2.867   0.284 -1.1258  1.9836  0.8269
 2684SOL    HW2 8497   0.353   2.830   0.426  0.0979 -1.6551  0.2928
 2685SOL     OW 8498   1.835   2.505   0.148 -0.0425 -0.0492 -0.3409
 2685SOL    HW1 8499   1.868   2.457   0.073 -0.2281 -0.4516 -0.1739
 2685SOL    HW2 8500   1.903   2.568   0.170 -0.8277  1.4988 -2.0940
 2686SOL     OW 8501   2.870   3.928   5.837  0.2405  0.4177 -0.2568
 2686SOL    HW1 8502   2.895   3.867   5.905 -1.1162  0.2986  0.1560
 2686SOL    HW2 8503   2.913   3.895   5.758 -1.1554 -1.5942 -0.2358
 2687SOL     OW 8504   2.854   2.694   4.664 -0.1997  0.7001 -0.1193
 2687SOL    HW1 8505   2.815   2.620   4.617 -1.7695  1.3957  0.0484
 2687SOL    HW2 8506   2.817   2.688   4.752  0.4781  1.0920  0.1948
 2688SOL     OW 8507   0.266   1.723   2.206  0.1430  0.1664 -0.3990
 2688SOL    HW1 8508   0.210   1.654   2.242  1.4214 -0.4873  0.4168
 2688SOL    HW2 8509   0.206   1.796   2.189 -0.6574  0.4803  2.9199
 2689SOL     OW 8510   3.392   2.835   0.533  0.0732 -0.0432 -0.0220
 2689SOL    HW1 8511   3.448   2.757   0.529  1.5316  1.0153 -1.7731
 2689SOL    HW2 8512   3.319   2.815   0.474  0.8905  0.1957 -1.1519
 2690SOL     OW 8513   0.626   0.272   6.059  0.1191  0.1313  0.3744
 2690SOL    HW1 8514   0.652   0.359   6.027  0.0880 -0.2517 -0.7426
 2690SOL    HW2 8515   0.547   0.289   6.111 -0.2352  0.7110 -0.3242
 2691SOL     OW 8516   4.723   4.926   3.517 -0.1319  0.3660 -0.8492
 2691SOL    HW1 8517   4.655   4.861   3.535  0.4412  0.0518  0.2726
 2691SOL    HW2 8518   4.797   4.875   3.486  0.4072  0.4237  0.2812
 2692SOL     OW 8519   0.723   5.696   3.521  0.0778 -0.3459 -0.3757
 2692SOL    HW1 8520   0.738   5.753   3.446 -0.8937  0.3172 -0.0718
 2692SOL    HW2 8521   0.783   5.729   3.589 -0.5384  0.3853 -0.1724
 2693SOL     OW 8522   5.695   1.405   5.902  0.7215  0.0569 -0.2120
 2693SOL    HW1 8523   5.649   1.343   5.845  1.6412 -1.2323  0.4028
 2693SOL    HW2 8524   5.744   1.462   5.841 -0.4347  0.4552 -0.7954
 2694SOL     OW 8525   4.050   0.242   5.654 -0.8006 -0.5347 -0.8282
 2694SOL    HW1 8526   4.055   0.221   5.561  0.7842  0.3128 -0.9806
 2694SOL    HW2 8527   3.966   0.286   5.664 -0.3959  0.6548 -2.1800
 2695SOL     OW 8528   2.749   3.335   5.621 -0.3349  0.1823  0.0063
 2695SOL    HW1 8529   2.753   3.265   5.686  0.6149 -0.4638 -0.7157
 2695SOL    HW2 8530   2.798   3.407   5.661  1.1476 -0.5641 -0.3697
 2696SOL     OW 8531   0.609   1.747   0.447 -0.6490  0.2476  0.6984
 2696SOL    HW1 8532   0.541   1.748   0.380  1.9321  0.3636 -2.1919
 2696SOL    HW2 8533   0.612   1.657   0.478 -1.2226 -0.0660 -0.1373
 2697SOL     OW 8534   0.010   3.684   6.059  0.1282  0.5306  0.0707
 2697SOL    HW1 8535   0.083   3.635   6.097  0.2706  1.4222  0.9737
 2697SOL    HW2 8536   0.050   3.766   6.028 -0.2974  0.5423 -0.4569
 2698SOL     OW 8537   3.045   0.270   3.717  0.1549 -0.2812 -0.9023
 2698SOL    HW1 8538   3.127   0.285   3.764 -0.6983 -0.9917  0.9249
 2698SOL    HW2 8539   3.038   0.175   3.710 -1.6232 -0.3899  1.2031
 2699SOL     OW 8540   2.442   4.306   1.328 -0.0263 -0.2100 -0.3710
 2699SOL    HW1 8541   2.400   4.230   1.287  0.5166 -0.3252 -0.7296
 2699SOL    HW2 8542   2.443   4.286   1.421  1.0639 -1.1399 -0.5596
 2700SOL     OW 8543   1.533   3.271   0.584 -0.1882 -0.0234 -0.3172
 2700SOL    HW1 8544   1.533   3.337   0.653  0.7546  0.5882 -0.8805
 2700SOL    HW2 8545   1.615   3.224   0.596 -0.9607 -1.2621  0.2190
 2701SOL     OW 8546   2.574   0.848   4.632 -0.2893  0.1372 -0.0391
 2701SOL    HW1 8547   2.508   0.912   4.659 -0.0168  1.0434 -1.4548
 2701SOL    HW2 8548   2.649   0.900   4.604 -1.0565 -0.5683 -3.8985
 2702SOL     OW 8549   2.556   1.926   3.067 -0.2306  0.2307 -0.6126
 2702SOL    HW1 8550   2.644   1.898   3.042 -0.7787  0.0680 -2.5195
 2702SOL    HW2 8551   2.499   1.855   3.036 -1.1760  1.1092 -0.9459
 2703SOL     OW 8552   4.201   1.618   4.026 -0.6008  0.4310 -0.2221
 2703SOL    HW1 8553   4.189   1.595   4.119  0.3199 -0.4383 -0.3040
 2703SOL    HW2 8554   4.126   1.674   4.006  0.5566  2.8939  1.7733
 2704SOL     OW 8555   5.335   4.588   3.880 -0.0282 -0.9606 -0.3201
 2704SOL    HW1 8556   5.258   4.630   3.920 -0.2451 -0.9681 -0.7230
 2704SOL    HW2 8557   5.355   4.515   3.938 -1.4786 -2.1162 -1.1824
 2705SOL     OW 8558   4.660   0.823   1.009 -0.1024 -0.1404 -0.2681
 2705SOL    HW1 8559   4.636   0.900   1.062 -0.6627 -0.9725  0.7351
 2705SOL    HW2 8560   4.576   0.785   0.984  0.1604 -0.9953  0.1136
 2706SOL     OW 8561   0.782   1.079   0.331  0.1815 -0.5437 -0.1782
 2706SOL    HW1 8562   0.857   1.117   0.286 -0.5111  1.7422  0.4724
 2706SOL    HW2 8563   0.707   1.101   0.275 -0.7431  2.6360  2.0384
 2707SOL     OW 8564   1.946   1.136   4.709  0.1444 -0.4762 -0.4746
 2707SOL    HW1 8565   1.992   1.120   4.791 -0.0121 -1.0716 -0.5042
 2707SOL    HW2 8566   1.865   1.179   4.734  0.2232 -0.4065 -0.3410
 2708SOL     OW 8567   3.492   2.772   2.881 -0.3462  0.3195 -0.1832
 2708SOL    HW1 8568   3.496   2.691   2.830 -0.5754 -0.6230  1.2236
 2708SOL    HW2 8569   3.572   2.771   2.934 -0.8997  0.4155  0.6740
 2709SOL     OW 8570   1.985   2.417   3.332  0.8076  0.1449 -0.1195
 2709SOL    HW1 8571   1.975   2.322   3.331  3.7251 -0.3223  2.2203
 2709SOL    HW2 8572   1.953   2.445   3.246 -0.9384 -2.8057 -0.5608
 2710SOL     OW 8573   4.641   2.806   0.051 -0.6274 -0.5018 -0.1800
 2710SOL    HW1 8574   4.589   2.809   0.130  0.7251  0.4653  0.7254
 2710SOL    HW2 8575   4.592   2.750  -0.009 -2.2975 -0.2149  0.8754
 2711SOL     OW 8576   5.070   5.433   1.292  0.4178 -0.2746 -0.2563
 2711SOL    HW1 8577   5.049   5.523   1.317  0.0247 -0.6139  0.6995
 2711SOL    HW2 8578   5.127   5.441   1.216  0.0555  0.7699 -0.4244
 2712SOL     OW 8579   0.299   4.760   3.340 -0.1284 -0.1861  0.5376
 2712SOL    HW1 8580   0.389   4.728   3.335 -0.1756 -0.2100 -0.3668
 2712SOL    HW2 8581   0.246   4.683   3.357 -0.0320 -0.2676  0.4675
 2713SOL     OW 8582   4.395   5.118   3.590  0.0754 -0.1146  0.3951
 2713SOL    HW1 8583   4.303   5.094   3.578  0.5860 -1.6486 -0.6868
 2713SOL    HW2 8584   4.416   5.088   3.679  0.3574 -2.7651 -0.4747
 2714SOL     OW 8585   4.094   3.031   4.030  0.2393  0.0341  0.3398
 2714SOL    HW1 8586   4.175   3.043   4.079 -0.6022 -1.5259  2.2784
 2714SOL    HW2 8587   4.115   2.965   3.964  0.7327  0.2333  0.2928
 2715SOL     OW 8588   3.844   4.366   0.227 -0.3748 -0.8081 -0.6939
 2715SOL    HW1 8589   3.763   4.342   0.272  0.9304 -3.1109  0.5882
 2715SOL    HW2 8590   3.858   4.297   0.162  0.6383 -0.5481 -0.7736
 2716SOL     OW 8591   6.108   2.920   0.729  0.1289  0.5309 -0.2854
 2716SOL    HW1 8592   6.062   2.957   0.654 -0.2932  0.6886  0.0466
 2716SOL    HW2 8593   6.085   2.827   0.727  1.1575  0.2753 -1.0951
 2717SOL     OW 8594   1.641   0.582   4.235 -0.3344  0.4529 -0.3518
 2717SOL    HW1 8595   1.645   0.496   4.192  0.6256  0.0663  0.4712
 2717SOL    HW2 8596   1.731   0.614   4.233 -0.7148  1.5162 -0.7727
 2718SOL     OW 8597   2.366   4.222   1.610  0.2497 -0.1296  0.4380
 2718SOL    HW1 8598   2.293   4.283   1.622 -0.9050 -1.6849  1.8698
 2718SOL    HW2 8599   2.412   4.222   1.694  1.0649 -0.2337  0.0049
 2719SOL     OW 8600   1.240   1.425   3.116 -0.5161  0.8405  0.3533
 2719SOL    HW1 8601   1.263   1.515   3.094  1.2569  1.0099  2.5213
 2719SOL    HW2 8602   1.314   1.393   3.168 -1.7322 -1.3980  0.8596
 2720SOL     OW 8603   4.787   6.031   5.890  0.1449 -0.0896  0.2039
 2720SOL    HW1 8604   4.737   6.083   5.828 -1.7210 -1.5346  0.3927
 2720SOL    HW2 8605   4.859   6.088   5.918 -0.9338  1.7906 -0.7039
 2721SOL     OW 8606   1.739   5.354   1.302 -0.5506 -0.0024  0.6099
 2721SOL    HW1 8607   1.763   5.265   1.330  0.0332 -0.5709 -1.5720
 2721SOL    HW2 8608   1.657   5.342   1.254 -0.2393  0.5855 -0.0678
 2722SOL     OW 8609   3.696   0.575   3.903 -0.5343 -0.3867  0.0547
 2722SOL    HW1 8610   3.750   0.627   3.843  2.3477 -0.1082  2.6080
 2722SOL    HW2 8611   3.724   0.485   3.889 -1.6572 -0.6336 -0.6874
 2723SOL     OW 8612   0.776   0.074   0.597 -0.0873  0.2852 -0.7309
 2723SOL    HW1 8613   0.742   0.067   0.508 -2.2003  0.3834  0.0029
 2723SOL    HW2 8614   0.763   0.166   0.620  0.2785  0.2199 -0.2484
 2724SOL     OW 8615   4.426   5.313   0.335  0.9483 -0.2458  0.2759
 2724SOL    HW1 8616   4.336   5.289   0.310  0.5586  1.3157  0.0227
 2724SOL    HW2 8617   4.442   5.264   0.415  0.0521 -0.9261  0.0673
 2725SOL     OW 8618   2.074   2.728   5.173  0.1934  0.4370  0.0363
 2725SOL    HW1 8619   2.091   2.662   5.240 -0.0772 -2.1604 -2.2669
 2725SOL    HW2 8620   1.978   2.732   5.168  0.2077  1.0438  0.1608
 2726SOL     OW 8621   4.982   0.577   5.966 -0.1992 -0.2192 -0.5601
 2726SOL    HW1 8622   4.975   0.579   6.061 -0.4064  0.6931 -0.5828
 2726SOL    HW2 8623   5.076   0.574   5.949 -0.1736 -0.9648 -0.3331
 2727SOL     OW 8624   2.055   3.629   5.899  0.0983 -0.4573 -0.3742
 2727SOL    HW1 8625   2.129   3.675   5.940  0.6035 -1.5542 -0.0015
 2727SOL    HW2 8626   1.999   3.699   5.866  2.1813  0.4390 -2.3113
 2728SOL     OW 8627   4.166   4.082   1.052  0.1319 -0.4613  0.7779
 2728SOL    HW1 8628   4.108   4.102   1.126 -0.9722 -1.3245  0.1871
 2728SOL    HW2 8629   4.134   3.998   1.019  0.7997 -0.2461 -0.4835
 2729SOL     OW 8630   4.842   1.532   2.498  0.0895  0.2717 -0.1322
 2729SOL    HW1 8631   4.876   1.512   2.586 -0.1399 -0.0938 -0.1257
 2729SOL    HW2 8632   4.763   1.479   2.490 -1.2800  2.1069  0.3900
 2730SOL     OW 8633   0.027   3.251   5.199  0.5559 -0.0461 -0.6606
 2730SOL    HW1 8634   0.046   3.158   5.212 -0.5582  0.0327  2.1975
 2730SOL    HW2 8635   0.093   3.280   5.136  0.5659 -2.8565 -2.0913
 2731SOL     OW 8636   1.285   4.702   2.398  0.2910  0.0678 -0.1118
 2731SOL    HW1 8637   1.290   4.703   2.303  1.7494 -1.2159 -0.0868
 2731SOL    HW2 8638   1.326   4.785   2.425  0.9524 -0.1050 -0.5769
 2732SOL     OW 8639   3.422   0.589   3.270 -0.5050  0.1259 -0.9602
 2732SOL    HW1 8640   3.412   0.684   3.275 -2.2929 -0.0659 -0.2302
 2732SOL    HW2 8641   3.367   0.556   3.340  1.4548 -1.4112 -0.0618
 2733SOL     OW 8642   3.608   3.906   3.088 -0.4448 -0.1183 -0.3500
 2733SOL    HW1 8643   3.648   3.953   3.015  1.1189 -1.6652 -0.5406
 2733SOL    HW2 8644   3.521   3.946   3.097  0.8682  3.0204 -0.2646
 2734SOL     OW 8645   4.189   5.527   2.943  0.0374  0.1291  0.5730
 2734SOL    HW1 8646   4.229   5.550   2.859  0.4427  1.3474  1.0704
 2734SOL    HW2 8647   4.107   5.483   2.919 -0.9400  2.3665 -0.5105
 2735SOL     OW 8648   3.014   4.337   3.837 -0.3307  0.5842  0.4672
 2735SOL    HW1 8649   2.951   4.295   3.779 -1.0602  1.5273  0.5658
 2735SOL    HW2 8650   3.045   4.413   3.788 -0.3323  0.9207  0.9843
 2736SOL     OW 8651   5.615   3.460   5.540 -0.1141 -0.2893 -0.4500
 2736SOL    HW1 8652   5.607   3.480   5.633 -1.0114 -1.7951 -0.1790
 2736SOL    HW2 8653   5.535   3.413   5.518  0.5859 -0.9599 -1.7206
 2737SOL     OW 8654   1.395   0.976   0.767 -0.4165  0.4374 -0.0806
 2737SOL    HW1 8655   1.456   1.019   0.707  2.2194 -3.8365 -0.9135
 2737SOL    HW2 8656   1.310   0.983   0.724  0.7404  0.7221 -2.4702
 2738SOL     OW 8657   0.744   3.457   3.722 -0.1897 -0.4689 -0.3419
 2738SOL    HW1 8658   0.727   3.512   3.646 -0.2587  0.5927  0.4102
 2738SOL    HW2 8659   0.823   3.409   3.701  1.1944  1.6230 -0.1554
 2739SOL     OW 8660   1.080   3.801   5.931 -0.4400  0.3254  0.1702
 2739SOL    HW1 8661   1.174   3.783   5.921 -0.7109 -0.7106 -0.6149
 2739SOL    HW2 8662   1.038   3.745   5.866 -1.5743  1.1991  0.1309
 2740SOL     OW 8663   1.004   5.479   4.262  0.0011 -0.2016 -0.0337
 2740SOL    HW1 8664   0.955   5.452   4.185  0.1041  0.8324 -0.4774
 2740SOL    HW2 8665   1.095   5.475   4.236  0.0708 -0.4993  0.2509
 2741SOL     OW 8666   6.104   2.645   3.830  0.3731 -0.4255 -0.4280
 2741SOL    HW1 8667   6.194   2.663   3.800  0.8444  0.7502  1.5068
 2741SOL    HW2 8668   6.074   2.573   3.775  1.8753  0.2864 -2.2873
 2742SOL     OW 8669   5.772   3.074   0.777  0.0285  0.1888 -0.0751
 2742SOL    HW1 8670   5.754   3.129   0.854 -0.3196  0.1482 -0.1268
 2742SOL    HW2 8671   5.772   3.135   0.704 -1.6754 -0.0477 -0.3112
 2743SOL     OW 8672   4.127   3.405   3.361 -0.0386 -0.7415 -0.1931
 2743SOL    HW1 8673   4.207   3.446   3.393 -0.2789  0.8408 -1.4912
 2743SOL    HW2 8674   4.056   3.454   3.402 -0.3292 -0.3798 -1.1053
 2744SOL     OW 8675   5.250   3.662   2.527  0.4106  0.4666 -0.0196
 2744SOL    HW1 8676   5.297   3.689   2.449  1.5930 -0.2975  0.3930
 2744SOL    HW2 8677   5.187   3.597   2.497  0.3393  0.7333 -0.4410
 2745SOL     OW 8678   2.821   4.860   3.537  0.2395  0.3707  0.7719
 2745SOL    HW1 8679   2.768   4.838   3.614 -0.9272  0.5065  0.0424
 2745SOL    HW2 8680   2.811   4.954   3.527 -0.5529  0.2114 -0.1701
 2746SOL     OW 8681   0.802   3.124   1.473 -0.7997  0.4397 -0.5873
 2746SOL    HW1 8682   0.726   3.132   1.530  0.3612 -0.8429  1.2350
 2746SOL    HW2 8683   0.875   3.105   1.532  1.2180  2.7360 -2.1438
 2747SOL     OW 8684   0.065   2.310   3.866  0.3680 -0.2429  0.0760
 2747SOL    HW1 8685  -0.000   2.244   3.888  1.7548 -1.0644  1.9734
 2747SOL    HW2 8686   0.026   2.359   3.793 -3.1415  0.4886  2.2081
 2748SOL     OW 8687   2.798   0.607   2.701  0.4254  0.3121 -0.0245
 2748SOL    HW1 8688   2.770   0.684   2.651  1.6161  1.0652  0.4300
 2748SOL    HW2 8689   2.750   0.534   2.662  0.9886  0.9345 -1.9660
 2749SOL     OW 8690   1.966   3.072   3.846  0.0739 -0.4776  0.6293
 2749SOL    HW1 8691   2.019   2.997   3.817  0.4439 -0.7669  1.9673
 2749SOL    HW2 8692   1.911   3.093   3.771  0.3164 -1.7794  0.0570
 2750SOL     OW 8693   1.194   0.849   0.911 -0.0976 -0.5308 -0.2617
 2750SOL    HW1 8694   1.287   0.847   0.886  0.4554 -0.8360  1.6347
 2750SOL    HW2 8695   1.150   0.796   0.845  1.2752 -1.3913 -0.5320
 2751SOL     OW 8696   4.478   3.670   4.984  0.5700 -0.1172  0.1486
 2751SOL    HW1 8697   4.528   3.603   4.936 -1.1073 -0.0289 -1.8780
 2751SOL    HW2 8698   4.391   3.667   4.945 -0.6177  0.7438  2.5594
 2752SOL     OW 8699   2.459   4.008   2.512  0.6488  0.1702  0.3863
 2752SOL    HW1 8700   2.503   3.997   2.596 -0.6176 -1.5973  0.8875
 2752SOL    HW2 8701   2.513   3.960   2.450 -1.0362 -3.1197  1.2296
 2753SOL     OW 8702   1.331   1.870   2.022  0.4689 -0.0194  0.1989
 2753SOL    HW1 8703   1.376   1.785   2.023  0.7419  0.1045  2.1947
 2753SOL    HW2 8704   1.400   1.933   2.042 -0.1220  0.4380  0.8348
 2754SOL     OW 8705   4.297   4.053   3.342 -0.1358 -0.1310 -0.1613
 2754SOL    HW1 8706   4.332   4.141   3.356 -0.0190 -0.4349  1.7030
 2754SOL    HW2 8707   4.218   4.049   3.395 -0.2085 -1.1096 -0.3173
 2755SOL     OW 8708   5.286   0.887   5.301 -0.8614  0.5393 -0.3467
 2755SOL    HW1 8709   5.326   0.834   5.232 -0.4103  0.6893 -0.2043
 2755SOL    HW2 8710   5.350   0.957   5.318 -1.2199  0.8278 -0.1705
 2756SOL     OW 8711   5.372   3.613   0.724 -0.2965 -0.1447 -0.0811
 2756SOL    HW1 8712   5.379   3.637   0.816  1.3250 -0.4919 -0.0822
 2756SOL    HW2 8713   5.407   3.525   0.719 -1.6944 -0.6959 -0.8368
 2757SOL     OW 8714   1.333   2.343   4.755  0.2715  0.4300 -0.3576
 2757SOL    HW1 8715   1.341   2.410   4.824  0.1111  1.1597 -1.0294
 2757SOL    HW2 8716   1.389   2.271   4.784 -0.8925  0.1057  1.2484
 2758SOL     OW 8717   2.269   2.710   0.938 -0.0212 -0.2274 -0.4059
 2758SOL    HW1 8718   2.183   2.678   0.912 -0.4877  0.8038 -0.2144
 2758SOL    HW2 8719   2.278   2.794   0.893  0.4650  0.1297  0.3318
 2759SOL     OW 8720   0.662   5.031   0.754  0.6048 -0.1298 -0.1638
 2759SOL    HW1 8721   0.588   5.091   0.759 -0.1042 -0.7916 -1.9107
 2759SOL    HW2 8722   0.672   4.998   0.844 -0.0298  1.3386  0.4768
 2760SOL     OW 8723   3.594   5.309   3.479  0.0836 -0.2297  0.1776
 2760SOL    HW1 8724   3.684   5.320   3.510  0.0978  0.5036 -0.1076
 2760SOL    HW2 8725   3.577   5.215   3.487  0.9289 -0.3981  0.0859
 2761SOL     OW 8726   4.066   1.859   0.364  0.2290  0.6938  0.0913
 2761SOL    HW1 8727   3.988   1.812   0.335  1.0346 -0.3116 -0.5291
 2761SOL    HW2 8728   4.138   1.819   0.315  1.7768 -1.3781  3.5967
 2762SOL     OW 8729   0.026   1.216   5.193 -0.6318 -0.4460 -0.1252
 2762SOL    HW1 8730   0.071   1.299   5.210 -1.1230 -0.1942 -0.0375
 2762SOL    HW2 8731   0.069   1.153   5.251 -0.5114 -0.1730  0.0848
 2763SOL     OW 8732   3.875   0.052   0.231  0.4422  0.6172 -0.2587
 2763SOL    HW1 8733   3.967   0.035   0.250  0.0676  0.2176  1.3363
 2763SOL    HW2 8734   3.866   0.034   0.138  2.1970  1.6907 -0.6960
 2764SOL     OW 8735   6.051   5.497   2.443  0.0897 -0.2319  0.0240
 2764SOL    HW1 8736   6.136   5.488   2.401  0.5346 -0.8822  1.0167
 2764SOL    HW2 8737   6.049   5.427   2.509 -0.8554  0.3204  0.6108
 2765SOL     OW 8738   3.348   0.105   3.312 -0.2662  0.5822 -0.4296
 2765SOL    HW1 8739   3.441   0.122   3.300 -0.2337  0.0977 -0.8919
 2765SOL    HW2 8740   3.337   0.094   3.407  0.0919  0.9342 -0.3451
 2766SOL     OW 8741   1.448   2.693   5.424 -0.2517  0.3880  0.1415
 2766SOL    HW1 8742   1.465   2.685   5.518  0.6620  0.7937  0.0216
 2766SOL    HW2 8743   1.531   2.724   5.387 -0.8586  1.0896 -0.6782
 2767SOL     OW 8744   0.512   5.969   0.422  0.2411  0.1377 -0.6584
 2767SOL    HW1 8745   0.465   5.891   0.392 -1.9391  0.5820  1.3822
 2767SOL    HW2 8746   0.470   6.042   0.377 -1.1625  0.5395  1.1902
 2768SOL     OW 8747   2.007   3.661   0.228  0.3420 -0.0248 -0.2065
 2768SOL    HW1 8748   2.011   3.577   0.272  2.0421 -0.3437 -0.8677
 2768SOL    HW2 8749   2.065   3.718   0.279 -0.0814  0.4868 -0.2848
 2769SOL     OW 8750   1.945   5.910   5.944 -0.2180 -0.3207 -0.2928
 2769SOL    HW1 8751   1.961   5.833   5.890 -1.2432 -1.0089  0.3251
 2769SOL    HW2 8752   1.889   5.966   5.891  2.4747  1.1944 -1.7011
 2770SOL     OW 8753   6.102   0.609   2.115 -0.3664  0.6650 -0.5001
 2770SOL    HW1 8754   6.077   0.573   2.201  1.0339  1.1039  0.1211
 2770SOL    HW2 8755   6.038   0.571   2.054 -0.9248 -0.2749  0.6156
 2771SOL     OW 8756   5.083   4.100   1.000  0.0163 -0.2322  0.3788
 2771SOL    HW1 8757   5.085   4.014   1.044 -0.0944 -0.1654  0.5141
 2771SOL    HW2 8758   5.174   4.129   1.001  0.2020 -0.7430 -0.4518
 2772SOL     OW 8759   3.157   5.154   2.272 -0.3170 -0.0812  0.0743
 2772SOL    HW1 8760   3.140   5.178   2.181 -0.5191 -0.5936 -0.0312
 2772SOL    HW2 8761   3.236   5.201   2.296 -0.6223  0.5669 -0.1606
 2773SOL     OW 8762   0.428   4.529   3.757  0.3328  0.0384  0.0478
 2773SOL    HW1 8763   0.405   4.497   3.844  0.0577 -0.6822 -0.2750
 2773SOL    HW2 8764   0.364   4.597   3.738  1.4027  1.3905  1.0652
 2774SOL     OW 8765   3.287   2.405   2.531  0.4696 -0.6157  0.2952
 2774SOL    HW1 8766   3.223   2.338   2.556 -0.6140  0.6427  1.0616
 2774SOL    HW2 8767   3.255   2.439   2.448  0.4041 -0.3149  0.4418
 2775SOL     OW 8768   5.834   3.170   3.739 -0.3918  0.1959 -0.1457
 2775SOL    HW1 8769   5.808   3.123   3.659 -1.5015  1.0036 -0.2850
 2775SOL    HW2 8770   5.852   3.259   3.709  0.7694  0.1148  0.2701
 2776SOL     OW 8771   0.827   0.896   2.921  0.2717  0.0223  0.5501
 2776SOL    HW1 8772   0.834   0.917   2.828  0.8773 -0.9954  0.3518
 2776SOL    HW2 8773   0.795   0.977   2.962 -1.0956  0.1468 -0.6899
 2777SOL     OW 8774   1.388   5.824   3.876 -0.1628  0.2464  0.7867
 2777SOL    HW1 8775   1.475   5.863   3.867 -0.5240  0.9821  0.3684
 2777SOL    HW2 8776   1.360   5.848   3.964  0.1653 -0.2265  1.0238
 2778SOL     OW 8777   3.326   3.364   0.287 -0.3785  0.3022 -0.5154
 2778SOL    HW1 8778   3.412   3.380   0.325 -0.0762 -0.3423 -0.9130
 2778SOL    HW2 8779   3.284   3.450   0.285  0.2976  0.6380 -0.4327
 2779SOL     OW 8780   4.529   5.598   1.720  0.2976 -0.3367 -0.1476
 2779SOL    HW1 8781   4.590   5.552   1.778 -1.7214 -1.1829  1.4558
 2779SOL    HW2 8782   4.568   5.590   1.633  2.7915 -0.1941  0.8657
 2780SOL     OW 8783   1.476   1.711   4.416  0.0382 -0.1359 -0.1307
 2780SOL    HW1 8784   1.565   1.679   4.431 -0.1060 -0.1706  0.6950
 2780SOL    HW2 8785   1.468   1.717   4.321  1.3184  0.9499 -0.2041
 2781SOL     OW 8786   5.998   4.898   1.214  0.7364  0.0053 -0.0464
 2781SOL    HW1 8787   6.014   4.823   1.272 -3.0095 -3.2163 -2.6744
 2781SOL    HW2 8788   6.046   4.877   1.134  0.0628  0.6979 -0.6425
 2782SOL     OW 8789   2.375   2.102   0.876  0.4370  0.2131 -0.3892
 2782SOL    HW1 8790   2.295   2.059   0.846  0.2944  0.9563 -1.0915
 2782SOL    HW2 8791   2.416   2.038   0.935  0.2784 -0.9209 -1.4851
 2783SOL     OW 8792   3.379   0.919   5.268  0.3014  0.7082  0.3606
 2783SOL    HW1 8793   3.463   0.926   5.312  0.0589 -0.0294  0.9669
 2783SOL    HW2 8794   3.400   0.886   5.180  0.4817 -2.3219  1.4201
 2784SOL     OW 8795   0.226   3.010   1.954  0.1039 -0.4298  0.1365
 2784SOL    HW1 8796   0.166   3.072   1.996  0.6554  0.2418 -0.0541
 2784SOL    HW2 8797   0.169   2.951   1.906 -0.3779  0.8455 -0.9071
 2785SOL     OW 8798   1.642   0.299   4.196  0.5060  0.2401  0.1070
 2785SOL    HW1 8799   1.715   0.250   4.159  1.5223  1.2585  0.6947
 2785SOL    HW2 8800   1.610   0.245   4.268  0.5926 -0.2608 -0.2286
 2786SOL     OW 8801   0.008   3.026   2.430  0.1854 -0.0844  0.2534
 2786SOL    HW1 8802   0.068   3.097   2.408  1.6608 -0.5345  2.4836
 2786SOL    HW2 8803   0.038   2.952   2.378  0.9155 -0.0246  0.5814
 2787SOL     OW 8804   5.124   0.489   1.925  0.1746  0.0668 -0.3316
 2787SOL    HW1 8805   5.113   0.545   2.002 -0.7023  0.3040 -0.6296
 2787SOL    HW2 8806   5.149   0.404   1.962 -0.1559  0.1968  0.2064
 2788SOL     OW 8807   5.162   4.078   3.116 -0.2440  0.2881 -0.5133
 2788SOL    HW1 8808   5.097   4.141   3.146  0.0422  0.6040 -0.5462
 2788SOL    HW2 8809   5.121   4.033   3.042 -0.3413  0.6413 -0.6747
 2789SOL     OW 8810   2.449   3.314   0.877 -0.3631 -0.0754  0.7335
 2789SOL    HW1 8811   2.389   3.370   0.926 -0.1820  0.7519  0.0258
 2789SOL    HW2 8812   2.535   3.333   0.914 -0.2029  0.6849 -0.0186
 2790SOL     OW 8813   1.765   1.981   2.464 -0.9429 -0.1029 -0.2014
 2790SOL    HW1 8814   1.759   1.924   2.387 -1.0291 -0.1046 -0.1941
 2790SOL    HW2 8815   1.857   1.979   2.489 -0.1389  2.6308 -2.4193
 2791SOL     OW 8816   2.568   5.982   1.558 -0.1200  0.1255 -0.0906
 2791SOL    HW1 8817   2.653   6.026   1.560 -0.5214  1.1080 -1.8676
 2791SOL    HW2 8818   2.509   6.045   1.515 -1.5947 -0.7822  0.5020
 2792SOL     OW 8819   4.491   2.391   2.243  0.2309 -0.4170  0.1760
 2792SOL    HW1 8820   4.443   2.368   2.322 -0.3975 -0.2994 -0.1598
 2792SOL    HW2 8821   4.475   2.485   2.232  0.6548 -0.3477  0.1363
 2793SOL     OW 8822   3.135   0.005   3.664 -0.1324  0.0740 -0.9096
 2793SOL    HW1 8823   3.148  -0.069   3.724 -0.4356  0.3675 -0.4661
 2793SOL    HW2 8824   3.222   0.043   3.653 -0.3205  1.1695  0.8890
 2794SOL     OW 8825   0.286   5.081   0.639  0.1650 -0.2646  0.2158
 2794SOL    HW1 8826   0.346   5.148   0.672  0.8641 -0.9914  0.4825
 2794SOL    HW2 8827   0.317   5.062   0.551 -2.1941  2.2468 -1.2928
 2795SOL     OW 8828   0.952   1.989   1.516  0.1747 -0.2535  0.1561
 2795SOL    HW1 8829   0.926   1.933   1.443 -2.5395 -0.0688  0.8857
 2795SOL    HW2 8830   0.988   1.928   1.581 -0.2893 -0.8118 -0.1015
 2796SOL     OW 8831   5.044   2.265   1.023 -0.1385 -0.4525 -0.5642
 2796SOL    HW1 8832   5.044   2.234   1.114 -1.5638 -0.5342 -0.5675
 2796SOL    HW2 8833   5.089   2.196   0.974 -1.3236 -1.5063 -0.2330
 2797SOL     OW 8834   1.021   0.523   5.238  0.4967 -1.0528 -0.1382
 2797SOL    HW1 8835   1.014   0.585   5.165  0.1930 -0.2055  0.5846
 2797SOL    HW2 8836   1.084   0.458   5.209  1.7147  0.2392 -0.4918
 2798SOL     OW 8837   2.158   0.396   5.020  0.0119 -0.7057  0.2707
 2798SOL    HW1 8838   2.211   0.460   5.067  1.1926 -1.7968  0.4985
 2798SOL    HW2 8839   2.210   0.374   4.942 -0.0329 -1.8840  0.5546
 2799SOL     OW 8840   0.353   4.468   0.935  0.1045  0.1487  0.0262
 2799SOL    HW1 8841   0.335   4.449   1.027 -2.2602 -0.3457 -0.4710
 2799SOL    HW2 8842   0.364   4.382   0.895 -0.5115  0.2784 -0.4314
 2800SOL     OW 8843   5.713   3.709   4.042  0.2859  0.1511  0.8108
 2800SOL    HW1 8844   5.784   3.768   4.065  0.3841  0.2592  0.2492
 2800SOL    HW2 8845   5.662   3.757   3.976  0.8122 -0.6862 -0.2317
 2801SOL     OW 8846   3.333   4.232   3.826 -0.0040 -0.2832  0.0593
 2801SOL    HW1 8847   3.344   4.306   3.766 -0.5834 -1.7535 -1.9613
 2801SOL    HW2 8848   3.261   4.257   3.883 -0.5112  0.5251 -0.9084
 2802SOL     OW 8849   4.620   0.326   0.579 -0.2043  0.1396  0.2517
 2802SOL    HW1 8850   4.587   0.412   0.607 -0.3843  0.7533 -1.7043
 2802SOL    HW2 8851   4.551   0.264   0.604 -0.5159  0.6911  0.7882
 2803SOL     OW 8852   1.136   1.241   3.842  0.0911  0.3453 -0.0319
 2803SOL    HW1 8853   1.171   1.152   3.832 -0.2476  0.5329 -4.4630
 2803SOL    HW2 8854   1.044   1.228   3.867 -0.0074 -0.5891 -0.8206
 2804SOL     OW 8855   0.568   3.277   0.443  0.0043 -0.3347 -0.4303
 2804SOL    HW1 8856   0.568   3.350   0.381  2.2259  0.3622  0.3046
 2804SOL    HW2 8857   0.636   3.218   0.411 -1.4074 -1.8858 -0.7242
 2805SOL     OW 8858   0.191   5.468   1.695  0.6707 -0.3740  0.0157
 2805SOL    HW1 8859   0.163   5.469   1.786 -0.6159 -1.9473 -0.2963
 2805SOL    HW2 8860   0.194   5.560   1.669  1.3670  0.1163  1.7036
 2806SOL     OW 8861   0.417   3.188   1.138  0.5979 -0.7095  0.0543
 2806SOL    HW1 8862   0.468   3.262   1.105  0.6675 -1.1766 -0.9126
 2806SOL    HW2 8863   0.349   3.229   1.192  1.2336 -0.0105  0.3451
 2807SOL     OW 8864   0.377   5.390   3.634  0.3497  0.1978 -0.0861
 2807SOL    HW1 8865   0.471   5.377   3.626  0.2937 -1.7085  1.7042
 2807SOL    HW2 8866   0.356   5.367   3.724 -1.9068  0.1874 -0.5427
 2808SOL     OW 8867   2.186   5.459   5.642 -0.1422  0.2527 -0.7868
 2808SOL    HW1 8868   2.270   5.499   5.664  1.5013 -3.8702  1.4400
 2808SOL    HW2 8869   2.207   5.393   5.576 -1.5041 -1.1934  0.1709
 2809SOL     OW 8870   1.250   2.911   4.052 -0.5026  0.4254 -0.3380
 2809SOL    HW1 8871   1.270   2.855   3.978 -2.2669  1.0132 -1.3275
 2809SOL    HW2 8872   1.194   2.857   4.108 -1.3135  0.8083 -0.7574
 2810SOL     OW 8873   0.658   2.151   5.313 -0.1582 -0.1809 -0.0693
 2810SOL    HW1 8874   0.577   2.166   5.265  0.3587  0.9821 -0.6523
 2810SOL    HW2 8875   0.632   2.105   5.392 -1.1688 -1.2781 -1.0071
 2811SOL     OW 8876   3.078   0.151   1.578  0.1879  0.5382 -0.0566
 2811SOL    HW1 8877   3.145   0.083   1.577 -0.8852 -0.5327 -0.4427
 2811SOL    HW2 8878   3.008   0.115   1.632 -0.4025  1.3224 -0.2824
 2812SOL     OW 8879   5.416   0.734   0.864  0.1412  0.4358 -0.4407
 2812SOL    HW1 8880   5.409   0.661   0.802  1.9018 -1.1379  1.0742
 2812SOL    HW2 8881   5.510   0.745   0.878 -0.1153  2.4929  0.0137
 2813SOL     OW 8882   2.319   1.968   4.498  0.5469  0.3072 -0.4463
 2813SOL    HW1 8883   2.265   2.047   4.491  0.3795  0.2151 -0.1811
 2813SOL    HW2 8884   2.303   1.935   4.586 -0.4501 -0.7952 -1.0143
 2814SOL     OW 8885   0.325   2.603   1.959  0.5564  0.0408  0.4909
 2814SOL    HW1 8886   0.243   2.628   1.916  2.2800  1.0780 -2.5735
 2814SOL    HW2 8887   0.335   2.510   1.939  0.2309 -0.0341  0.6766
 2815SOL     OW 8888   3.063   6.105   2.661  0.0520 -0.1149  0.2840
 2815SOL    HW1 8889   3.098   6.194   2.673 -0.0157  0.0017 -0.3552
 2815SOL    HW2 8890   3.132   6.048   2.695 -0.2615  0.2046  1.5037
 2816SOL     OW 8891   3.905   0.176   4.008  0.1139  0.2877  0.0132
 2816SOL    HW1 8892   3.926   0.179   4.102 -0.1589  1.0166  0.0560
 2816SOL    HW2 8893   3.858   0.093   3.997 -0.3260  0.4485  0.6198
 2817SOL     OW 8894   3.531   3.021   4.946  0.0737  0.7557 -0.0563
 2817SOL    HW1 8895   3.597   3.011   4.878 -0.7371  2.9944 -1.3090
 2817SOL    HW2 8896   3.481   2.940   4.943  0.6983  0.3902 -1.4353
 2818SOL     OW 8897   5.548   4.534   4.629  0.6200  0.5230 -0.0518
 2818SOL    HW1 8898   5.545   4.591   4.553 -2.1883  0.7189  0.1115
 2818SOL    HW2 8899   5.553   4.445   4.593 -5.4824  0.1508 -0.9801
 2819SOL     OW 8900   5.980   0.542   4.727 -0.1172  0.1201  0.4738
 2819SOL    HW1 8901   5.999   0.502   4.643  1.2307  0.7598  0.4550
 2819SOL    HW2 8902   5.964   0.467   4.786 -3.2563 -0.3171 -0.7638
 2820SOL     OW 8903   2.981   3.238   3.342  0.5263 -0.3826  0.2416
 2820SOL    HW1 8904   2.957   3.292   3.417 -1.8362 -1.6407  0.5132
 2820SOL    HW2 8905   2.962   3.148   3.371  0.7645 -0.9999 -1.4186
 2821SOL     OW 8906   0.092   6.130   3.520  0.1165  0.5305  0.2894
 2821SOL    HW1 8907   0.097   6.052   3.464  2.4181  0.5735  0.3172
 2821SOL    HW2 8908   0.002   6.161   3.510  0.0832 -0.1392 -2.4568
 2822SOL     OW 8909   5.995   2.622   3.101 -0.1668  0.1054  0.1800
 2822SOL    HW1 8910   6.055   2.691   3.131 -0.3325  0.2472  0.1900
 2822SOL    HW2 8911   6.039   2.582   3.026  0.3222 -0.3583  0.7152
 2823SOL     OW 8912   4.441   2.908   2.319  0.0583  0.2597  0.0324
 2823SOL    HW1 8913   4.488   2.832   2.354  1.2132  0.4376 -1.0493
 2823SOL    HW2 8914   4.367   2.870   2.271  1.2469 -0.3200 -1.4654
 2824SOL     OW 8915   2.270   0.379   4.250 -0.6258 -0.1014  0.0972
 2824SOL    HW1 8916   2.221   0.409   4.327 -1.4447 -1.0562 -0.0233
 2824SOL    HW2 8917   2.211   0.317   4.208 -0.6297  1.1592 -1.8864
 2825SOL     OW 8918   5.551   5.259   1.578 -0.0596  0.1654 -0.3731
 2825SOL    HW1 8919   5.642   5.251   1.606 -0.3486 -0.4582  0.3944
 2825SOL    HW2 8920   5.525   5.347   1.607  0.0382  0.0220  0.1476
 2826SOL     OW 8921   2.312   4.064   4.845 -0.3548 -0.1639  0.0091
 2826SOL    HW1 8922   2.249   4.132   4.868 -2.7720 -2.1296 -0.3892
 2826SOL    HW2 8923   2.353   4.040   4.929 -2.6028 -1.1001  0.9250
 2827SOL     OW 8924   4.307   0.872   3.568 -0.9430 -0.6352  0.7424
 2827SOL    HW1 8925   4.291   0.791   3.520 -0.3511 -0.0171 -0.5721
 2827SOL    HW2 8926   4.391   0.903   3.534 -0.1068 -0.5335  2.7517
 2828SOL     OW 8927   4.094   5.720   2.198  0.1063  0.3344 -0.3820
 2828SOL    HW1 8928   4.053   5.736   2.113 -0.1494  1.3561 -0.0778
 2828SOL    HW2 8929   4.084   5.802   2.245  1.5960  0.2693  0.0896
 2829SOL     OW 8930   3.188   2.983   5.745  0.5249  0.7234  0.1898
 2829SOL    HW1 8931   3.195   2.888   5.736  0.3539  0.7475 -0.2181
 2829SOL    HW2 8932   3.252   3.018   5.683  2.3267  0.8702  2.0207
 2830SOL     OW 8933   4.600   5.645   2.106 -0.5657  0.3635 -0.1110
 2830SOL    HW1 8934   4.626   5.716   2.165  1.1249 -1.1678  1.1242
 2830SOL    HW2 8935   4.513   5.619   2.136 -1.0633  1.6552 -0.3662
 2831SOL     OW 8936   5.381   4.698   5.582 -0.4105  0.2085 -0.2778
 2831SOL    HW1 8937   5.442   4.712   5.655 -0.7346 -0.5738  0.1551
 2831SOL    HW2 8938   5.417   4.622   5.536 -2.7585 -2.4627  1.9109
 2832SOL     OW 8939   5.026   4.455   1.894 -0.2836 -0.4701 -0.5207
 2832SOL    HW1 8940   4.956   4.465   1.830  0.3969  1.0008 -1.1015
 2832SOL    HW2 8941   5.037   4.543   1.931 -0.3363 -1.1931  1.2803
 2833SOL     OW 8942   4.768   0.131   3.946  0.4300  0.0360 -0.4265
 2833SOL    HW1 8943   4.807   0.215   3.968  1.2886 -0.1402 -1.2416
 2833SOL    HW2 8944   4.823   0.067   3.993  1.3212 -0.2303 -1.7894
 2834SOL     OW 8945   0.287   5.786   4.472  0.3533 -0.4859  0.0877
 2834SOL    HW1 8946   0.354   5.727   4.505 -0.4185 -1.9511 -0.8149
 2834SOL    HW2 8947   0.256   5.744   4.392 -0.5237  0.9648 -0.3823
 2835SOL     OW 8948   0.816   3.803   5.214  0.2213  0.3582  0.1555
 2835SOL    HW1 8949   0.907   3.833   5.223  0.6077 -0.8242  0.4406
 2835SOL    HW2 8950   0.792   3.774   5.302 -1.3158  2.9452  0.6777
 2836SOL     OW 8951   5.936   5.115   2.428  0.0743  0.2248  0.1139
 2836SOL    HW1 8952   5.916   5.051   2.497  1.2232 -0.8776 -0.5263
 2836SOL    HW2 8953   5.875   5.187   2.443  0.9481  0.4842  2.8900
 2837SOL     OW 8954   3.213   1.677   3.002  0.3988 -0.1262  0.3060
 2837SOL    HW1 8955   3.297   1.634   2.992  1.0875  1.2500 -0.0036
 2837SOL    HW2 8956   3.149   1.605   3.005  1.3765 -1.1007 -1.3714
 2838SOL     OW 8957   1.527   4.953   2.049 -0.4069  0.1014 -0.2244
 2838SOL    HW1 8958   1.565   4.985   1.967  0.5109 -0.0506  0.1323
 2838SOL    HW2 8959   1.445   4.911   2.023  0.1066 -0.3570 -1.1199
 2839SOL     OW 8960   4.631   3.135   0.085 -0.0426  0.0316 -0.5253
 2839SOL    HW1 8961   4.633   3.048   0.046  1.0742  0.2379 -0.9828
 2839SOL    HW2 8962   4.677   3.125   0.168 -0.8611 -0.0306 -0.0680
 2840SOL     OW 8963   4.438   2.873   5.189 -0.1980  0.1016  0.5933
 2840SOL    HW1 8964   4.456   2.785   5.224 -1.5422 -0.4701 -0.1033
 2840SOL    HW2 8965   4.343   2.877   5.180  0.0167  0.2067 -2.9975
 2841SOL     OW 8966   1.544   4.551   2.974  0.4170 -0.1925  0.0849
 2841SOL    HW1 8967   1.584   4.543   2.887  0.4404  0.2568  0.0484
 2841SOL    HW2 8968   1.590   4.487   3.028 -1.6915 -2.7582 -0.9449
 2842SOL     OW 8969   2.845   2.522   0.757 -0.0549  0.1619  0.3497
 2842SOL    HW1 8970   2.800   2.438   0.747  1.2354 -0.4482 -0.5364
 2842SOL    HW2 8971   2.898   2.530   0.678  0.9228  1.1501  1.0894
 2843SOL     OW 8972   4.562   3.563   2.157  0.3142 -0.1204  0.3930
 2843SOL    HW1 8973   4.546   3.579   2.250  2.5550  0.0472  0.8014
 2843SOL    HW2 8974   4.477   3.576   2.116 -0.8757 -0.8494  2.4893
 2844SOL     OW 8975   3.535   5.834   2.060  0.0454  0.8180  0.3424
 2844SOL    HW1 8976   3.500   5.800   1.978 -0.3968  1.7907  0.1165
 2844SOL    HW2 8977   3.501   5.923   2.066  2.4390  1.8146  0.1298
 2845SOL     OW 8978   1.009   5.254   4.762 -0.3926  0.5904  0.3693
 2845SOL    HW1 8979   1.058   5.173   4.745  0.1928  1.0853 -0.3621
 2845SOL    HW2 8980   0.925   5.224   4.797 -0.2743 -0.3439 -0.0986
 2846SOL     OW 8981   1.470   2.334   1.814 -0.6845 -0.2955 -0.3134
 2846SOL    HW1 8982   1.519   2.416   1.817 -0.2553 -0.5554 -0.1549
 2846SOL    HW2 8983   1.536   2.267   1.796 -0.5913 -0.9528  2.1594
 2847SOL     OW 8984   0.280   0.076   3.940 -0.0309 -0.1282  0.1417
 2847SOL    HW1 8985   0.227  -0.001   3.960  0.6565 -0.6594 -0.0314
 2847SOL    HW2 8986   0.368   0.052   3.970 -0.1233  1.2336  1.6369
 2848SOL     OW 8987   1.717   4.686   0.126  0.0420 -0.1608 -0.0351
 2848SOL    HW1 8988   1.677   4.614   0.174  0.3574 -0.6300 -0.4726
 2848SOL    HW2 8989   1.739   4.650   0.041 -2.1039  1.1265 -1.2276
 2849SOL     OW 8990   5.050   4.221   5.428 -0.0439  0.0880 -0.0894
 2849SOL    HW1 8991   5.128   4.268   5.456 -0.7075  1.3622 -0.3144
 2849SOL    HW2 8992   5.082   4.157   5.364  0.6589  1.6096 -1.3322
 2850SOL     OW 8993   5.964   6.036   3.155  0.4161  0.5691  0.2194
 2850SOL    HW1 8994   5.925   6.124   3.153 -2.7049 -0.6824 -1.4771
 2850SOL    HW2 8995   6.027   6.036   3.083  0.8263  1.5299  0.5610
 2851SOL     OW 8996   2.590   0.675   3.799 -0.2632  0.3883  0.6345
 2851SOL    HW1 8997   2.668   0.702   3.847 -0.7512 -0.1982  1.7953
 2851SOL    HW2 8998   2.595   0.580   3.796  0.3238  0.4451 -1.4963
 2852SOL     OW 8999   5.477   4.267   3.709  0.0813 -0.1831 -0.0328
 2852SOL    HW1 9000   5.567   4.269   3.677  0.6345 -0.3987  1.4574
 2852SOL    HW2 9001   5.443   4.355   3.689  0.4910 -0.2188 -0.9316
 2853SOL     OW 9002   1.898   3.009   3.363  0.5515 -0.4682 -0.1041
 2853SOL    HW1 9003   1.864   2.928   3.327  0.0380 -0.0165 -0.6572
 2853SOL    HW2 9004   1.872   3.076   3.300 -1.4279  0.5335  1.6294
 2854SOL     OW 9005   4.664   1.437   3.580  0.1178  0.3743 -0.0578
 2854SOL    HW1 9006   4.643   1.418   3.672 -1.4055 -0.6079 -0.5709
 2854SOL    HW2 9007   4.723   1.367   3.554 -1.5126 -0.9020 -0.5165
 2855SOL     OW 9008   0.899   4.545   3.629 -0.7112  0.1934  0.3664
 2855SOL    HW1 9009   0.982   4.526   3.673 -1.1123 -1.7756  0.3984
 2855SOL    HW2 9010   0.833   4.533   3.698 -1.2278 -1.4761 -0.3558
 2856SOL     OW 9011   0.834   0.070   4.967 -0.0374  0.1838  0.7580
 2856SOL    HW1 9012   0.865   0.132   5.033 -1.9741 -0.4778  2.3923
 2856SOL    HW2 9013   0.910   0.056   4.910  0.8891  2.8944  1.1715
 2857SOL     OW 9014   6.073   4.608   0.461 -0.1710 -0.6054 -0.3754
 2857SOL    HW1 9015   6.098   4.525   0.501  2.3974 -0.5570 -1.6973
 2857SOL    HW2 9016   6.110   4.674   0.520  0.7231 -0.4929 -1.0350
 2858SOL     OW 9017   3.471   4.571   4.035  0.2079 -0.4377  0.4092
 2858SOL    HW1 9018   3.431   4.557   4.121  1.8022  0.6862  1.3960
 2858SOL    HW2 9019   3.545   4.512   4.033 -0.1906 -0.9245 -0.4858
 2859SOL     OW 9020   2.274   1.322   0.993 -0.1533  0.1910  0.7166
 2859SOL    HW1 9021   2.347   1.288   1.044  0.5567  0.6337  0.0078
 2859SOL    HW2 9022   2.210   1.350   1.058  1.0092  1.3749  1.3942
 2860SOL     OW 9023   3.568   0.236   4.925 -0.2716 -0.4784  0.5291
 2860SOL    HW1 9024   3.570   0.198   5.013  0.8933 -0.1818  0.6504
 2860SOL    HW2 9025   3.657   0.269   4.912 -0.6222  0.0827 -0.5000
 2861SOL     OW 9026   3.833   1.879   1.852  0.0289  0.3745  0.5282
 2861SOL    HW1 9027   3.821   1.817   1.924  0.9917 -0.8998 -0.3641
 2861SOL    HW2 9028   3.875   1.954   1.893  0.6893 -0.3831  1.2870
 2862SOL     OW 9029   4.371   5.448   4.205 -0.5431 -0.2528  0.1456
 2862SOL    HW1 9030   4.432   5.497   4.260 -0.6788 -0.1469  0.2043
 2862SOL    HW2 9031   4.380   5.487   4.118 -0.1780 -0.5560  0.0446
 2863SOL     OW 9032   0.238   0.372   2.854  0.2138 -0.5118  0.8580
 2863SOL    HW1 9033   0.227   0.290   2.903  1.6018 -0.8737  0.6082
 2863SOL    HW2 9034   0.188   0.359   2.774  1.4607 -1.6702  0.2178
 2864SOL     OW 9035   2.308   2.691   1.899 -0.0147 -0.1668  0.0819
 2864SOL    HW1 9036   2.287   2.782   1.920 -0.3377  0.0959 -1.2827
 2864SOL    HW2 9037   2.263   2.675   1.816  0.5853 -1.3700 -0.0244
 2865SOL     OW 9038   2.825   4.086   0.609  0.1986  0.3144 -0.1117
 2865SOL    HW1 9039   2.824   4.132   0.692 -0.1773 -1.0979  0.7055
 2865SOL    HW2 9040   2.873   4.005   0.626 -1.8565 -1.1153 -0.5759
 2866SOL     OW 9041   5.299   4.928   0.110 -0.5738 -0.1162 -0.0690
 2866SOL    HW1 9042   5.374   4.987   0.107 -0.0082 -0.7598  0.9335
 2866SOL    HW2 9043   5.312   4.876   0.189 -1.2849 -1.2976 -0.6961
 2867SOL     OW 9044   0.303   2.128   2.894  0.6092  0.5342 -0.2081
 2867SOL    HW1 9045   0.360   2.071   2.843  1.0201 -0.8659  1.7195
 2867SOL    HW2 9046   0.334   2.217   2.874 -0.2915  0.2168 -3.5522
 2868SOL     OW 9047   4.840   2.088   5.672  0.1073 -0.4647  0.3073
 2868SOL    HW1 9048   4.819   2.010   5.722 -0.7457 -0.0877  0.5541
 2868SOL    HW2 9049   4.826   2.064   5.581  0.5275 -0.8039  0.3300
 2869SOL     OW 9050   4.941   4.297   4.413 -0.3751 -0.1796  0.4180
 2869SOL    HW1 9051   4.940   4.344   4.330 -0.4957  2.1982  1.6924
 2869SOL    HW2 9052   5.017   4.332   4.461 -0.4788 -1.2713  1.4403
 2870SOL     OW 9053   5.426   5.324   2.844  0.0208  0.3918 -0.1797
 2870SOL    HW1 9054   5.348   5.321   2.898 -0.5745 -2.1669 -1.0421
 2870SOL    HW2 9055   5.443   5.233   2.821  2.7371  0.9609 -0.7912
 2871SOL     OW 9056   1.572   3.350   0.335 -0.0737 -0.0901 -0.9513
 2871SOL    HW1 9057   1.530   3.305   0.408  0.4939 -0.3486 -0.7752
 2871SOL    HW2 9058   1.586   3.439   0.367  1.7789 -0.6453 -0.0491
 2872SOL     OW 9059   3.864   4.496   1.182  0.9354  0.2175  0.2308
 2872SOL    HW1 9060   3.821   4.411   1.176  0.3148  0.5014  0.5522
 2872SOL    HW2 9061   3.945   4.486   1.132  1.3515 -0.8632  1.0695
 2873SOL     OW 9062   2.400   2.007   5.033  0.3604  0.2348 -0.3004
 2873SOL    HW1 9063   2.376   1.935   5.092  0.9914 -0.4185 -0.8290
 2873SOL    HW2 9064   2.339   2.077   5.056  0.3432 -0.1374  0.8689
 2874SOL     OW 9065   0.996   0.278   5.863  0.0258 -0.1571 -0.0648
 2874SOL    HW1 9066   1.004   0.227   5.944  1.1719 -0.4050 -0.3076
 2874SOL    HW2 9067   1.015   0.368   5.890 -3.8341  0.5710  0.7243
 2875SOL     OW 9068   1.234   1.174   0.161 -0.2302 -0.3659  0.5343
 2875SOL    HW1 9069   1.311   1.118   0.161  1.6022  1.9730  1.0482
 2875SOL    HW2 9070   1.198   1.167   0.249  1.5098  1.0920  1.4292
 2876SOL     OW 9071   4.947   2.680   2.396  0.1836  0.1565 -0.1373
 2876SOL    HW1 9072   4.937   2.751   2.333  1.4353  1.4744  1.0914
 2876SOL    HW2 9073   5.002   2.616   2.352  0.6664  0.8537 -0.5562
 2877SOL     OW 9074   2.616   0.627   3.252 -0.1237 -0.2440 -0.1120
 2877SOL    HW1 9075   2.686   0.562   3.257  1.2717  1.0420 -1.8837
 2877SOL    HW2 9076   2.613   0.665   3.340  0.1527 -1.5445  0.4811
 2878SOL     OW 9077   4.985   4.257   2.432  0.7702  0.4783  0.8606
 2878SOL    HW1 9078   5.025   4.198   2.497 -1.1380 -0.5262  1.1771
 2878SOL    HW2 9079   5.006   4.216   2.348 -0.2637 -0.5161  1.0635
 2879SOL     OW 9080   0.264   5.815   3.600 -0.2195  0.2765 -0.1134
 2879SOL    HW1 9081   0.206   5.875   3.647 -0.5192 -0.9918  1.2122
 2879SOL    HW2 9082   0.216   5.732   3.599  0.7062 -0.2646 -0.8260
 2880SOL     OW 9083   2.609   3.088   1.260 -0.6461  0.0651  0.1862
 2880SOL    HW1 9084   2.702   3.109   1.249 -0.7079 -1.0009 -3.9476
 2880SOL    HW2 9085   2.609   3.010   1.316  1.2658 -1.5381 -1.8738
 2881SOL     OW 9086   4.806   2.325   1.872 -0.3331 -0.1440  0.7652
 2881SOL    HW1 9087   4.826   2.249   1.925  0.4124  0.8349  1.9482
 2881SOL    HW2 9088   4.712   2.322   1.859 -0.1834 -1.9060 -0.2683
 2882SOL     OW 9089   3.307   3.301   0.955  0.6783 -0.1388 -0.6914
 2882SOL    HW1 9090   3.264   3.369   0.903 -0.2491  0.3165  0.6068
 2882SOL    HW2 9091   3.242   3.276   1.021  1.8555 -0.5400  0.3720
 2883SOL     OW 9092   1.547   2.850   5.916  0.6656 -0.3651  0.3778
 2883SOL    HW1 9093   1.592   2.779   5.962 -1.0925 -1.1172  1.0117
 2883SOL    HW2 9094   1.471   2.870   5.970 -0.2528  0.2536 -1.0705
 2884SOL     OW 9095   3.285   5.077   0.703  0.4370 -0.1686 -0.1399
 2884SOL    HW1 9096   3.218   5.077   0.772  0.8775  0.3568  0.2967
 2884SOL    HW2 9097   3.366   5.054   0.748  1.1647  2.3760 -0.0180
 2885SOL     OW 9098   3.148   4.797   2.887  0.2637  0.1243 -0.2616
 2885SOL    HW1 9099   3.055   4.819   2.898  0.2774 -0.8808  3.2520
 2885SOL    HW2 9100   3.152   4.702   2.895  1.4733 -0.0180 -2.0989
 2886SOL     OW 9101   2.672   0.471   5.690 -0.0811  0.5975  0.0807
 2886SOL    HW1 9102   2.767   0.466   5.675  0.1129  0.5992  1.2520
 2886SOL    HW2 9103   2.657   0.560   5.720 -0.2384  0.2005  1.2360
 2887SOL     OW 9104   0.780   5.716   5.516  0.2663  0.0416  0.3126
 2887SOL    HW1 9105   0.824   5.801   5.524  1.1377 -0.1729 -1.6609
 2887SOL    HW2 9106   0.695   5.738   5.477  0.5138  0.0024 -0.2492
 2888SOL     OW 9107   0.427   1.894   5.944  0.1581  0.3053 -0.7355
 2888SOL    HW1 9108   0.378   1.884   5.862 -2.3072  0.6213  0.6033
 2888SOL    HW2 9109   0.444   1.805   5.974  0.4089  0.1939 -1.2007
 2889SOL     OW 9110   3.181   2.669   2.024 -0.1021 -0.1417 -0.3383
 2889SOL    HW1 9111   3.142   2.622   1.951 -2.2200  0.7089  0.1722
 2889SOL    HW2 9112   3.155   2.761   2.010 -0.9512 -0.0185  1.6539
 2890SOL     OW 9113   5.692   2.569   3.844  0.0113  0.1864  0.3847
 2890SOL    HW1 9114   5.614   2.560   3.900  0.3335 -1.4600  0.6349
 2890SOL    HW2 9115   5.684   2.497   3.781 -0.0642  1.6870 -1.3819
 2891SOL     OW 9116   2.376   0.022   2.729 -0.1260 -0.7524 -1.0203
 2891SOL    HW1 9117   2.364   0.092   2.793  1.4057 -1.4368  0.0772
 2891SOL    HW2 9118   2.372  -0.059   2.780  0.7819 -1.3303 -1.8235
 2892SOL     OW 9119   2.554   1.886   2.256 -0.2601 -0.2420 -0.3816
 2892SOL    HW1 9120   2.637   1.932   2.270  0.5511 -1.9419  0.7550
 2892SOL    HW2 9121   2.500   1.913   2.330 -0.2306 -0.1761 -0.3832
 2893SOL     OW 9122   3.691   0.474   1.932  0.8208 -0.0104 -0.2793
 2893SOL    HW1 9123   3.711   0.425   2.012 -0.3252 -1.3353 -0.7543
 2893SOL    HW2 9124   3.723   0.563   1.949  1.2655 -0.4518  1.3485
 2894SOL     OW 9125   4.972   6.100   1.827 -0.1849 -0.2749 -0.3896
 2894SOL    HW1 9126   5.029   6.042   1.877 -0.6932  0.9110  1.6762
 2894SOL    HW2 9127   4.886   6.090   1.867 -0.4486  1.2827 -0.5165
 2895SOL     OW 9128   5.368   2.568   4.350  0.0436 -0.2233 -0.1553
 2895SOL    HW1 9129   5.350   2.651   4.305 -0.0422  1.0165  2.0502
 2895SOL    HW2 9130   5.309   2.567   4.424 -0.3547 -2.5786 -0.4242
 2896SOL     OW 9131   1.613   5.510   5.311  0.1190 -0.3195  0.5432
 2896SOL    HW1 9132   1.543   5.522   5.246  0.7373  0.1642 -0.0503
 2896SOL    HW2 9133   1.673   5.583   5.294 -0.3542  0.5946  2.5070
 2897SOL     OW 9134   0.662   5.363   4.147 -0.2050  0.3738 -0.2498
 2897SOL    HW1 9135   0.748   5.373   4.105 -0.9960  0.7214 -1.8639
 2897SOL    HW2 9136   0.650   5.445   4.195  1.0415 -0.3329  1.3776
 2898SOL     OW 9137   2.036   1.238   4.468 -0.3380  0.1525  0.4029
 2898SOL    HW1 9138   1.949   1.217   4.434 -0.3229  0.6498  0.0347
 2898SOL    HW2 9139   2.045   1.186   4.548 -0.6058 -0.6031 -0.0508
 2899SOL     OW 9140   0.305   3.171   3.232  0.1436 -0.9122  0.1452
 2899SOL    HW1 9141   0.397   3.145   3.244  0.7202  0.7290 -0.3867
 2899SOL    HW2 9142   0.277   3.201   3.318 -0.3140 -2.5621  0.6023
 2900SOL     OW 9143   2.984   2.927   3.428  1.0252  0.2117  0.4428
 2900SOL    HW1 9144   3.073   2.952   3.403  0.5621  0.5160 -1.0169
 2900SOL    HW2 9145   2.979   2.833   3.412  0.6744  0.4384 -0.8547
 2901SOL     OW 9146   4.213   1.766   3.480  0.5134 -0.1670 -0.0412
 2901SOL    HW1 9147   4.306   1.773   3.457  0.2469 -0.8208 -1.4696
 2901SOL    HW2 9148   4.204   1.679   3.518  0.6910  0.3700  1.2699
 2902SOL     OW 9149   5.470   0.313   4.262 -0.0948 -0.1632  0.4278
 2902SOL    HW1 9150   5.434   0.274   4.341  0.8977 -0.6494  0.6627
 2902SOL    HW2 9151   5.478   0.240   4.201  0.3210 -0.0389  0.3286
 2903SOL     OW 9152   5.232   3.040   5.896 -0.4285  0.3335  0.5401
 2903SOL    HW1 9153   5.251   3.133   5.885 -2.1284  0.5266 -1.2746
 2903SOL    HW2 9154   5.312   2.995   5.870 -0.7156  1.2217 -2.1371
 2904SOL     OW 9155   2.943   4.669   2.671 -0.5012  0.0532  0.2085
 2904SOL    HW1 9156   2.990   4.630   2.745 -1.4098  0.1713  0.8689
 2904SOL    HW2 9157   2.956   4.607   2.599 -1.8069 -1.4569  1.1976
 2905SOL     OW 9158   1.112   3.262   0.931  0.0305  0.1021  0.6283
 2905SOL    HW1 9159   1.150   3.181   0.895 -0.1800 -1.0520  2.8772
 2905SOL    HW2 9160   1.187   3.320   0.940  0.3754 -0.2335  0.0503
 2906SOL     OW 9161   3.208   2.004   3.454  0.8015 -0.9407 -0.0430
 2906SOL    HW1 9162   3.237   1.938   3.390 -0.4103  0.6483 -2.4057
 2906SOL    HW2 9163   3.127   1.968   3.490 -0.9601 -0.0293 -2.7952
 2907SOL     OW 9164   0.571   2.508   2.312  0.5959 -0.4981 -0.2150
 2907SOL    HW1 9165   0.620   2.509   2.230  2.1347  1.8149  0.6344
 2907SOL    HW2 9166   0.592   2.423   2.351  0.3483 -1.3629 -1.8834
 2908SOL     OW 9167   0.684   3.894   4.730  0.6829 -0.2738 -0.0218
 2908SOL    HW1 9168   0.731   3.905   4.813  1.3746 -1.5754 -0.2198
 2908SOL    HW2 9169   0.751   3.910   4.663  0.6048 -1.1238 -0.3107
 2909SOL     OW 9170   5.065   5.615   5.827  0.2679 -0.4632 -0.3089
 2909SOL    HW1 9171   4.993   5.673   5.800  0.7447  1.3097  1.9134
 2909SOL    HW2 9172   5.058   5.612   5.922  2.1722 -1.5971 -0.1622
 2910SOL     OW 9173   2.949   3.109   5.747 -0.2761  0.4695 -0.7802
 2910SOL    HW1 9174   3.036   3.069   5.743 -0.0486  0.8195  0.4110
 2910SOL    HW2 9175   2.890   3.042   5.711 -0.0249 -1.3159  1.8658
 2911SOL     OW 9176   3.030   4.918   2.353 -0.2832  0.0619 -0.2716
 2911SOL    HW1 9177   3.096   4.862   2.311 -0.4888 -0.0165 -0.4993
 2911SOL    HW2 9178   3.052   5.006   2.324 -1.2381 -0.1207 -1.7138
 2912SOL     OW 9179   4.992   6.059   4.017  0.0581  0.2297 -0.0929
 2912SOL    HW1 9180   4.989   6.089   4.108  2.3563  0.3075  0.0133
 2912SOL    HW2 9181   4.982   5.964   4.023 -1.2771  0.3572  0.0768
 2913SOL     OW 9182   4.352   1.097   2.847  0.1895  0.7071 -0.3020
 2913SOL    HW1 9183   4.436   1.066   2.881  0.2252  1.2834  0.1528
 2913SOL    HW2 9184   4.357   1.192   2.854 -0.4564  0.7524 -0.3946
 2914SOL     OW 9185   1.124   1.538   0.929 -0.0144  0.1798 -0.1470
 2914SOL    HW1 9186   1.047   1.482   0.920  0.5543 -0.8049  0.9276
 2914SOL    HW2 9187   1.100   1.619   0.882 -0.4343 -1.3283 -2.7488
 2915SOL     OW 9188   5.213   2.385   0.482  0.0927 -0.4755  0.5889
 2915SOL    HW1 9189   5.210   2.387   0.577  2.3454  0.3542  0.6813
 2915SOL    HW2 9190   5.293   2.337   0.461  0.1723  0.2461 -0.8833
 2916SOL     OW 9191   4.436   0.618   2.841  0.1421  0.0063 -0.2274
 2916SOL    HW1 9192   4.521   0.606   2.800 -0.2741 -1.0535 -0.8146
 2916SOL    HW2 9193   4.377   0.561   2.792 -0.6323 -0.2952  1.0087
 2917SOL     OW 9194   5.886   5.963   1.156  1.0121  0.5934  0.0025
 2917SOL    HW1 9195   5.930   5.886   1.191 -1.0397 -0.1940  0.9945
 2917SOL    HW2 9196   5.802   5.931   1.125  0.1171  2.4146  0.4178
 2918SOL     OW 9197   1.787   5.199   1.748 -0.3308 -0.1584 -0.1125
 2918SOL    HW1 9198   1.841   5.224   1.823  0.5955  0.0778 -0.8254
 2918SOL    HW2 9199   1.804   5.267   1.683 -2.4859  0.6157  0.0647
 2919SOL     OW 9200   3.788   4.835   2.267 -0.0768  0.2795 -0.4128
 2919SOL    HW1 9201   3.883   4.838   2.282 -0.1108 -1.0705  0.2272
 2919SOL    HW2 9202   3.757   4.922   2.293  0.8466  0.3570  0.5108
 2920SOL     OW 9203   2.591   0.245   5.080 -0.2304 -0.4537  0.3803
 2920SOL    HW1 9204   2.681   0.258   5.109 -0.7402  0.5758  1.6082
 2920SOL    HW2 9205   2.549   0.198   5.152 -0.5512 -1.4095 -0.4169
 2921SOL     OW 9206   3.305   0.141   0.350 -0.2257 -0.0915 -0.4455
 2921SOL    HW1 9207   3.238   0.091   0.304  0.3120 -1.2833  0.0027
 2921SOL    HW2 9208   3.331   0.084   0.423  2.3109 -0.3654 -1.4355
 2922SOL     OW 9209   2.214   1.496   3.434 -0.4365 -0.4252 -0.4797
 2922SOL    HW1 9210   2.244   1.584   3.409 -1.7574  0.1850 -0.0413
 2922SOL    HW2 9211   2.203   1.501   3.529  1.7279 -1.8207 -0.0958
 2923SOL     OW 9212   3.386   5.175   5.012  0.8647  0.3678  0.4240
 2923SOL    HW1 9213   3.435   5.130   4.943 -0.1975 -0.8982  0.4510
 2923SOL    HW2 9214   3.295   5.147   4.998  0.4145  1.2839  1.4319
 2924SOL     OW 9215   5.982   4.218   5.923 -0.0940  0.4641 -0.2040
 2924SOL    HW1 9216   5.934   4.139   5.896 -1.1579  0.7451  0.7775
 2924SOL    HW2 9217   5.924   4.260   5.986  0.8262  1.6123 -0.1046
 2925SOL     OW 9218   0.145   4.502   2.219  0.1173  0.0955  0.4055
 2925SOL    HW1 9219   0.093   4.432   2.181 -1.3183  1.0818  0.4893
 2925SOL    HW2 9220   0.102   4.523   2.302  0.0777  1.5722  0.0339
 2926SOL     OW 9221   3.837   0.581   3.539 -0.7164 -0.1226 -0.0304
 2926SOL    HW1 9222   3.924   0.561   3.572 -0.9955 -0.4404  0.5228
 2926SOL    HW2 9223   3.815   0.665   3.580  0.1295  0.9985 -1.7306
 2927SOL     OW 9224   0.799   0.089   1.526 -0.1976 -0.2656  0.2216
 2927SOL    HW1 9225   0.710   0.124   1.523 -0.1714 -0.2360 -0.3602
 2927SOL    HW2 9226   0.839   0.118   1.443  0.2983 -0.4199  0.4026
 2928SOL     OW 9227   5.946   0.812   4.596 -0.2465  0.4359 -0.4739
 2928SOL    HW1 9228   5.994   0.732   4.619 -0.7245  0.4958  0.8480
 2928SOL    HW2 9229   5.961   0.871   4.670 -1.4319  0.8567 -0.5400
 2929SOL     OW 9230   2.071   1.071   3.851  0.1083  0.1186 -0.3670
 2929SOL    HW1 9231   2.109   1.128   3.783 -1.3790  2.7294  0.8187
 2929SOL    HW2 9232   2.071   1.125   3.930 -1.1697 -1.6670  0.9331
 2930SOL     OW 9233   4.548   4.671   3.320  0.1363  0.0413  0.0381
 2930SOL    HW1 9234   4.508   4.683   3.407  0.1312 -1.5001  0.2687
 2930SOL    HW2 9235   4.510   4.741   3.267 -0.1293  0.7952  1.1807
 2931SOL     OW 9236   4.952   5.664   6.074 -0.4592  0.7238 -0.0820
 2931SOL    HW1 9237   4.864   5.670   6.035 -0.3464  3.0014 -0.1337
 2931SOL    HW2 9238   4.939   5.615   6.155 -1.6787  0.5589 -0.3533
 2932SOL     OW 9239   0.588   2.268   2.455  0.2710 -0.2414  0.1744
 2932SOL    HW1 9240   0.570   2.196   2.395 -1.1252  0.2854 -0.0750
 2932SOL    HW2 9241   0.652   2.233   2.517 -1.2108 -2.0625  0.7495
 2933SOL     OW 9242   1.385   2.385   4.274 -0.4769  0.4954  0.5703
 2933SOL    HW1 9243   1.311   2.418   4.223  0.9128  1.5112 -0.9226
 2933SOL    HW2 9244   1.402   2.452   4.339  1.3430  2.1733 -1.4477
 2934SOL     OW 9245   2.637   5.085   2.862  0.1022  0.3013  0.1414
 2934SOL    HW1 9246   2.547   5.110   2.845  0.7340  1.2539 -2.1156
 2934SOL    HW2 9247   2.633   4.992   2.885 -1.2355 -0.4954 -2.8458
 2935SOL     OW 9248   2.986   4.295   1.844 -0.1560  0.7145 -0.3179
 2935SOL    HW1 9249   2.975   4.322   1.935  1.5760  0.8549 -0.1121
 2935SOL    HW2 9250   3.081   4.291   1.832 -0.3479  1.1633 -2.2568
 2936SOL     OW 9251   1.350   3.323   5.481 -0.0689  0.3893 -0.2681
 2936SOL    HW1 9252   1.306   3.273   5.413  1.3852  0.7077 -1.4844
 2936SOL    HW2 9253   1.377   3.404   5.438  0.2779  0.9012  0.8652
 2937SOL     OW 9254   0.247   0.989   0.937 -0.6462 -0.0992  0.0539
 2937SOL    HW1 9255   0.188   1.048   0.892 -0.5858  0.6823  0.9788
 2937SOL    HW2 9256   0.231   1.004   1.030  0.2327 -0.6616  0.3127
 2938SOL     OW 9257   1.096   3.286   2.502 -0.8555  0.1005  0.0116
 2938SOL    HW1 9258   1.045   3.270   2.581 -0.7329  0.8659  0.2539
 2938SOL    HW2 9259   1.037   3.334   2.444 -0.4182  1.0449  0.3160
 2939SOL     OW 9260   3.696   4.069   4.285  0.2904  0.0787 -0.7418
 2939SOL    HW1 9261   3.666   4.156   4.259 -0.5282 -0.0127 -0.1327
 2939SOL    HW2 9262   3.778   4.086   4.331 -0.5744  0.6958  0.6456
 2940SOL     OW 9263   0.846   2.675   4.517 -0.0763 -0.3433  0.1640
 2940SOL    HW1 9264   0.929   2.721   4.511 -0.5928  0.6165  0.1519
 2940SOL    HW2 9265   0.829   2.644   4.428  0.0667 -0.1740  0.0779
 2941SOL     OW 9266   0.341   3.979   0.657  0.7759  0.2500 -0.1454
 2941SOL    HW1 9267   0.374   3.903   0.610 -2.0632 -1.5926  0.6162
 2941SOL    HW2 9268   0.300   4.033   0.589  0.6448 -0.1382 -0.3775
 2942SOL     OW 9269   2.143   5.221   2.341  0.6169 -0.3330 -0.0429
 2942SOL    HW1 9270   2.109   5.252   2.257  0.9223  0.2624  0.0517
 2942SOL    HW2 9271   2.209   5.156   2.317 -0.0364 -0.9468 -0.2386
 2943SOL     OW 9272   5.689   2.792   2.243 -0.1790 -0.4707 -0.4419
 2943SOL    HW1 9273   5.709   2.810   2.151  2.4701 -1.7266 -0.2036
 2943SOL    HW2 9274   5.717   2.871   2.290 -1.3129  0.0766 -0.6576
 2944SOL     OW 9275   6.075   4.384   4.823 -0.1598  0.2936 -0.5465
 2944SOL    HW1 9276   6.158   4.336   4.815 -0.8350 -0.8123 -1.2642
 2944SOL    HW2 9277   6.055   4.381   4.917  0.6994  0.7524 -0.3338
 2945SOL     OW 9278   3.395   3.608   2.243  0.2198  0.3145 -0.3761
 2945SOL    HW1 9279   3.477   3.559   2.241 -1.0054 -1.8173 -0.4810
 2945SOL    HW2 9280   3.332   3.549   2.285 -1.7645  1.0979 -2.0921
 2946SOL     OW 9281   4.645   3.409   1.372 -0.1401  0.2386 -0.0146
 2946SOL    HW1 9282   4.586   3.342   1.338 -0.1080 -0.9082  2.0770
 2946SOL    HW2 9283   4.730   3.388   1.333 -0.2433 -0.6164  0.2103
 2947SOL     OW 9284   5.300   1.527   1.447 -0.4831 -0.1751 -0.2160
 2947SOL    HW1 9285   5.247   1.532   1.368  0.8745  0.5938 -1.1000
 2947SOL    HW2 9286   5.344   1.442   1.441  0.7582  0.4961 -1.0672
 2948SOL     OW 9287   4.075   0.827   0.109 -0.0894 -0.4132  0.3500
 2948SOL    HW1 9288   4.078   0.858   0.018 -1.0187  0.4869  0.6040
 2948SOL    HW2 9289   4.093   0.905   0.161  0.4611 -0.9328  0.9367
 2949SOL     OW 9290   0.450   0.756   4.107  0.7559  0.0529  0.2792
 2949SOL    HW1 9291   0.355   0.761   4.115  0.6378  0.0695 -0.9767
 2949SOL    HW2 9292   0.468   0.662   4.098  0.8903  0.0221  0.8585
 2950SOL     OW 9293   3.327   0.315   0.089  0.1458 -0.3588 -0.5926
 2950SOL    HW1 9294   3.341   0.224   0.113  2.3546 -0.5449 -2.2247
 2950SOL    HW2 9295   3.265   0.349   0.154  0.7853 -2.4698  1.2221
 2951SOL     OW 9296   2.983   3.491   2.080  0.1713 -0.2717 -0.1478
 2951SOL    HW1 9297   3.023   3.440   2.010  0.0341  1.6184 -1.6875
 2951SOL    HW2 9298   2.898   3.519   2.045 -0.5609 -0.4886  1.3567
 2952SOL     OW 9299   2.644   3.582   5.251 -0.1284 -0.0874  0.0402
 2952SOL    HW1 9300   2.559   3.602   5.213 -0.3356 -1.3287 -0.2058
 2952SOL    HW2 9301   2.698   3.555   5.176 -0.2327 -1.5673  0.4564
 2953SOL     OW 9302   2.082   4.619   4.758  0.1982  0.0036  0.2766
 2953SOL    HW1 9303   2.116   4.542   4.713 -0.3570  1.3434 -2.6849
 2953SOL    HW2 9304   2.155   4.679   4.761 -0.4400  0.9635 -1.5144
 2954SOL     OW 9305   3.980   0.190   5.409  0.2873  0.1918 -0.0952
 2954SOL    HW1 9306   4.015   0.224   5.327 -1.3311  0.1933 -0.8318
 2954SOL    HW2 9307   3.977   0.095   5.396 -0.1145  0.2041 -0.1082
 2955SOL     OW 9308   1.895   1.432   0.535  0.5284 -0.0702 -0.0177
 2955SOL    HW1 9309   1.855   1.438   0.449  3.3570  0.8016 -1.3970
 2955SOL    HW2 9310   1.935   1.518   0.549  0.5729 -0.3672  1.9654
 2956SOL     OW 9311   4.369   2.396   1.286  0.3846 -0.2343 -0.3509
 2956SOL    HW1 9312   4.415   2.349   1.356 -0.6274 -0.9665 -0.1523
 2956SOL    HW2 9313   4.410   2.482   1.284  1.7440 -0.8521 -0.1720
 2957SOL     OW 9314   0.485   1.587   1.083 -0.7063 -0.2461  0.0362
 2957SOL    HW1 9315   0.578   1.581   1.062 -0.9413  2.3642 -2.2550
 2957SOL    HW2 9316   0.444   1.523   1.025 -0.4737 -0.3107 -0.0605
 2958SOL     OW 9317   4.016   1.172   1.655 -0.7270  0.4519  0.5377
 2958SOL    HW1 9318   4.035   1.119   1.577 -0.9550  0.5962  0.3827
 2958SOL    HW2 9319   3.923   1.193   1.647 -0.2918  2.2377 -0.2386
 2959SOL     OW 9320   2.455   5.504   5.459  0.6269  0.1792  0.3353
 2959SOL    HW1 9321   2.414   5.421   5.482  1.2339 -0.2241 -0.0229
 2959SOL    HW2 9322   2.548   5.491   5.475  0.7658  0.6916 -0.0067
 2960SOL     OW 9323   4.754   5.935   0.030  0.7659  0.4486  0.2569
 2960SOL    HW1 9324   4.757   6.027   0.057 -0.7879  1.0049 -1.3293
 2960SOL    HW2 9325   4.800   5.933  -0.054 -1.0293  0.2082 -0.7618
 2961SOL     OW 9326   1.055   0.089   4.605 -0.0483  0.6506  0.2777
 2961SOL    HW1 9327   1.122   0.154   4.584  0.7583  0.9389  3.2323
 2961SOL    HW2 9328   0.973   0.138   4.600 -0.0342  0.5462 -2.3896
 2962SOL     OW 9329   0.708   1.348   6.029 -0.4888 -0.0995  0.6752
 2962SOL    HW1 9330   0.763   1.271   6.013  2.1397  1.9181 -0.7202
 2962SOL    HW2 9331   0.652   1.353   5.951  0.9021  0.5616 -0.3360
 2963SOL     OW 9332   2.619   1.615   5.904  0.5084 -0.0339 -0.4177
 2963SOL    HW1 9333   2.657   1.689   5.951  1.9039 -0.6673 -0.4873
 2963SOL    HW2 9334   2.656   1.621   5.816  0.5566 -0.7479 -0.4522
 2964SOL     OW 9335   0.894   3.142   2.151  0.0567 -0.6763  0.0152
 2964SOL    HW1 9336   0.882   3.092   2.232 -1.5856 -1.2943 -0.5665
 2964SOL    HW2 9337   0.822   3.205   2.151 -0.0453 -0.7687 -0.9908
 2965SOL     OW 9338   2.932   3.493   2.375  0.1560 -0.1339  0.5871
 2965SOL    HW1 9339   2.918   3.505   2.282 -2.1458 -2.5261  0.5159
 2965SOL    HW2 9340   2.887   3.567   2.416  0.8758  0.7299 -0.1355
 2966SOL     OW 9341   4.970   2.187   0.536 -0.0241  0.1261 -0.8837
 2966SOL    HW1 9342   4.988   2.178   0.443 -0.2490 -0.9826 -0.8327
 2966SOL    HW2 9343   5.055   2.208   0.575  0.3289 -0.7186 -1.1816
 2967SOL     OW 9344   4.449   3.908   2.046  0.6477  0.2490 -0.0045
 2967SOL    HW1 9345   4.354   3.918   2.052  0.5181 -0.5460 -0.6398
 2967SOL    HW2 9346   4.476   3.886   2.136  0.7236  3.9887  1.0704
 2968SOL     OW 9347   1.615   4.689   1.342  0.3990  0.3525  0.6299
 2968SOL    HW1 9348   1.710   4.697   1.327  0.4508 -0.7394  0.3235
 2968SOL    HW2 9349   1.581   4.651   1.261 -0.7823  3.5064 -0.5023
 2969SOL     OW 9350   3.904   3.366   3.765  0.1765 -0.2291 -0.1438
 2969SOL    HW1 9351   3.869   3.446   3.804 -1.4795 -0.6750 -0.6171
 2969SOL    HW2 9352   3.876   3.296   3.824 -0.1381 -0.6462 -0.7722
 2970SOL     OW 9353   4.219   0.332   2.008  0.9618 -0.3039 -0.3143
 2970SOL    HW1 9354   4.279   0.286   2.067  1.7869  1.7806  0.5586
 2970SOL    HW2 9355   4.277   0.382   1.950  0.1141  1.4655  0.3059
 2971SOL     OW 9356   4.477   2.765   2.031 -0.6380  0.1606 -0.3503
 2971SOL    HW1 9357   4.407   2.793   1.973  0.4674  0.4428 -1.5881
 2971SOL    HW2 9358   4.532   2.843   2.042  0.3294 -0.4596 -0.6571
 2972SOL     OW 9359   3.834   3.266   1.928  0.2675  0.4111  0.2660
 2972SOL    HW1 9360   3.756   3.213   1.943  0.3470 -0.7375 -2.6510
 2972SOL    HW2 9361   3.900   3.230   1.986 -0.7823 -0.0148  1.2316
 2973SOL     OW 9362   5.801   1.960   6.019  0.5131  0.2422  0.0690
 2973SOL    HW1 9363   5.857   2.036   6.009 -1.0302  1.6096  1.3632
 2973SOL    HW2 9364   5.759   1.949   5.934  1.4322  0.2371 -0.3946
 2974SOL     OW 9365   1.208   2.111   2.868  0.2077  0.0953  0.1520
 2974SOL    HW1 9366   1.132   2.161   2.898 -1.3360 -0.8028 -1.9999
 2974SOL    HW2 9367   1.241   2.160   2.792  0.7496 -0.4216  0.0448
 2975SOL     OW 9368   3.758   4.077   1.596  0.2218 -0.2356  0.2835
 2975SOL    HW1 9369   3.777   4.148   1.536 -0.7818  0.6264  0.9578
 2975SOL    HW2 9370   3.808   4.002   1.561 -0.4636  0.1721 -1.7111
 2976SOL     OW 9371   0.023   1.970   2.468  0.1370 -0.7132 -0.2316
 2976SOL    HW1 9372  -0.068   1.990   2.491  0.2043  0.1404 -0.6571
 2976SOL    HW2 9373   0.065   2.055   2.459  0.3640 -1.0008 -2.4703
 2977SOL     OW 9374   2.453   1.577   1.981 -0.1602 -0.3286  0.5384
 2977SOL    HW1 9375   2.440   1.483   1.967  0.7161 -0.5386  1.0907
 2977SOL    HW2 9376   2.366   1.615   1.968 -0.1057 -0.9165 -1.9581
 2978SOL     OW 9377   3.614   3.327   4.790 -0.1189  0.4814 -0.1358
 2978SOL    HW1 9378   3.701   3.308   4.824 -0.0564 -0.1935 -0.6419
 2978SOL    HW2 9379   3.629   3.374   4.709 -0.1955 -0.2021 -0.5604
 2979SOL     OW 9380   3.221   5.857   2.624  0.1603  0.6457  0.3862
 2979SOL    HW1 9381   3.136   5.846   2.582  0.5055 -0.9008  0.0498
 2979SOL    HW2 9382   3.284   5.817   2.564  0.9427  0.4796  1.2829
 2980SOL     OW 9383   3.416   4.803   1.539 -0.3191  0.2685 -0.1089
 2980SOL    HW1 9384   3.450   4.723   1.497 -1.1063 -1.3110  2.0622
 2980SOL    HW2 9385   3.495   4.850   1.566  0.1607 -0.2679 -0.5270
 2981SOL     OW 9386   1.996   1.686   0.570 -0.3728 -0.2119 -0.1089
 2981SOL    HW1 9387   1.982   1.771   0.526 -2.2503 -0.0425  0.7392
 2981SOL    HW2 9388   2.090   1.685   0.589 -0.3705  1.8781  0.2494
 2982SOL     OW 9389   3.462   3.010   1.494 -0.4607  0.3150 -0.0463
 2982SOL    HW1 9390   3.545   2.969   1.466 -1.3977 -0.5443 -1.7214
 2982SOL    HW2 9391   3.474   3.027   1.587  1.2091 -0.7762 -0.0196
 2983SOL     OW 9392   2.090   3.529   0.522  0.2338  0.2077 -0.3803
 2983SOL    HW1 9393   2.067   3.466   0.453  0.2379  1.4702 -1.5653
 2983SOL    HW2 9394   2.176   3.500   0.554  0.2113 -0.4116 -0.8654
 2984SOL     OW 9395   1.185   4.655   1.743  0.6655  0.1148  0.0993
 2984SOL    HW1 9396   1.242   4.731   1.753  1.8710 -0.7013 -0.3492
 2984SOL    HW2 9397   1.168   4.650   1.649  1.2584 -0.6320  0.0243
 2985SOL     OW 9398   0.585   3.407   4.208 -0.1138 -0.1895  0.7444
 2985SOL    HW1 9399   0.676   3.385   4.226  0.3793 -0.2745 -1.5707
 2985SOL    HW2 9400   0.560   3.465   4.280  2.2843  1.1321  0.6120
 2986SOL     OW 9401   0.962   4.917   0.793  0.1261  0.3488  0.4210
 2986SOL    HW1 9402   0.873   4.937   0.822 -0.1666 -0.6472  0.2630
 2986SOL    HW2 9403   0.965   4.821   0.790  0.4082  0.3510 -1.9458
 2987SOL     OW 9404   0.973   0.359   2.443 -0.0268  0.1040 -0.3095
 2987SOL    HW1 9405   0.986   0.410   2.523  2.4895 -0.6275 -0.1658
 2987SOL    HW2 9406   0.946   0.273   2.473 -0.1155  0.1239 -0.3295
 2988SOL     OW 9407   2.063   0.304   1.105  0.1106  0.1351 -0.1853
 2988SOL    HW1 9408   2.068   0.392   1.142 -1.3271 -0.1160  0.6899
 2988SOL    HW2 9409   1.973   0.276   1.121 -0.1321 -0.6346 -2.5058
 2989SOL     OW 9410   5.571   1.485   5.406 -0.0957  0.0454  0.1409
 2989SOL    HW1 9411   5.595   1.421   5.473  0.1016  0.3375  0.3533
 2989SOL    HW2 9412   5.580   1.570   5.450 -1.4768  0.1743  0.2194
 2990SOL     OW 9413   1.130   5.339   5.864  0.5516  0.0203  0.3934
 2990SOL    HW1 9414   1.106   5.338   5.957  0.2128 -1.7656  0.3164
 2990SOL    HW2 9415   1.222   5.365   5.863  0.8044 -0.7919  1.2990
 2991SOL     OW 9416   5.423   2.208   2.835  0.7358  0.0518 -0.0508
 2991SOL    HW1 9417   5.384   2.295   2.826 -1.2352 -0.8902 -1.3856
 2991SOL    HW2 9418   5.474   2.196   2.755 -0.0581 -0.4850 -0.4906
 2992SOL     OW 9419   2.322   0.242   4.845  0.1943 -0.5664 -0.0981
 2992SOL    HW1 9420   2.349   0.180   4.913  1.7064 -0.4979 -0.6064
 2992SOL    HW2 9421   2.383   0.227   4.773  0.3094  1.1982 -0.4177
 2993SOL     OW 9422   1.776   2.727   5.548  0.0592 -0.9261  0.4946
 2993SOL    HW1 9423   1.828   2.675   5.487 -1.8518 -1.8323 -0.4432
 2993SOL    HW2 9424   1.840   2.781   5.594  1.6512 -0.8098 -1.7208
 2994SOL     OW 9425   5.004   3.528   3.468 -0.0282  0.1827  0.0875
 2994SOL    HW1 9426   4.927   3.583   3.456 -0.5612 -0.3336  1.0047
 2994SOL    HW2 9427   5.078   3.589   3.463 -0.4533  0.6085 -1.2636
 2995SOL     OW 9428   4.005   4.035   5.760 -0.0561 -0.1481 -0.5448
 2995SOL    HW1 9429   4.005   4.061   5.668 -0.6969 -1.3068 -0.8854
 2995SOL    HW2 9430   4.093   4.057   5.791 -0.0395  0.8452 -1.2483
 2996SOL     OW 9431   6.033   4.275   5.544 -0.1237 -0.3068  0.0188
 2996SOL    HW1 9432   5.994   4.194   5.578 -1.2243 -1.1422 -2.9304
 2996SOL    HW2 9433   6.118   4.249   5.509 -1.0230 -0.5367 -2.1105
 2997SOL     OW 9434   4.763   0.355   3.060  0.1723 -0.0737 -0.7240
 2997SOL    HW1 9435   4.670   0.350   3.080  0.0936 -0.3942 -1.1827
 2997SOL    HW2 9436   4.792   0.264   3.052  0.4008  0.0308 -1.1456
 2998SOL     OW 9437   1.951   3.849   0.961 -0.7206 -0.0673  0.0447
 2998SOL    HW1 9438   1.879   3.861   0.899 -0.8181 -1.3542 -0.1086
 2998SOL    HW2 9439   2.014   3.793   0.915  0.1882  0.6805  0.3385
 2999SOL     OW 9440   3.873   1.592   5.629  0.0528  0.2838  0.4262
 2999SOL    HW1 9441   3.860   1.515   5.574 -0.8358  1.1032 -0.5412
 2999SOL    HW2 9442   3.961   1.581   5.665  0.5920 -0.3498 -1.0396
 3000SOL     OW 9443   0.428   5.563   0.570 -0.1349 -0.0770 -0.4303
 3000SOL    HW1 9444   0.437   5.485   0.514  1.8254 -0.6735  0.6405
 3000SOL    HW2 9445   0.506   5.563   0.624 -0.9915  1.6392  0.9008
 3001SOL     OW 9446   3.330   3.714   4.753  0.0416 -0.1952  0.3079
 3001SOL    HW1 9447   3.312   3.793   4.703  0.0566 -0.3318  0.0819
 3001SOL    HW2 9448   3.420   3.724   4.782 -0.4064  0.5296  1.5134
 3002SOL     OW 9449   3.321   2.671   0.106  0.0741 -0.1730  0.4359
 3002SOL    HW1 9450   3.370   2.670   0.023 -0.0205 -0.9985  0.3774
 3002SOL    HW2 9451   3.234   2.639   0.083  0.4984 -1.9724  1.0917
 3003SOL     OW 9452   0.675   4.553   2.705 -0.0416 -0.4309  0.1898
 3003SOL    HW1 9453   0.595   4.603   2.718 -0.3950 -1.1799  0.9929
 3003SOL    HW2 9454   0.660   4.504   2.625  0.7578  1.5528 -1.2668
 3004SOL     OW 9455   2.052   3.138   1.257  0.4811  0.0222 -0.4474
 3004SOL    HW1 9456   2.034   3.227   1.285 -0.5952  0.0207 -1.0815
 3004SOL    HW2 9457   1.978   3.115   1.200  1.4121 -0.7917 -1.3703
 3005SOL     OW 9458   0.001   0.640   5.796  0.0678 -0.5875 -0.4894
 3005SOL    HW1 9459   0.076   0.613   5.848  0.8729  0.3210 -1.1621
 3005SOL    HW2 9460  -0.037   0.557   5.765  0.4372 -1.0700  0.3184
 3006SOL     OW 9461   6.023   4.320   1.426 -0.0524 -0.0999  0.1849
 3006SOL    HW1 9462   5.960   4.353   1.490  0.1856 -0.1652  0.4540
 3006SOL    HW2 9463   6.096   4.382   1.431  1.1212 -1.5177  1.8570
 3007SOL     OW 9464   2.282   5.389   1.261 -0.7241  0.3461  0.1156
 3007SOL    HW1 9465   2.254   5.479   1.245  2.8203  1.8263  1.3777
 3007SOL    HW2 9466   2.298   5.385   1.355  2.0121 -0.6246 -0.3065
 3008SOL     OW 9467   1.108   5.967   4.512 -0.4638 -0.3684 -0.2599
 3008SOL    HW1 9468   1.099   6.056   4.545  0.8051 -0.5378  0.5979
 3008SOL    HW2 9469   1.031   5.955   4.456 -0.1302  1.6371 -1.2728
 3009SOL     OW 9470   4.270   1.823   3.854  0.4456  0.2407  0.1720
 3009SOL    HW1 9471   4.247   1.908   3.891 -2.9937  0.0722 -1.1908
 3009SOL    HW2 9472   4.271   1.764   3.929 -2.0197  0.6698  0.6073
 3010SOL     OW 9473   2.328   4.948   1.943 -0.6689 -0.2038 -0.1931
 3010SOL    HW1 9474   2.275   4.880   1.985 -0.0120 -2.7173 -3.0234
 3010SOL    HW2 9475   2.418   4.914   1.948 -0.3902  0.1338 -2.1091
 3011SOL     OW 9476   3.295   4.304   0.323  0.3388 -0.1535 -0.4726
 3011SOL    HW1 9477   3.241   4.267   0.252  0.7070 -0.3152 -0.6749
 3011SOL    HW2 9478   3.348   4.370   0.280  1.8130 -1.4364 -0.7147
 3012SOL     OW 9479   5.684   3.800   1.884  0.0598  0.7368  0.0941
 3012SOL    HW1 9480   5.678   3.874   1.944 -1.0371  0.2631  0.6102
 3012SOL    HW2 9481   5.604   3.804   1.832 -0.0543 -0.1043  0.1823
 3013SOL     OW 9482   0.906   0.749   5.114  0.0201  0.0545  0.2834
 3013SOL    HW1 9483   0.833   0.704   5.155 -0.9788  0.6913 -0.7345
 3013SOL    HW2 9484   0.884   0.751   5.021  2.4805 -1.8940 -0.4668
 3014SOL     OW 9485   2.331   5.036   2.299  0.3036  0.1425  0.3516
 3014SOL    HW1 9486   2.424   5.028   2.278 -0.0223 -1.6835 -0.6145
 3014SOL    HW2 9487   2.321   4.987   2.381  0.0964 -0.1332  0.1610
 3015SOL     OW 9488   1.941   4.120   0.657 -0.1313  0.2816 -0.1484
 3015SOL    HW1 9489   1.880   4.055   0.693 -0.2579  0.7436  0.4730
 3015SOL    HW2 9490   2.011   4.126   0.722  0.0861  0.4723 -0.3993
 3016SOL     OW 9491   0.754   4.208   5.250 -0.0615 -0.1471 -0.5215
 3016SOL    HW1 9492   0.776   4.223   5.342 -0.9883 -0.2481 -0.2771
 3016SOL    HW2 9493   0.694   4.134   5.251 -1.6620  1.0708 -0.9916
 3017SOL     OW 9494   3.370   2.998   2.762  0.5543  0.4341  0.5253
 3017SOL    HW1 9495   3.289   3.000   2.813 -0.3099 -2.0248 -0.5993
 3017SOL    HW2 9496   3.419   2.923   2.797  0.1386 -1.0496 -1.8365
 3018SOL     OW 9497   2.445   4.083   5.108  0.0974  0.2333 -0.1895
 3018SOL    HW1 9498   2.368   4.134   5.134 -0.3375  0.4639 -1.8237
 3018SOL    HW2 9499   2.516   4.148   5.102  0.0193  0.3075 -0.3140
 3019SOL     OW 9500   3.904   4.939   5.650 -0.0897 -0.0986 -0.8807
 3019SOL    HW1 9501   3.889   5.015   5.593 -0.8871 -0.5925 -1.3405
 3019SOL    HW2 9502   3.827   4.936   5.706 -0.1031 -0.6404 -0.9314
 3020SOL     OW 9503   1.598   2.604   1.573  0.6889 -0.4402 -0.3202
 3020SOL    HW1 9504   1.537   2.546   1.527  0.9520 -0.3825 -0.7517
 3020SOL    HW2 9505   1.551   2.632   1.651  0.4060 -0.9068 -0.3235
 3021SOL     OW 9506   0.245   1.266   2.503 -0.1358  0.9361 -0.1454
 3021SOL    HW1 9507   0.264   1.340   2.562  0.7639 -0.1194  0.9232
 3021SOL    HW2 9508   0.179   1.215   2.550  1.8786 -0.9034  0.8977
 3022SOL     OW 9509   3.730   4.762   4.440 -0.1792 -0.4086 -0.2360
 3022SOL    HW1 9510   3.777   4.797   4.364  1.3003  0.4150  0.9921
 3022SOL    HW2 9511   3.678   4.689   4.405  2.6212 -1.9196 -1.5847
 3023SOL     OW 9512   0.188   1.564   5.610 -0.0388 -0.0075  0.0309
 3023SOL    HW1 9513   0.166   1.490   5.554  2.0057 -0.3626 -0.3742
 3023SOL    HW2 9514   0.268   1.600   5.573 -0.1785  1.5069  1.0958
 3024SOL     OW 9515   4.009   2.398   5.261  0.0360  0.4457  0.1127
 3024SOL    HW1 9516   4.009   2.339   5.336 -0.7544 -0.7113 -0.7578
 3024SOL    HW2 9517   3.975   2.480   5.295  3.1789  1.1751  1.8708
 3025SOL     OW 9518   0.099   4.844   3.156 -0.9278 -0.6821  0.6363
 3025SOL    HW1 9519   0.138   4.792   3.226  2.1857  0.1100 -0.3620
 3025SOL    HW2 9520   0.173   4.880   3.108 -2.9358  1.6356 -1.0067
 3026SOL     OW 9521   4.466   0.774   2.189  0.0539 -0.2568 -0.1026
 3026SOL    HW1 9522   4.410   0.737   2.257 -1.2728 -0.0546 -1.0301
 3026SOL    HW2 9523   4.410   0.839   2.146  1.2797  0.5235 -0.5690
 3027SOL     OW 9524   5.827   5.758   4.234 -0.2779  0.1999  0.4174
 3027SOL    HW1 9525   5.739   5.736   4.262  0.1435  0.2209  1.8230
 3027SOL    HW2 9526   5.832   5.853   4.244 -0.0874  0.1971  0.3583
 3028SOL     OW 9527   0.829   1.598   2.970  0.0643  0.6721 -0.0416
 3028SOL    HW1 9528   0.921   1.624   2.976  0.5742 -0.1244 -2.8669
 3028SOL    HW2 9529   0.814   1.584   2.876 -2.6441 -0.3197  0.4423
 3029SOL     OW 9530   2.801   5.050   5.109 -0.4577  0.0754  0.5238
 3029SOL    HW1 9531   2.772   5.034   5.019  0.7794 -1.9552  0.4418
 3029SOL    HW2 9532   2.768   4.976   5.159  0.1894  0.3946  1.4544
 3030SOL     OW 9533   2.125   0.560   4.452  0.0041 -0.0768  0.4764
 3030SOL    HW1 9534   2.176   0.641   4.460 -0.2601  0.2027 -0.5336
 3030SOL    HW2 9535   2.111   0.532   4.542  0.0875  1.0100  0.8464
 3031SOL     OW 9536   1.158   2.250   1.492 -0.2151  0.4451 -0.2412
 3031SOL    HW1 9537   1.155   2.218   1.582  0.1100  0.2662 -0.2939
 3031SOL    HW2 9538   1.189   2.175   1.441 -0.5962  0.4802 -0.5351
 3032SOL     OW 9539   6.115   5.322   2.027  0.1724  0.0535  0.0175
 3032SOL    HW1 9540   6.024   5.331   1.999 -0.1777  0.3390  1.1961
 3032SOL    HW2 9541   6.114   5.251   2.090  0.2399  1.7639  2.0790
 3033SOL     OW 9542   2.961   1.201   5.384  0.2262  0.3910  0.4168
 3033SOL    HW1 9543   3.057   1.202   5.387  0.3171 -1.4059 -0.2860
 3033SOL    HW2 9544   2.936   1.130   5.443 -0.4972 -0.8971 -1.3407
 3034SOL     OW 9545   1.471   4.188   5.500 -0.2312 -0.2164  0.7223
 3034SOL    HW1 9546   1.503   4.255   5.440  0.0171 -1.1676 -0.2248
 3034SOL    HW2 9547   1.548   4.166   5.554  0.6842 -2.1356 -1.2159
 3035SOL     OW 9548   3.678   0.241   2.602 -0.8588 -0.2075 -0.2868
 3035SOL    HW1 9549   3.663   0.238   2.696 -0.4111  0.1525 -0.2032
 3035SOL    HW2 9550   3.591   0.224   2.564 -1.4294  1.4422  0.1950
 3036SOL     OW 9551   3.850   0.249   3.232 -0.2309  0.5075 -0.2834
 3036SOL    HW1 9552   3.913   0.177   3.225 -0.9202  0.0170 -1.6206
 3036SOL    HW2 9553   3.764   0.206   3.232 -0.6409  1.3113 -0.8269
 3037SOL     OW 9554   0.881   3.742   3.842  0.1373 -0.3934  0.5073
 3037SOL    HW1 9555   0.938   3.745   3.766 -0.7006  0.2591 -0.1140
 3037SOL    HW2 9556   0.941   3.740   3.917  1.0258 -3.3231 -0.1523
 3038SOL     OW 9557   3.772   1.846   0.195  0.0043  0.4212 -1.1480
 3038SOL    HW1 9558   3.728   1.905   0.257  0.0706 -0.6989  0.0051
 3038SOL    HW2 9559   3.700   1.804   0.148 -0.1380 -0.3186 -0.2958
 3039SOL     OW 9560   6.038   0.330   4.559 -0.2004 -0.2922  0.1498
 3039SOL    HW1 9561   6.086   0.380   4.492 -0.7345 -0.4764 -0.3799
 3039SOL    HW2 9562   6.058   0.238   4.539 -0.3610 -0.3467  0.2418
 3040SOL     OW 9563   5.048   3.179   0.346 -0.1824 -0.1280 -0.2887
 3040SOL    HW1 9564   5.057   3.203   0.254 -2.0829 -0.1290 -0.5187
 3040SOL    HW2 9565   5.119   3.118   0.362  0.3781  0.1233 -1.6575
 3041SOL     OW 9566   5.228   0.512   1.652  0.0488 -0.0404 -0.1778
 3041SOL    HW1 9567   5.153   0.503   1.711 -0.3341  1.3171 -0.4113
 3041SOL    HW2 9568   5.299   0.465   1.695 -0.5270 -0.0199  0.8189
 3042SOL     OW 9569   0.799   2.242   0.324 -0.1018 -0.5879  0.0732
 3042SOL    HW1 9570   0.746   2.208   0.251 -1.9936  0.9353  0.6446
 3042SOL    HW2 9571   0.753   2.212   0.402  0.1384  0.3961  0.6002
 3043SOL     OW 9572   0.595   1.444   2.576  0.0305  0.0270  0.3383
 3043SOL    HW1 9573   0.528   1.493   2.623  0.9998  1.6167  0.1569
 3043SOL    HW2 9574   0.673   1.499   2.582  0.5651 -0.3798 -1.8767
 3044SOL     OW 9575   3.865   1.172   1.888  0.0815 -0.1706  0.0920
 3044SOL    HW1 9576   3.954   1.168   1.852 -0.2719  0.1649 -0.8493
 3044SOL    HW2 9577   3.812   1.204   1.815 -0.7911 -0.2486  0.6901
 3045SOL     OW 9578   0.971   5.976   5.535 -0.2571  0.2257 -0.2976
 3045SOL    HW1 9579   1.033   5.966   5.463  0.1175 -1.3183  0.2149
 3045SOL    HW2 9580   1.026   6.003   5.609  0.2167 -3.0205  0.6757
 3046SOL     OW 9581   3.460   3.182   2.333 -0.3078  0.1217  0.6141
 3046SOL    HW1 9582   3.377   3.201   2.290 -0.3756  0.2511  0.8049
 3046SOL    HW2 9583   3.446   3.203   2.425 -0.4559 -1.0507  0.8788
 3047SOL     OW 9584   5.706   0.499   0.634  0.0142 -0.5651  0.0470
 3047SOL    HW1 9585   5.749   0.536   0.711 -0.5308 -0.4097  0.2787
 3047SOL    HW2 9586   5.648   0.432   0.669  1.0969 -1.7748 -0.3727
 3048SOL     OW 9587   0.776   2.751   3.619 -0.1954  0.7482 -0.4259
 3048SOL    HW1 9588   0.699   2.777   3.568 -0.8391 -0.1422  0.0723
 3048SOL    HW2 9589   0.781   2.656   3.608 -0.2827  0.5459  1.0649
 3049SOL     OW 9590   2.837   1.633   3.937  0.0448  0.7996  0.2278
 3049SOL    HW1 9591   2.767   1.682   3.979 -1.3583 -0.1815 -0.8744
 3049SOL    HW2 9592   2.879   1.584   4.007 -2.3230 -0.9142  0.5400
 3050SOL     OW 9593   0.436   1.202   0.548 -0.1476  0.4170 -0.3094
 3050SOL    HW1 9594   0.348   1.181   0.516 -0.5104 -0.5777  1.2475
 3050SOL    HW2 9595   0.433   1.297   0.564 -1.8730  0.0171  2.2846
 3051SOL     OW 9596   5.140   4.524   2.528  0.0902  0.2947  0.8964
 3051SOL    HW1 9597   5.126   4.473   2.608 -4.5839 -1.4103 -0.7086
 3051SOL    HW2 9598   5.054   4.560   2.507  0.9829  0.3284 -3.5660
 3052SOL     OW 9599   2.335   5.463   2.090 -0.8838 -0.2247 -0.2380
 3052SOL    HW1 9600   2.374   5.531   2.144 -0.2619  0.8498 -1.9525
 3052SOL    HW2 9601   2.396   5.389   2.097 -0.2097  0.3104 -0.3711
 3053SOL     OW 9602   0.851   2.858   1.898 -0.1773 -0.2201 -0.4782
 3053SOL    HW1 9603   0.853   2.812   1.982  0.2787  0.0755 -0.3243
 3053SOL    HW2 9604   0.903   2.802   1.839 -1.2383 -0.8897 -0.8154
 3054SOL     OW 9605   1.803   3.106   3.629  0.0028 -0.5475  0.4104
 3054SOL    HW1 9606   1.799   3.017   3.596  0.7501 -0.4892  0.1478
 3054SOL    HW2 9607   1.723   3.148   3.597 -0.3583 -1.1221  0.5501
 3055SOL     OW 9608   3.645   5.868   4.109 -0.3549  0.4955 -0.5962
 3055SOL    HW1 9609   3.725   5.820   4.128  0.2501  1.3431 -0.9211
 3055SOL    HW2 9610   3.586   5.804   4.070 -0.9628 -0.8703  2.2985
 3056SOL     OW 9611   1.271   5.094   1.367  0.1197 -0.3771  0.1132
 3056SOL    HW1 9612   1.333   5.135   1.427 -0.9157 -1.3022  1.9461
 3056SOL    HW2 9613   1.268   5.002   1.396  1.6465 -1.6129 -3.1943
 3057SOL     OW 9614   3.414   3.424   4.154  0.7525 -0.4937 -0.3702
 3057SOL    HW1 9615   3.385   3.336   4.131 -1.7925  0.1413  0.0467
 3057SOL    HW2 9616   3.429   3.467   4.070  2.2355 -1.3368 -0.5760
 3058SOL     OW 9617   2.138   4.398   0.649 -0.0400 -0.1263 -0.2366
 3058SOL    HW1 9618   2.231   4.395   0.671 -0.2372 -0.8978  0.5485
 3058SOL    HW2 9619   2.094   4.416   0.732 -0.6059  0.1457 -0.5864
 3059SOL     OW 9620   3.376   1.628   5.497 -0.2271 -0.5952  0.0763
 3059SOL    HW1 9621   3.425   1.617   5.415  0.7188  0.3962  0.4805
 3059SOL    HW2 9622   3.323   1.706   5.483  0.2984 -0.1379  0.5533
 3060SOL     OW 9623   1.672   4.205   4.638 -0.4268  0.0140  0.5518
 3060SOL    HW1 9624   1.629   4.273   4.690 -0.9351 -0.6195  0.9751
 3060SOL    HW2 9625   1.653   4.228   4.547 -0.5911  0.4331  0.6900
 3061SOL     OW 9626   2.526   2.770   3.677 -0.1177  0.4008 -0.3409
 3061SOL    HW1 9627   2.601   2.710   3.677  0.7971  1.5029 -0.0133
 3061SOL    HW2 9628   2.461   2.728   3.733  0.8417  0.1141  0.5749
 3062SOL     OW 9629   2.932   0.009   1.329  0.1705  0.0069  0.3668
 3062SOL    HW1 9630   2.936   0.104   1.342 -1.3710  0.2574 -0.7385
 3062SOL    HW2 9631   2.917  -0.026   1.417 -0.4062  0.8715  0.6231
 3063SOL     OW 9632   0.167   1.177   3.310  0.2973  0.5330  0.1529
 3063SOL    HW1 9633   0.241   1.123   3.283  1.3504  0.6649  2.5550
 3063SOL    HW2 9634   0.106   1.116   3.352  1.1346  0.9965  2.1675
 3064SOL     OW 9635   5.927   4.918   4.264 -0.2341  0.5094  0.3402
 3064SOL    HW1 9636   5.871   4.917   4.186  1.1730 -0.0223 -0.7037
 3064SOL    HW2 9637   5.982   4.841   4.255  1.4168  1.5880  0.7526
 3065SOL     OW 9638   2.725   3.321   1.798  0.2147 -0.1597  0.1159
 3065SOL    HW1 9639   2.759   3.386   1.859  0.5640 -0.1698 -0.0633
 3065SOL    HW2 9640   2.693   3.371   1.724 -0.7561 -0.1078  0.5571
 3066SOL     OW 9641   4.683   5.613   4.815  0.4267  0.2804  0.0509
 3066SOL    HW1 9642   4.763   5.564   4.833 -1.1049 -2.3007  0.4473
 3066SOL    HW2 9643   4.688   5.634   4.722  1.3200 -0.3079 -0.0431
 3067SOL     OW 9644   5.991   4.008   0.705  0.1451  0.0264 -0.1010
 3067SOL    HW1 9645   5.915   4.065   0.689 -1.0287 -0.9060  1.7874
 3067SOL    HW2 9646   5.954   3.919   0.708  1.3106 -0.4489  0.8445
 3068SOL     OW 9647   4.467   2.940   4.408  0.3907  0.3533  0.6197
 3068SOL    HW1 9648   4.422   2.872   4.457 -0.4543 -1.0354 -1.9239
 3068SOL    HW2 9649   4.545   2.960   4.461 -0.8648 -0.3809  2.9039
 3069SOL     OW 9650   1.361   3.477   4.568 -0.3151  0.1783 -0.3279
 3069SOL    HW1 9651   1.396   3.566   4.570  1.1158 -0.3513 -0.6362
 3069SOL    HW2 9652   1.366   3.451   4.476  0.3796 -0.6210 -0.0768
 3070SOL     OW 9653   4.453   5.139   4.494  0.3370  0.6219  0.7224
 3070SOL    HW1 9654   4.489   5.147   4.583  1.8976 -1.3756  0.3388
 3070SOL    HW2 9655   4.372   5.089   4.505  0.0204  1.2064  1.1041
 3071SOL     OW 9656   1.946   3.470   5.031 -0.1544 -0.3029  0.2626
 3071SOL    HW1 9657   1.915   3.542   5.087  0.7739  1.8968 -1.8896
 3071SOL    HW2 9658   1.881   3.401   5.043 -0.3786  0.3049  3.4553
 3072SOL     OW 9659   4.398   1.717   0.618  0.8992 -0.6216  0.2814
 3072SOL    HW1 9660   4.431   1.777   0.551  0.7134 -0.7210  0.0970
 3072SOL    HW2 9661   4.352   1.773   0.680 -1.0252 -0.7379 -0.9401
 3073SOL     OW 9662   5.171   3.270   0.059  0.3608  0.0788  0.3470
 3073SOL    HW1 9663   5.104   3.337   0.046 -0.4375 -0.3700  1.8804
 3073SOL    HW2 9664   5.151   3.203  -0.007  1.4687  1.5144 -1.5353
 3074SOL     OW 9665   2.479   3.720   4.581 -0.0184 -0.4582 -0.0913
 3074SOL    HW1 9666   2.449   3.663   4.651  1.3768 -1.7445 -0.4722
 3074SOL    HW2 9667   2.547   3.669   4.536  0.8155  1.2557 -0.8796
 3075SOL     OW 9668   4.976   0.844   5.909 -0.8567  0.0177 -0.1693
 3075SOL    HW1 9669   5.061   0.856   5.953 -0.3778  0.7568 -1.2448
 3075SOL    HW2 9670   4.972   0.750   5.891  0.0107  0.0411 -0.5894
 3076SOL     OW 9671   4.478   1.819   2.572 -0.1941 -0.4420 -0.1957
 3076SOL    HW1 9672   4.563   1.791   2.606  0.2345  0.7715 -0.2416
 3076SOL    HW2 9673   4.472   1.912   2.594 -0.5760  0.0232 -2.0798
 3077SOL     OW 9674   5.803   5.160   5.465 -0.2248  0.5644 -0.2211
 3077SOL    HW1 9675   5.810   5.226   5.534  0.1760  0.8656 -0.5456
 3077SOL    HW2 9676   5.892   5.127   5.454 -0.0772  1.2800 -1.3336
 3078SOL     OW 9677   3.614   5.125   3.706  0.6662  0.8469 -0.0198
 3078SOL    HW1 9678   3.609   5.040   3.663 -1.9706  1.6849 -1.5833
 3078SOL    HW2 9679   3.600   5.105   3.799  1.1869 -0.4988 -0.2002
 3079SOL     OW 9680   0.535   1.951   4.573 -0.3241 -0.0138  0.0798
 3079SOL    HW1 9681   0.532   2.031   4.521 -0.8348 -0.7833 -1.1133
 3079SOL    HW2 9682   0.500   1.977   4.658  1.8481  1.6053  0.5604
 3080SOL     OW 9683   1.815   1.805   5.332  0.5579  0.1792  0.0524
 3080SOL    HW1 9684   1.802   1.850   5.415  0.0264  0.9210 -0.4162
 3080SOL    HW2 9685   1.728   1.772   5.309  0.5380  0.6333 -0.5663
 3081SOL     OW 9686   5.785   4.224   4.837  0.2787 -0.3858  0.3876
 3081SOL    HW1 9687   5.815   4.265   4.756  0.9624  2.6225  1.9841
 3081SOL    HW2 9688   5.690   4.227   4.832  0.3113 -0.5416 -0.4480
 3082SOL     OW 9689   1.416   4.190   3.488 -0.5767 -0.2259 -0.4883
 3082SOL    HW1 9690   1.468   4.119   3.526  1.1441  0.7296 -0.9439
 3082SOL    HW2 9691   1.374   4.232   3.562  3.0678  1.8899  0.6089
 3083SOL     OW 9692   4.490   0.006   4.921  0.1504  0.0904 -0.2216
 3083SOL    HW1 9693   4.446  -0.032   4.845 -3.8570  0.1116  1.8103
 3083SOL    HW2 9694   4.499   0.099   4.899  2.2618 -0.4321 -1.8992
 3084SOL     OW 9695   4.219   2.107   4.609 -0.3442 -0.0353 -0.8106
 3084SOL    HW1 9696   4.165   2.028   4.599  0.2686 -0.2374 -3.3118
 3084SOL    HW2 9697   4.178   2.171   4.551 -0.4257  1.2894  0.6612
 3085SOL     OW 9698   2.558   1.671   1.396 -0.1283 -0.0693  0.1077
 3085SOL    HW1 9699   2.620   1.731   1.356 -1.4526  1.2103 -0.0869
 3085SOL    HW2 9700   2.572   1.681   1.490 -0.1975  0.3984  0.0693
 3086SOL     OW 9701   1.726   4.760   4.696  0.6078 -0.1892 -0.1175
 3086SOL    HW1 9702   1.691   4.840   4.657 -1.2063 -0.8587  0.0608
 3086SOL    HW2 9703   1.763   4.711   4.623  1.5295  0.6767 -0.2598
 3087SOL     OW 9704   5.451   2.088   3.103 -0.1780  0.2482  0.4773
 3087SOL    HW1 9705   5.398   2.156   3.061  0.5094 -0.2456 -1.2642
 3087SOL    HW2 9706   5.396   2.010   3.100  0.2730 -0.0455 -0.5134
 3088SOL     OW 9707   0.918   2.225   5.133 -0.2980 -0.7251 -0.0705
 3088SOL    HW1 9708   0.836   2.271   5.116  0.0169  0.6980  2.0097
 3088SOL    HW2 9709   0.969   2.236   5.052 -0.8360  1.2976 -0.1774
 3089SOL     OW 9710   2.777   3.642   4.837 -0.0828 -0.1668  0.9319
 3089SOL    HW1 9711   2.813   3.655   4.749  0.8037  1.8094  1.5199
 3089SOL    HW2 9712   2.729   3.722   4.855 -2.8041 -1.7461  1.1694
 3090SOL     OW 9713   2.329   0.511   2.987 -0.0196 -0.3232 -0.2627
 3090SOL    HW1 9714   2.275   0.544   2.915  0.2016  2.6348  0.7679
 3090SOL    HW2 9715   2.417   0.544   2.969  0.5211 -1.3952  0.2882
 3091SOL     OW 9716   2.455   2.215   1.609  0.0035  0.0785 -0.2159
 3091SOL    HW1 9717   2.506   2.141   1.577  0.1861 -0.4497  1.2340
 3091SOL    HW2 9718   2.416   2.184   1.691 -0.1695  1.4787  0.2580
 3092SOL     OW 9719   4.234   4.808   4.793  0.3672 -0.4944  0.4146
 3092SOL    HW1 9720   4.170   4.753   4.750 -0.5670  0.5390  0.4421
 3092SOL    HW2 9721   4.266   4.755   4.867  0.6609 -1.5728 -0.4684
 3093SOL     OW 9722   1.216   4.196   5.451 -0.4854 -0.1413 -0.0956
 3093SOL    HW1 9723   1.221   4.269   5.389 -0.4913  0.0728  0.1571
 3093SOL    HW2 9724   1.307   4.176   5.472 -0.5101  0.7724  0.9823
 3094SOL     OW 9725   2.257   5.748   2.503  0.0972  0.0812 -0.2792
 3094SOL    HW1 9726   2.213   5.790   2.576  0.2060 -0.4415  0.0932
 3094SOL    HW2 9727   2.201   5.764   2.427  1.1331  2.6880 -0.6045
 3095SOL     OW 9728   0.224   1.184   1.655  0.1178  0.0481  0.1963
 3095SOL    HW1 9729   0.277   1.243   1.602 -0.9010  0.6072 -0.2268
 3095SOL    HW2 9730   0.287   1.140   1.713  0.8581  1.8562  0.8341
 3096SOL     OW 9731   4.895   6.093   3.749 -0.3777 -0.6300  0.3152
 3096SOL    HW1 9732   4.882   6.188   3.746 -0.3963 -0.6344  0.2636
 3096SOL    HW2 9733   4.914   6.074   3.841 -2.3945 -0.8393  0.7271
 3097SOL     OW 9734   5.873   1.318   3.425 -0.0704 -0.3786  0.0015
 3097SOL    HW1 9735   5.848   1.402   3.464 -0.4228 -1.3309  1.9847
 3097SOL    HW2 9736   5.832   1.252   3.481  1.3993 -1.9020 -0.6071
 3098SOL     OW 9737   1.016   3.496   5.197  0.2246 -0.4838  0.4730
 3098SOL    HW1 9738   1.059   3.494   5.112  0.9147 -0.3771  0.8092
 3098SOL    HW2 9739   0.923   3.481   5.178  0.5122 -1.4569 -0.1970
 3099SOL     OW 9740   1.213   3.187   0.577  0.2732  0.2882 -0.5248
 3099SOL    HW1 9741   1.129   3.234   0.583  0.3726  0.7284 -2.1968
 3099SOL    HW2 9742   1.278   3.257   0.567  0.6483 -0.1239 -0.9861
 3100SOL     OW 9743   5.107   2.036   0.890  0.3863  0.1368  0.3393
 3100SOL    HW1 9744   5.053   1.996   0.822 -0.1111  0.6849  0.4052
 3100SOL    HW2 9745   5.197   2.017   0.863  0.1835 -0.0916 -0.1983
 3101SOL     OW 9746   5.010   1.011   1.804  0.1414 -0.0386 -0.2541
 3101SOL    HW1 9747   4.923   1.028   1.768  0.5851 -0.5790 -1.6438
 3101SOL    HW2 9748   5.010   0.918   1.826 -0.7343  0.5960  3.0054
 3102SOL     OW 9749   3.191   3.424   2.349  0.1167  1.3856 -0.4692
 3102SOL    HW1 9750   3.191   3.329   2.347  2.2515  1.3486 -0.7305
 3102SOL    HW2 9751   3.099   3.448   2.359 -0.8856 -0.6142 -3.5761
 3103SOL     OW 9752   5.235   4.613   1.686  0.2032 -0.0678 -0.0598
 3103SOL    HW1 9753   5.163   4.673   1.700  0.6181  0.5316 -0.4506
 3103SOL    HW2 9754   5.295   4.628   1.759 -0.1079 -0.6483  0.3295
 3104SOL     OW 9755   3.789   0.642   3.042 -0.1514 -0.2592 -0.2562
 3104SOL    HW1 9756   3.743   0.703   3.099 -1.9413 -1.6636 -0.1029
 3104SOL    HW2 9757   3.828   0.698   2.975  0.7745  1.2919  1.4760
 3105SOL     OW 9758   0.503   1.305   4.921 -0.2962  0.5578 -0.1074
 3105SOL    HW1 9759   0.498   1.316   5.016  1.0224  3.8975 -0.2870
 3105SOL    HW2 9760   0.425   1.349   4.888 -0.2621  0.2462 -0.6102
 3106SOL     OW 9761   2.672   3.485   3.881  0.2276 -0.3766  0.2473
 3106SOL    HW1 9762   2.672   3.581   3.873  0.0093 -0.3989 -0.0174
 3106SOL    HW2 9763   2.763   3.460   3.862 -0.0280 -0.3350 -1.0822
 3107SOL     OW 9764   1.446   3.446   5.995 -0.2206 -0.0083 -0.4184
 3107SOL    HW1 9765   1.513   3.444   6.064  0.7055  1.2322 -1.2335
 3107SOL    HW2 9766   1.381   3.382   6.023  0.8044 -0.5178  0.9199
 3108SOL     OW 9767   4.037   2.847   0.612 -0.0220 -0.5004 -0.7290
 3108SOL    HW1 9768   4.007   2.937   0.617 -1.7847 -1.1209  1.4378
 3108SOL    HW2 9769   4.095   2.836   0.688 -1.7725 -1.7693  0.5090
 3109SOL     OW 9770   3.093   2.199   1.611  0.1973  0.2027  0.2231
 3109SOL    HW1 9771   3.134   2.262   1.552  3.6185 -1.7880  0.1921
 3109SOL    HW2 9772   3.115   2.230   1.699 -1.3693  0.9825  0.3680
 3110SOL     OW 9773   0.206   2.540   0.927  0.3409 -0.0618 -0.1118
 3110SOL    HW1 9774   0.226   2.624   0.969 -1.8653  0.5358 -0.1296
 3110SOL    HW2 9775   0.253   2.543   0.843 -0.0254  1.3414 -0.2933
 3111SOL     OW 9776   3.915   3.239   4.279  0.6017 -0.1639  0.0069
 3111SOL    HW1 9777   3.851   3.192   4.226 -0.3661  0.7669  0.3104
 3111SOL    HW2 9778   4.000   3.210   4.246  0.0230 -0.9252 -0.8537
 3112SOL     OW 9779   1.238   3.525   0.393  0.6357 -0.6522  0.2638
 3112SOL    HW1 9780   1.300   3.516   0.466  0.0827 -1.2450  0.6698
 3112SOL    HW2 9781   1.274   3.470   0.324  2.2925  1.4993 -0.7355
 3113SOL     OW 9782   4.172   5.271   0.249  0.1374 -0.2620 -1.3443
 3113SOL    HW1 9783   4.162   5.360   0.214 -0.8181  0.1904  0.0237
 3113SOL    HW2 9784   4.089   5.253   0.292  0.1831 -1.9813 -1.9051
 3114SOL     OW 9785   6.104   3.472   0.912  0.0396 -0.7830  0.2948
 3114SOL    HW1 9786   6.071   3.382   0.916 -0.3180 -0.7235 -0.9447
 3114SOL    HW2 9787   6.042   3.521   0.966  0.7726 -1.4056  1.7601
 3115SOL     OW 9788   1.866   5.493   2.243 -0.1919  0.0988 -0.5247
 3115SOL    HW1 9789   1.907   5.465   2.325  0.2163  0.7367 -0.5044
 3115SOL    HW2 9790   1.788   5.438   2.236 -0.7305  0.6507  0.7523
 3116SOL     OW 9791   3.615   2.078   3.662  0.0928 -0.2597 -0.3117
 3116SOL    HW1 9792   3.656   2.162   3.640 -0.6560 -0.0998 -1.1483
 3116SOL    HW2 9793   3.625   2.025   3.583  0.2453 -0.8433  0.0923
 3117SOL     OW 9794   1.734   4.269   3.490 -0.1773 -0.1620  0.2238
 3117SOL    HW1 9795   1.757   4.188   3.445  0.9404  0.5324 -0.5133
 3117SOL    HW2 9796   1.657   4.301   3.443  0.8555  0.4488 -1.1098
 3118SOL     OW 9797   5.854   4.985   2.658  0.3385 -0.3436  0.5853
 3118SOL    HW1 9798   5.864   4.956   2.748  0.9797  1.8164  1.2569
 3118SOL    HW2 9799   5.765   4.959   2.634 -0.2027 -0.0547  2.1937
 3119SOL     OW 9800   2.095   3.200   4.342 -0.7078 -0.0730 -0.7344
 3119SOL    HW1 9801   2.019   3.258   4.343 -1.0234 -0.2723 -3.7835
 3119SOL    HW2 9802   2.137   3.218   4.258  0.4049 -2.7146 -0.8249
 3120SOL     OW 9803   4.215   5.009   4.538 -0.4222  0.3784 -0.1746
 3120SOL    HW1 9804   4.265   4.956   4.600  0.0810 -0.5171 -1.3054
 3120SOL    HW2 9805   4.125   4.980   4.549 -0.1391 -0.8666 -0.8710
 3121SOL     OW 9806   2.652   2.997   3.759  0.0581  0.6835 -0.2239
 3121SOL    HW1 9807   2.740   3.016   3.726 -0.4112  0.9377 -1.4109
 3121SOL    HW2 9808   2.627   2.916   3.715 -0.7041  1.1911 -0.7604
 3122SOL     OW 9809   1.176   0.910   0.600 -0.0238  0.3150  0.0246
 3122SOL    HW1 9810   1.132   0.836   0.641 -1.5956  1.2629  0.1272
 3122SOL    HW2 9811   1.248   0.871   0.551 -2.6764 -1.7016 -2.6168
 3123SOL     OW 9812   1.127   3.767   2.702  0.3688  0.1532 -0.0604
 3123SOL    HW1 9813   1.093   3.856   2.699 -0.1296 -0.0586 -0.7862
 3123SOL    HW2 9814   1.146   3.752   2.795 -0.6542  0.6030  0.2371
 3124SOL     OW 9815   3.942   5.217   0.373  0.2701 -0.2595  0.2472
 3124SOL    HW1 9816   3.907   5.286   0.428  0.8426 -0.5931  1.0509
 3124SOL    HW2 9817   3.866   5.180   0.329 -0.2444 -0.2314  1.0995
 3125SOL     OW 9818   3.780   4.046   2.918  0.0257  1.0122  0.2808
 3125SOL    HW1 9819   3.874   4.032   2.927 -0.1241 -0.5830 -0.3679
 3125SOL    HW2 9820   3.767   4.061   2.824 -0.5421 -0.4512  0.1018
 3126SOL     OW 9821   2.054   3.628   5.288  0.0423 -0.5696 -0.6122
 3126SOL    HW1 9822   2.008   3.712   5.290  1.0596 -0.0107 -0.2139
 3126SOL    HW2 9823   2.076   3.611   5.380 -1.2625 -1.9156 -0.5073
 3127SOL     OW 9824   4.455   5.605   2.448 -0.5131  0.1626  0.0443
 3127SOL    HW1 9825   4.424   5.572   2.364 -2.6644 -0.1108  0.8747
 3127SOL    HW2 9826   4.442   5.700   2.443 -1.0789  0.0959  0.2311
 3128SOL     OW 9827   4.706   2.742   1.727  0.2108 -0.4969 -0.4024
 3128SOL    HW1 9828   4.758   2.723   1.805  0.2032  0.3084 -0.1900
 3128SOL    HW2 9829   4.771   2.747   1.656  0.1428 -1.8952 -0.5819
 3129SOL     OW 9830   3.691   1.479   4.069 -0.0104  0.0525 -0.6610
 3129SOL    HW1 9831   3.705   1.529   3.989 -2.5363  0.4291 -0.9303
 3129SOL    HW2 9832   3.596   1.469   4.075  0.0762  0.2040  2.3859
 3130SOL     OW 9833   2.742   2.654   2.330  0.0784  0.6283  0.3230
 3130SOL    HW1 9834   2.719   2.623   2.243  0.5203  0.2498  0.3313
 3130SOL    HW2 9835   2.723   2.748   2.329  0.7301  0.7595 -0.4069
 3131SOL     OW 9836   5.579   0.145   4.581  0.6699  0.0372 -0.0242
 3131SOL    HW1 9837   5.548   0.065   4.538  1.7818 -0.0862 -0.6350
 3131SOL    HW2 9838   5.649   0.115   4.639  1.2222  0.5826 -0.3966
 3132SOL     OW 9839   0.987   1.998   1.788 -0.5195 -0.1209 -0.1800
 3132SOL    HW1 9840   1.042   2.075   1.803 -1.5224  0.7510 -0.8924
 3132SOL    HW2 9841   1.045   1.924   1.808  0.4537  0.7986  0.5544
 3133SOL     OW 9842   5.323   3.937   5.948 -0.2719 -0.4845 -0.2303
 3133SOL    HW1 9843   5.329   3.903   6.037  1.3062 -1.0401 -0.5288
 3133SOL    HW2 9844   5.282   3.867   5.898  0.1777 -0.7511 -0.2287
 3134SOL     OW 9845   3.974   1.471   3.709  0.3262  0.6733  0.0749
 3134SOL    HW1 9846   4.045   1.531   3.687  1.6695 -0.2551  1.6049
 3134SOL    HW2 9847   4.016   1.384   3.711 -0.7468  0.1454  1.3345
 3135SOL     OW 9848   2.871   2.699   3.748  0.4272 -0.1502 -0.0678
 3135SOL    HW1 9849   2.951   2.646   3.749 -0.3524 -1.5790  3.8178
 3135SOL    HW2 9850   2.807   2.644   3.703  1.0887  0.2060 -1.5137
 3136SOL     OW 9851   2.854   4.258   5.580 -0.2574 -0.5703  0.2760
 3136SOL    HW1 9852   2.785   4.208   5.624  0.0719 -1.0486  0.2592
 3136SOL    HW2 9853   2.915   4.191   5.549 -0.6252 -0.2784 -1.1519
 3137SOL     OW 9854   3.306   3.901   4.417  0.2643  0.1786  0.2276
 3137SOL    HW1 9855   3.312   3.926   4.510 -0.9364  1.6164 -0.0402
 3137SOL    HW2 9856   3.324   3.982   4.370  1.8564 -0.7474 -0.8588
 3138SOL     OW 9857   1.739   5.452   3.282  0.3170 -0.5886 -0.5162
 3138SOL    HW1 9858   1.830   5.439   3.307 -0.2838 -1.3404  1.4935
 3138SOL    HW2 9859   1.722   5.388   3.213  2.0486  1.5628 -3.1593
 3139SOL     OW 9860   2.933   5.246   4.225  0.2235 -0.6500 -0.1419
 3139SOL    HW1 9861   2.999   5.238   4.293  1.0566 -0.3600 -0.8876
 3139SOL    HW2 9862   2.925   5.158   4.189 -0.8189 -0.9800  0.8555
 3140SOL     OW 9863   3.546   0.429   1.400 -0.2003  0.0594  0.2321
 3140SOL    HW1 9864   3.489   0.362   1.438 -0.2620  0.5631  1.0508
 3140SOL    HW2 9865   3.618   0.437   1.462 -0.6298  1.3556  0.6059
 3141SOL     OW 9866   4.994   5.769   3.323  0.4562  1.2263 -0.3647
 3141SOL    HW1 9867   5.057   5.742   3.389  0.4640  0.9165 -0.4951
 3141SOL    HW2 9868   4.981   5.863   3.338 -2.0779  0.6109  2.2843
 3142SOL     OW 9869   1.804   3.222   0.614  0.5520  0.6474  0.0790
 3142SOL    HW1 9870   1.869   3.166   0.658 -1.2259 -1.5075  0.1668
 3142SOL    HW2 9871   1.808   3.194   0.522 -0.5764  0.1182  0.1802
 3143SOL     OW 9872   0.270   2.581   0.608  0.3178 -0.1895 -0.8606
 3143SOL    HW1 9873   0.265   2.561   0.514 -0.2937 -1.1270 -0.6381
 3143SOL    HW2 9874   0.270   2.677   0.612 -0.9352 -0.1277 -1.7642
 3144SOL     OW 9875   2.019   5.192   5.800 -0.2739  0.8742  0.2470
 3144SOL    HW1 9876   2.014   5.145   5.883  0.5709  0.5424  0.1173
 3144SOL    HW2 9877   2.004   5.283   5.823  1.7652  1.0532  1.0472
 3145SOL     OW 9878   2.815   0.194   4.809  0.3314 -0.3986 -0.2765
 3145SOL    HW1 9879   2.749   0.261   4.826 -1.3697 -2.1299  0.3190
 3145SOL    HW2 9880   2.812   0.179   4.715 -2.0977 -2.2540 -0.0095
 3146SOL     OW 9881   3.013   5.801   0.204 -0.7015 -0.3912  0.4880
 3146SOL    HW1 9882   2.946   5.841   0.148 -1.4764 -1.3212  0.7237
 3146SOL    HW2 9883   2.963   5.766   0.278  0.2126  0.0786  1.3466
 3147SOL     OW 9884   0.469   1.370   2.319  0.4227 -0.0525 -0.2662
 3147SOL    HW1 9885   0.544   1.394   2.373 -0.2760  0.8288  0.3428
 3147SOL    HW2 9886   0.400   1.350   2.382  0.1375 -0.8771 -0.8203
 3148SOL     OW 9887   4.648   0.409   0.190 -0.3833  0.4704 -0.1250
 3148SOL    HW1 9888   4.729   0.458   0.205 -0.2321  0.5441 -1.0975
 3148SOL    HW2 9889   4.581   0.461   0.234  0.2497 -0.2271  1.7366
 3149SOL     OW 9890   1.611   2.712   3.751 -0.1243 -0.1169 -0.0075
 3149SOL    HW1 9891   1.613   2.756   3.836 -1.6528  0.2689 -0.1301
 3149SOL    HW2 9892   1.632   2.621   3.770  1.1322  0.2664  0.5339
 3150SOL     OW 9893   3.160   4.807   5.873 -0.2475  0.3267  0.2817
 3150SOL    HW1 9894   3.196   4.790   5.786 -0.4074  0.6852  0.1470
 3150SOL    HW2 9895   3.237   4.823   5.927 -0.1706  0.4720  0.1290
 3151SOL     OW 9896   2.917   0.475   5.380 -0.0342 -0.2711  0.0923
 3151SOL    HW1 9897   3.002   0.493   5.340  0.1474  0.4842  0.7947
 3151SOL    HW2 9898   2.888   0.560   5.414 -1.4817 -0.3313 -0.9003
 3152SOL     OW 9899   3.673   2.884   3.718 -0.1494  0.2068 -0.0526
 3152SOL    HW1 9900   3.703   2.845   3.800  1.8134  0.8870 -0.3883
 3152SOL    HW2 9901   3.662   2.811   3.659  0.2591 -0.1237  0.2762
 3153SOL     OW 9902   4.618   1.007   5.202 -0.1604  0.4248 -0.4243
 3153SOL    HW1 9903   4.590   0.977   5.289 -0.1180 -1.5813 -1.0560
 3153SOL    HW2 9904   4.542   0.992   5.146  0.1204  0.8326 -0.9176
 3154SOL     OW 9905   3.185   0.317   3.285  0.3930 -0.5131 -0.3731
 3154SOL    HW1 9906   3.242   0.242   3.300 -1.5739 -1.5853  2.9822
 3154SOL    HW2 9907   3.200   0.375   3.360 -1.7368 -0.1160 -0.1681
 3155SOL     OW 9908   2.495   3.454   3.644  0.3121  0.4129  0.1843
 3155SOL    HW1 9909   2.481   3.540   3.683  0.2563 -0.0692  1.2700
 3155SOL    HW2 9910   2.539   3.403   3.712 -0.9227 -0.8459  0.0934
 3156SOL     OW 9911   1.854   2.880   5.824 -0.3408  0.6263  0.2554
 3156SOL    HW1 9912   1.864   2.785   5.830  0.5112  0.6057 -1.0294
 3156SOL    HW2 9913   1.860   2.911   5.914  0.4055 -0.4497  0.5998
 3157SOL     OW 9914   0.428   1.147   1.845 -0.4211  0.1993  0.2272
 3157SOL    HW1 9915   0.504   1.204   1.833 -0.5818  0.0624 -1.8389
 3157SOL    HW2 9916   0.370   1.197   1.902  0.7218  0.7766  0.9424
 3158SOL     OW 9917   0.737   1.602   1.014 -0.7061 -0.5811 -0.2298
 3158SOL    HW1 9918   0.791   1.551   0.954 -0.6293  0.8248 -1.4141
 3158SOL    HW2 9919   0.751   1.693   0.988 -1.9771 -0.0416  0.8359
 3159SOL     OW 9920   5.261   0.295   2.058  0.3320  0.4069 -0.8143
 3159SOL    HW1 9921   5.234   0.211   2.095 -1.1869  0.7569 -1.0712
 3159SOL    HW2 9922   5.342   0.316   2.105 -1.2269  0.5988  2.0475
 3160SOL     OW 9923   5.100   1.019   3.085 -0.2122  0.3294 -0.1593
 3160SOL    HW1 9924   5.032   0.980   3.029 -0.4663 -1.3258  1.2528
 3160SOL    HW2 9925   5.051   1.063   3.154  0.1204 -0.8044  0.8241
 3161SOL     OW 9926   2.571   4.652   4.941  0.2399  0.5704  0.0262
 3161SOL    HW1 9927   2.659   4.683   4.961  0.4322 -0.3083  0.6081
 3161SOL    HW2 9928   2.530   4.638   5.026 -0.1094  0.0154 -0.2230
 3162SOL     OW 9929   6.070   3.767   4.965  0.2248  0.4191 -0.2454
 3162SOL    HW1 9930   6.025   3.711   4.902  0.8420  0.7079 -0.9584
 3162SOL    HW2 9931   6.027   3.853   4.955 -0.1126  0.3028  0.1962
 3163SOL     OW 9932   3.196   0.039   1.948  0.4480 -0.1516 -0.2595
 3163SOL    HW1 9933   3.133   0.059   2.017  1.9231 -0.9519  1.4030
 3163SOL    HW2 9934   3.199  -0.056   1.945  0.0396 -0.1460 -1.8286
 3164SOL     OW 9935   5.300   0.213   4.450  0.4256  0.4990  0.3815
 3164SOL    HW1 9936   5.323   0.262   4.529  0.3094  0.8556  0.1917
 3164SOL    HW2 9937   5.288   0.123   4.481  0.7234  0.5707  0.7124
 3165SOL     OW 9938   4.080   0.326   0.141 -0.4128 -0.1146 -0.4155
 3165SOL    HW1 9939   4.147   0.289   0.084 -0.5803 -1.1664  0.0368
 3165SOL    HW2 9940   4.066   0.259   0.208  0.7166  1.5735  1.6579
 3166SOL     OW 9941   4.129   3.218   3.717 -0.5396  0.1198 -0.2525
 3166SOL    HW1 9942   4.083   3.135   3.702 -0.6517  0.2320 -0.5341
 3166SOL    HW2 9943   4.063   3.274   3.759 -0.5458  0.1548 -0.3090
 3167SOL     OW 9944   3.341   0.876   5.834  0.4860 -0.8788 -0.2980
 3167SOL    HW1 9945   3.340   0.954   5.779  1.7063 -0.3578  0.3782
 3167SOL    HW2 9946   3.384   0.809   5.781  1.0586 -0.5723 -0.2232
 3168SOL     OW 9947   1.677   3.010   4.952  0.2650 -0.5998 -1.1016
 3168SOL    HW1 9948   1.590   2.981   4.923  0.1345 -1.0389 -0.3010
 3168SOL    HW2 9949   1.733   2.933   4.942 -0.1632 -1.3117  1.3669
 3169SOL     OW 9950   4.596   0.299   5.381 -0.2796  0.7262 -0.1501
 3169SOL    HW1 9951   4.552   0.216   5.361  2.1626 -1.0037  1.1072
 3169SOL    HW2 9952   4.634   0.327   5.298 -0.7833  0.4114 -0.4971
 3170SOL     OW 9953   5.559   2.775   0.536  0.4161 -0.7214 -0.0595
 3170SOL    HW1 9954   5.628   2.765   0.602 -0.7020 -0.3780  1.2250
 3170SOL    HW2 9955   5.587   2.850   0.483 -0.7845  2.0983  2.9571
 3171SOL     OW 9956   3.639   2.309   0.734  0.5430  0.1223  0.1032
 3171SOL    HW1 9957   3.698   2.311   0.659  0.3046  0.5087 -0.0790
 3171SOL    HW2 9958   3.694   2.327   0.810  0.4969  1.5376 -0.1772
 3172SOL     OW 9959   0.394   1.625   4.090 -0.8596 -0.2040 -0.1217
 3172SOL    HW1 9960   0.471   1.654   4.139 -1.3593  0.6265  0.2042
 3172SOL    HW2 9961   0.327   1.690   4.111 -0.8755  0.6581 -2.5481
 3173SOL     OW 9962   1.028   2.535   5.266 -0.7372 -0.0605  0.1674
 3173SOL    HW1 9963   1.084   2.589   5.322 -0.5646  1.4176 -1.3292
 3173SOL    HW2 9964   0.965   2.596   5.229 -1.0190 -1.0244 -1.0202
 3174SOL     OW 9965   2.610   0.008   5.420 -0.1880 -0.2383  0.0051
 3174SOL    HW1 9966   2.564  -0.011   5.338  3.0783 -0.8586 -1.8634
 3174SOL    HW2 9967   2.673  -0.064   5.429  2.2970  1.8816  0.8589
 3175SOL     OW 9968   1.507   0.474   2.876  0.0978 -0.6056 -0.0330
 3175SOL    HW1 9969   1.591   0.471   2.922 -0.4547 -0.6454  0.9997
 3175SOL    HW2 9970   1.454   0.534   2.928 -0.5824 -0.7400 -0.5650
 3176SOL     OW 9971   1.906   5.522   1.858 -0.4170 -0.2538 -0.3597
 3176SOL    HW1 9972   1.970   5.460   1.894  1.3689  0.1737 -2.5657
 3176SOL    HW2 9973   1.949   5.607   1.865 -1.9727  0.4852  0.6929
 3177SOL     OW 9974   3.424   1.073   2.325 -0.1040  0.0081  0.4024
 3177SOL    HW1 9975   3.517   1.066   2.345 -0.0893  1.5640  1.0261
 3177SOL    HW2 9976   3.415   1.039   2.236  1.2501  0.8711 -0.0962
 3178SOL     OW 9977   3.084   5.439   2.557 -0.0543 -0.4440 -0.5519
 3178SOL    HW1 9978   3.178   5.456   2.547 -0.1965 -0.1005 -1.4735
 3178SOL    HW2 9979   3.079   5.350   2.591  0.6074 -0.4406 -0.4336
 3179SOL     OW 9980   2.633   2.647   4.269  0.1592 -0.0080 -0.1242
 3179SOL    HW1 9981   2.603   2.731   4.235  1.3252  0.0304 -1.1213
 3179SOL    HW2 9982   2.664   2.599   4.192  1.3676 -0.5570  0.6660
 3180SOL     OW 9983   5.115   1.417   5.566 -0.1683  0.2161  0.5244
 3180SOL    HW1 9984   5.101   1.500   5.520  0.9023  0.0942 -0.0486
 3180SOL    HW2 9985   5.187   1.375   5.518  0.3435 -0.3417  1.7470
 3181SOL     OW 9986   2.818   5.769   3.296 -0.4224 -0.2919  0.2972
 3181SOL    HW1 9987   2.814   5.749   3.390 -2.0490  3.5363  1.2590
 3181SOL    HW2 9988   2.907   5.800   3.282 -0.2214 -0.7196  0.6300
 3182SOL     OW 9989   0.167   2.974   2.877 -0.1611 -0.1937  0.1072
 3182SOL    HW1 9990   0.224   3.049   2.893  1.8303 -1.4952 -0.4600
 3182SOL    HW2 9991   0.227   2.905   2.846 -2.0877 -1.5852 -0.7178
 3183SOL     OW 9992   2.405   4.225   1.882  0.4517  0.2447 -0.5570
 3183SOL    HW1 9993   2.363   4.257   1.962  0.2867  0.6479 -0.7998
 3183SOL    HW2 9994   2.381   4.133   1.877  0.6745  0.1536 -0.0055
 3184SOL     OW 9995   5.814   5.474   0.655  0.4601  0.2916 -0.2089
 3184SOL    HW1 9996   5.879   5.542   0.642  0.4790  0.9109  2.4942
 3184SOL    HW2 9997   5.756   5.481   0.579  1.4155  2.2104 -0.8159
 3185SOL     OW 9998   1.629   5.136   3.740 -0.5138  0.4150  0.2734
 3185SOL    HW1 9999   1.673   5.151   3.824 -1.9321  0.5196  1.0236
 3185SOL    HW210000   1.698   5.103   3.683  0.2232 -0.8851  1.8434
 3186SOL     OW10001   0.478   5.507   4.367  0.0386  0.2884 -0.4662
 3186SOL    HW110002   0.388   5.500   4.396  0.0159  1.9433 -0.0392
 3186SOL    HW210003   0.529   5.464   4.436 -0.5158 -2.8647 -1.8654
 3187SOL     OW10004   3.111   2.579   3.646  0.4340  0.0767 -0.0063
 3187SOL    HW110005   3.160   2.581   3.728  1.3668 -0.4110 -0.5329
 3187SOL    HW210006   3.177   2.556   3.580 -0.4240 -0.1445 -0.7958
 3188SOL     OW10007   3.921   4.147   2.080 -0.4942  0.3761  0.5570
 3188SOL    HW110008   3.847   4.208   2.090 -0.6902  0.3891 -0.7569
 3188SOL    HW210009   3.962   4.174   1.998 -2.1663 -2.8604 -1.5799
 3189SOL     OW10010   3.321   4.946   4.114 -0.0667 -0.1142 -0.7610
 3189SOL    HW110011   3.263   4.983   4.181  0.6543 -1.7474  0.8474
 3189SOL    HW210012   3.275   4.962   4.032 -0.7116  2.4823  0.0149
 3190SOL     OW10013   2.197   2.892   3.760  0.0292 -0.4698  0.4785
 3190SOL    HW110014   2.194   2.877   3.855 -0.8329  0.4331  0.6123
 3190SOL    HW210015   2.288   2.916   3.742 -0.3184  1.8376  1.5041
 3191SOL     OW10016   4.066   5.205   2.600  0.1686 -0.1139  0.6017
 3191SOL    HW110017   4.090   5.216   2.508 -1.9463  1.8467  0.1919
 3191SOL    HW210018   3.974   5.178   2.598  0.2732 -0.6716  2.1268
 3192SOL     OW10019   3.223   4.730   5.020 -0.6992 -0.2616  1.0311
 3192SOL    HW110020   3.220   4.810   5.073  0.7337  0.3468  0.2681
 3192SOL    HW210021   3.291   4.677   5.061  0.7925  0.4330 -0.4087
 3193SOL     OW10022   1.155   1.060   5.533 -0.8982  0.2340  0.3360
 3193SOL    HW110023   1.197   1.140   5.564 -2.3371  0.9593  0.4694
 3193SOL    HW210024   1.131   1.013   5.613  1.6996 -1.3627  0.3023
 3194SOL     OW10025   3.032   2.522   4.339  0.6657 -0.0981 -0.0029
 3194SOL    HW110026   3.024   2.592   4.274 -0.6941  0.5276  0.8045
 3194SOL    HW210027   3.036   2.568   4.423 -0.4201 -0.9726  0.5561
 3195SOL     OW10028   4.252   0.421   5.536  0.2354  0.6926  0.0194
 3195SOL    HW110029   4.160   0.394   5.539 -0.3922  2.7335  2.2595
 3195SOL    HW210030   4.272   0.448   5.626  3.2012 -0.0784 -0.2978
 3196SOL     OW10031   2.133   3.113   3.487 -0.2697 -0.0346  0.0786
 3196SOL    HW110032   2.072   3.073   3.425  1.8763 -2.8439 -0.4449
 3196SOL    HW210033   2.127   3.059   3.566  0.8316  0.2167  0.3557
 3197SOL     OW10034   2.631   1.006   5.801 -0.0585  0.4943  0.9331
 3197SOL    HW110035   2.632   1.099   5.823  1.3086  1.1516 -1.6069
 3197SOL    HW210036   2.553   0.995   5.746 -0.0772  0.1573  1.0226
 3198SOL     OW10037   0.202   5.567   2.393  0.0177  0.2723  0.3848
 3198SOL    HW110038   0.241   5.653   2.379  0.0976  0.5566  2.1293
 3198SOL    HW210039   0.249   5.510   2.333  1.7539  0.9789  0.9806
 3199SOL     OW10040   1.233   5.169   5.431 -0.4363 -0.3184 -0.8123
 3199SOL    HW110041   1.235   5.263   5.410 -0.7503 -0.4149 -1.3021
 3199SOL    HW210042   1.179   5.163   5.510  1.2624  0.1188  0.4160
 3200SOL     OW10043   3.425   5.095   1.445  0.1770 -0.1227 -0.2761
 3200SOL    HW110044   3.417   5.004   1.473  0.5876 -0.2969 -0.6937
 3200SOL    HW210045   3.347   5.138   1.479  0.7012 -0.2864  1.2191
 3201SOL     OW10046   2.982   5.627   2.006 -0.2434 -0.4302  0.5411
 3201SOL    HW110047   3.058   5.571   1.990  0.1509 -0.2026  1.4943
 3201SOL    HW210048   2.909   5.566   2.018 -0.4511 -0.6264 -1.3649
 3202SOL     OW10049   0.129   4.078   3.917  0.6513  0.5083  0.4556
 3202SOL    HW110050   0.126   4.123   4.001  0.8821  0.0628  0.7074
 3202SOL    HW210051   0.038   4.078   3.887  0.7853  1.9617 -0.0053
 3203SOL     OW10052   3.782   2.962   4.207 -0.2277 -0.4569  0.1325
 3203SOL    HW110053   3.853   2.926   4.260  0.6333  0.4555 -0.3596
 3203SOL    HW210054   3.709   2.972   4.268  0.4298 -0.3439  0.9190
 3204SOL     OW10055   2.367   3.455   1.091 -0.7900 -0.0902  0.2931
 3204SOL    HW110056   2.429   3.527   1.106 -1.1836  0.3231 -0.0348
 3204SOL    HW210057   2.282   3.493   1.111 -0.8455 -1.0220  2.0056
 3205SOL     OW10058   1.184   2.230   2.045  0.1885  0.2029 -0.0700
 3205SOL    HW110059   1.229   2.187   2.117  0.2482  0.1684 -0.1277
 3205SOL    HW210060   1.136   2.301   2.086  1.7833  1.4277 -0.2300
 3206SOL     OW10061   2.749   0.821   3.995  0.6266  0.0779  0.1521
 3206SOL    HW110062   2.734   0.892   4.058  2.0509  0.2532  0.3425
 3206SOL    HW210063   2.842   0.829   3.973  0.0217  0.6115 -2.6970
 3207SOL     OW10064   5.909   4.435   2.533 -0.2313  0.8276  0.0244
 3207SOL    HW110065   5.868   4.380   2.600  0.7874  0.9513  0.7781
 3207SOL    HW210066   5.908   4.523   2.572  0.3701  0.8995 -0.1159
 3208SOL     OW10067   3.134   0.270   2.764  0.0477 -0.2538 -0.5404
 3208SOL    HW110068   3.201   0.337   2.752 -2.1304  1.7798 -2.0198
 3208SOL    HW210069   3.074   0.282   2.691 -2.6123 -1.1699  1.3422
 3209SOL     OW10070   5.683   4.741   2.374 -0.3079  0.0457 -0.1682
 3209SOL    HW110071   5.680   4.815   2.313 -0.4878  0.1830  0.0080
 3209SOL    HW210072   5.667   4.664   2.319 -0.6825  0.1892 -0.2591
 3210SOL     OW10073   1.813   0.095   4.078 -0.3451 -0.0924 -0.0137
 3210SOL    HW110074   1.883   0.074   4.140  0.7692  0.8618 -0.8970
 3210SOL    HW210075   1.761   0.015   4.072  0.0495 -0.4803  1.4624
 3211SOL     OW10076   2.438   2.519   4.936 -0.4630 -0.1657  0.4727
 3211SOL    HW110077   2.516   2.472   4.906  1.5425  1.7828  2.3402
 3211SOL    HW210078   2.384   2.451   4.975 -0.2788 -1.7328 -1.7530
 3212SOL     OW10079   5.978   3.360   0.524  0.3373 -0.7648 -0.4656
 3212SOL    HW110080   6.006   3.436   0.575  2.0144 -1.2026 -0.6720
 3212SOL    HW210081   6.054   3.301   0.526 -0.9139 -2.4333 -0.3196
 3213SOL     OW10082   5.917   3.785   0.191  0.8857  0.3394  0.2265
 3213SOL    HW110083   5.995   3.765   0.139  1.3489  1.3399  0.4918
 3213SOL    HW210084   5.940   3.757   0.280  0.7300  0.1198  0.1961
 3214SOL     OW10085   5.392   4.613   3.223 -0.1431  0.2234 -0.7972
 3214SOL    HW110086   5.297   4.611   3.210 -0.0780 -1.0908 -1.1813
 3214SOL    HW210087   5.411   4.706   3.239 -1.3781  0.6363 -1.5146
 3215SOL     OW10088   2.058   0.187   5.829 -0.1391  0.5188 -0.4664
 3215SOL    HW110089   2.015   0.265   5.863 -0.8230  0.0372 -0.1874
 3215SOL    HW210090   2.002   0.159   5.757 -0.9066 -0.7092  0.5617
 3216SOL     OW10091   1.007   5.787   5.905 -0.0006  0.0701 -0.3849
 3216SOL    HW110092   1.015   5.716   5.841  0.1325 -0.5488  0.3005
 3216SOL    HW210093   1.044   5.863   5.860  0.4624 -0.4426 -0.9033
 3217SOL     OW10094   5.327   5.308   4.797  0.3830  0.0793  0.3402
 3217SOL    HW110095   5.298   5.390   4.836  0.2207 -0.1471  0.7025
 3217SOL    HW210096   5.311   5.242   4.865  1.4590 -0.1043  0.4268
 3218SOL     OW10097   5.485   4.321   1.373  0.4588 -0.5839  0.4031
 3218SOL    HW110098   5.462   4.307   1.281 -0.9746  1.7192  0.3441
 3218SOL    HW210099   5.433   4.397   1.400  0.8489 -1.1915  3.1336
 3219SOL     OW10100   0.178   1.985   4.026 -0.7748  0.9285  0.3366
 3219SOL    HW110101   0.220   2.042   3.961 -0.7646  1.2757  0.6493
 3219SOL    HW210102   0.148   1.910   3.975  0.7909  0.3655  0.2154
 3220SOL     OW10103   5.591   1.084   1.083  0.0170  0.1139 -0.5751
 3220SOL    HW110104   5.574   1.178   1.095 -1.2328 -0.1345 -0.3036
 3220SOL    HW210105   5.507   1.048   1.055 -0.1118 -1.2926  1.4672
 3221SOL     OW10106   5.649   4.956   0.791  0.0929  0.3384  0.5437
 3221SOL    HW110107   5.690   5.008   0.860  0.9783  0.7051 -0.2442
 3221SOL    HW210108   5.691   4.870   0.797  1.0857  0.7453 -0.3307
 3222SOL     OW10109   0.251   2.866   0.608 -0.1131  0.4319  0.1156
 3222SOL    HW110110   0.169   2.883   0.654  0.2783 -0.8566  1.3580
 3222SOL    HW210111   0.319   2.878   0.674  0.4909 -1.0726 -0.1872
 3223SOL     OW10112   4.677   0.308   5.129 -0.0955  0.1792  0.2148
 3223SOL    HW110113   4.700   0.219   5.101 -1.7332 -0.3955  0.5414
 3223SOL    HW210114   4.646   0.351   5.049 -2.6709 -0.7498  0.6028
 3224SOL     OW10115   0.715   2.096   1.233  0.0606 -0.5625 -0.1347
 3224SOL    HW110116   0.744   2.026   1.291  0.4757 -0.3765 -0.1066
 3224SOL    HW210117   0.774   2.169   1.254  0.6474 -0.6933 -1.2365
 3225SOL     OW10118   2.885   5.887   3.984 -0.2506 -0.5318 -0.2453
 3225SOL    HW110119   2.845   5.974   3.995 -1.6090 -1.3138  1.4183
 3225SOL    HW210120   2.978   5.901   4.003 -0.0012  0.9158 -2.1076
 3226SOL     OW10121   4.805   2.618   3.384 -0.1213  0.4899  0.1264
 3226SOL    HW110122   4.737   2.684   3.375 -0.0191  0.5024 -0.5745
 3226SOL    HW210123   4.857   2.626   3.304  1.2291  1.0792  1.0230
 3227SOL     OW10124   0.922   0.976   4.118 -0.0682  0.1151  0.7713
 3227SOL    HW110125   0.840   0.927   4.115  0.6492 -1.0877 -0.7315
 3227SOL    HW210126   0.921   1.027   4.037  1.7552 -1.8786 -0.6156
 3228SOL     OW10127   4.111   5.716   1.232  0.6369 -0.1976  0.1865
 3228SOL    HW110128   4.104   5.808   1.256  0.2441 -0.3130  0.5256
 3228SOL    HW210129   4.192   5.686   1.275 -0.4559 -0.5996  2.0783
 3229SOL     OW10130   4.357   4.158   6.058 -0.2293 -0.7537  0.6847
 3229SOL    HW110131   4.438   4.142   6.106 -0.7024 -1.8132  1.1649
 3229SOL    HW210132   4.290   4.111   6.108 -1.3100  0.8344  0.7977
 3230SOL     OW10133   2.168   0.372   5.564  0.7059 -0.3697  0.1140
 3230SOL    HW110134   2.132   0.323   5.489 -1.1994  0.6506  0.3077
 3230SOL    HW210135   2.098   0.433   5.589  1.9776  0.5462  1.6175
 3231SOL     OW10136   1.790   0.325   5.741  0.7015 -0.2351 -0.1125
 3231SOL    HW110137   1.772   0.234   5.764 -1.0886  0.1159  0.0765
 3231SOL    HW210138   1.709   0.355   5.699  1.3322  1.2001 -0.3569
 3232SOL     OW10139   1.339   5.111   6.000 -0.1315 -0.3756 -0.4417
 3232SOL    HW110140   1.394   5.045   6.042  0.2449 -1.0381 -1.9104
 3232SOL    HW210141   1.329   5.080   5.910 -1.0527  0.8984 -0.8078
 3233SOL     OW10142   1.920   1.496   4.554  0.2019  0.6845 -0.5192
 3233SOL    HW110143   1.998   1.523   4.603  0.0962  0.8049 -0.4176
 3233SOL    HW210144   1.943   1.410   4.518  0.4913  0.8491 -0.7352
 3234SOL     OW10145   3.036   4.289   5.934  0.6699  0.1997 -0.6456
 3234SOL    HW110146   2.942   4.299   5.940  0.8490  1.7970 -0.1072
 3234SOL    HW210147   3.049   4.197   5.911 -1.0514  0.2975 -2.2160
 3235SOL     OW10148   6.063   1.665   1.360 -0.1056  0.0471  0.6272
 3235SOL    HW110149   6.014   1.591   1.323 -1.7480  0.9948  0.8123
 3235SOL    HW210150   6.090   1.635   1.447 -1.4686 -0.0762  1.0317
 3236SOL     OW10151   1.663   0.430   1.155 -0.4453 -0.0948 -0.2768
 3236SOL    HW110152   1.689   0.368   1.086  1.3034  1.2506 -0.9211
 3236SOL    HW210153   1.731   0.421   1.222 -0.9828  0.0970  0.3039
 3237SOL     OW10154   1.919   0.740   3.672  0.0099  0.0374 -0.6883
 3237SOL    HW110155   1.872   0.812   3.715 -0.0122 -0.3098 -0.1319
 3237SOL    HW210156   1.866   0.720   3.595 -1.8590 -1.6504  0.9260
 3238SOL     OW10157   4.861   4.744   3.900  0.1913  0.1231  0.0067
 3238SOL    HW110158   4.848   4.839   3.896 -0.8280  0.0073  0.3021
 3238SOL    HW210159   4.908   4.723   3.820 -0.0250  0.8176 -0.3139
 3239SOL     OW10160   0.525   3.680   4.764 -0.1809 -0.1964 -0.0344
 3239SOL    HW110161   0.563   3.764   4.738  0.2865  0.3793  2.3068
 3239SOL    HW210162   0.541   3.674   4.858 -2.9713 -1.4628  0.4685
 3240SOL     OW10163   5.443   3.295   1.948 -0.0086 -0.5221  0.0281
 3240SOL    HW110164   5.360   3.340   1.956  0.1551 -0.0882 -0.6443
 3240SOL    HW210165   5.443   3.260   1.859  0.3015 -0.9713  0.2022
 3241SOL     OW10166   1.953   3.852   1.429  0.2180 -0.6818  0.6849
 3241SOL    HW110167   2.039   3.846   1.469  1.0613  1.2322 -0.6961
 3241SOL    HW210168   1.950   3.939   1.390 -0.9963 -1.8723 -2.2195
 3242SOL     OW10169   4.811   2.101   4.296  0.0102 -0.4728  0.0022
 3242SOL    HW110170   4.822   2.161   4.222 -1.8855  1.5587  1.2519
 3242SOL    HW210171   4.900   2.092   4.332  0.5085  0.7757 -0.8385
 3243SOL     OW10172   0.519   4.237   6.035  0.2497  0.1963 -0.4714
 3243SOL    HW110173   0.440   4.265   6.081 -0.5581  0.4185 -1.9322
 3243SOL    HW210174   0.591   4.280   6.082 -0.6506  1.5624 -0.2890
 3244SOL     OW10175   5.332   1.402   2.831 -0.1458  0.4519 -0.0944
 3244SOL    HW110176   5.408   1.458   2.848 -0.2276  0.0100  2.0362
 3244SOL    HW210177   5.328   1.344   2.907 -1.4095 -0.9349 -1.1587
 3245SOL     OW10178   2.292   3.387   5.657 -0.2382 -0.0745 -0.4126
 3245SOL    HW110179   2.221   3.385   5.593 -0.2906  0.4363 -0.3698
 3245SOL    HW210180   2.371   3.374   5.605 -0.3194 -0.1211 -0.5254
 3246SOL     OW10181   5.601   2.747   3.619 -0.3887 -0.7811  0.3944
 3246SOL    HW110182   5.531   2.692   3.582 -2.0834  0.6442  1.3263
 3246SOL    HW210183   5.625   2.703   3.700  0.2113 -1.5695 -0.1950
 3247SOL     OW10184   0.775   5.391   1.682  0.1781 -0.2151 -0.0528
 3247SOL    HW110185   0.741   5.324   1.742  0.0619 -1.1191 -1.0922
 3247SOL    HW210186   0.824   5.451   1.738 -0.3010 -0.7814  1.0034
 3248SOL     OW10187   4.392   0.416   4.141 -0.2163  0.4934  0.0321
 3248SOL    HW110188   4.300   0.399   4.158 -0.6713  1.8965 -0.9288
 3248SOL    HW210189   4.411   0.496   4.190  0.1411  0.9494 -0.8381
 3249SOL     OW10190   2.647   3.361   0.495  0.1119 -0.1460  0.3168
 3249SOL    HW110191   2.715   3.293   0.493  0.2662  0.0012 -2.5429
 3249SOL    HW210192   2.639   3.390   0.405 -2.3065  1.3497  0.9280
 3250SOL     OW10193   2.032   4.917   2.854 -0.4689 -0.1912 -0.7128
 3250SOL    HW110194   1.949   4.947   2.819  0.1423  1.3505 -0.9214
 3250SOL    HW210195   2.048   4.973   2.930 -1.0556 -2.4993  1.2365
 3251SOL     OW10196   3.002   1.504   2.669  0.5888  0.2460 -0.6798
 3251SOL    HW110197   3.045   1.578   2.711  1.2755 -0.6276  0.2198
 3251SOL    HW210198   2.977   1.536   2.583 -0.8405  2.0978  0.3485
 3252SOL     OW10199   0.805   5.375   4.996 -0.0275 -0.6465  0.2876
 3252SOL    HW110200   0.768   5.372   4.908  0.6887  0.4114 -0.0767
 3252SOL    HW210201   0.818   5.284   5.021 -0.4682 -0.9575 -0.5977
 3253SOL     OW10202   0.292   3.056   3.896  0.4763  0.5493  0.2974
 3253SOL    HW110203   0.277   3.130   3.838 -2.0054  0.7440  1.0771
 3253SOL    HW210204   0.373   3.076   3.941  0.8663  1.8325 -0.9244
 3254SOL     OW10205   5.907   5.560   2.757  0.0865  0.1261  0.2815
 3254SOL    HW110206   5.919   5.469   2.729 -0.2147  0.4799 -1.0910
 3254SOL    HW210207   5.814   5.568   2.777  0.3713 -0.2320  1.8734
 3255SOL     OW10208   5.940   3.808   2.759  0.1772  0.8185  0.0314
 3255SOL    HW110209   5.868   3.746   2.762 -1.0392  2.2041  2.2536
 3255SOL    HW210210   6.015   3.761   2.796 -0.0640 -0.0661 -0.5977
 3256SOL     OW10211   3.721   1.307   2.323 -0.2672  0.0335  0.2228
 3256SOL    HW110212   3.662   1.275   2.255  0.3101  0.4566 -0.4792
 3256SOL    HW210213   3.795   1.344   2.276  1.5370 -2.2641  1.1151
 3257SOL     OW10214   4.260   4.797   1.445 -0.2302  0.1747  0.1760
 3257SOL    HW110215   4.225   4.886   1.450 -0.1559  0.2894 -1.1999
 3257SOL    HW210216   4.190   4.746   1.405 -0.1584 -0.3455  0.6913
 3258SOL     OW10217   1.695   0.559   0.800  0.2805 -0.4703 -0.0858
 3258SOL    HW110218   1.780   0.522   0.822  0.1548 -0.0387  1.2040
 3258SOL    HW210219   1.671   0.516   0.718  2.3535  0.4154 -1.2207
 3259SOL     OW10220   4.088   1.047   3.353  0.0042 -0.2818  0.2738
 3259SOL    HW110221   4.049   0.959   3.355 -0.0424 -0.2564  0.5689
 3259SOL    HW210222   4.129   1.053   3.267  0.7738 -0.9228  0.5801
 3260SOL     OW10223   0.166   1.079   4.881 -0.4699  0.7021  0.0366
 3260SOL    HW110224   0.178   1.120   4.796 -2.5220  1.0530 -0.1343
 3260SOL    HW210225   0.167   1.152   4.944  1.8183  0.3716  0.4442
 3261SOL     OW10226   2.190   1.640   0.801  0.0038  0.7108  0.2082
 3261SOL    HW110227   2.132   1.613   0.872  0.1871  0.5531  0.2977
 3261SOL    HW210228   2.206   1.560   0.752 -1.3364  1.0883 -0.9043
 3262SOL     OW10229   2.256   3.971   2.190  0.1046 -0.2793  0.5400
 3262SOL    HW110230   2.256   4.044   2.252  2.6090 -1.0908  1.6137
 3262SOL    HW210231   2.345   3.966   2.158 -0.7613 -0.9080 -1.9827
 3263SOL     OW10232   2.773   1.315   5.245 -0.0527  0.1520  0.6036
 3263SOL    HW110233   2.708   1.273   5.301 -1.8215  1.6082 -0.2594
 3263SOL    HW210234   2.857   1.286   5.280 -1.0919  0.0885  3.2450
 3264SOL     OW10235   2.539   4.768   1.871 -0.0398  0.0769 -0.1503
 3264SOL    HW110236   2.591   4.829   1.819 -1.2041  2.0476  0.8709
 3264SOL    HW210237   2.584   4.764   1.955 -0.4299  0.2157  0.0672
 3265SOL     OW10238   0.329   5.826   2.759 -0.5088 -0.1602  0.2921
 3265SOL    HW110239   0.243   5.859   2.732  0.3269  0.6816 -1.4652
 3265SOL    HW210240   0.333   5.738   2.721 -0.5841 -0.1874  0.3470
 3266SOL     OW10241   4.910   6.022   3.351 -0.3325  0.6650  0.0136
 3266SOL    HW110242   4.960   6.093   3.390  1.9672 -2.2862  2.9578
 3266SOL    HW210243   4.819   6.040   3.377  0.4436  1.6036  2.2998
 3267SOL     OW10244   1.358   0.346   4.212 -0.4669 -0.1750  0.2136
 3267SOL    HW110245   1.441   0.386   4.185 -0.7743  0.0950 -0.3598
 3267SOL    HW210246   1.383   0.273   4.268  0.1383  0.2860  0.5648
 3268SOL     OW10247   0.363   4.393   1.630  0.1626 -0.1753 -0.0672
 3268SOL    HW110248   0.450   4.419   1.661  0.1817 -0.9465  0.5475
 3268SOL    HW210249   0.318   4.359   1.708  0.0155 -1.6209 -0.7556
 3269SOL     OW10250   5.407   4.422   4.074  0.4074 -0.3303  0.7051
 3269SOL    HW110251   5.394   4.465   4.158 -1.0638  2.0485 -0.6182
 3269SOL    HW210252   5.501   4.404   4.070  0.6260  0.2450  2.4773
 3270SOL     OW10253   5.634   3.787   5.099  0.3898  0.0312 -0.1199
 3270SOL    HW110254   5.648   3.711   5.155 -0.1286  1.0092  1.4190
 3270SOL    HW210255   5.707   3.846   5.120  1.0617 -0.2218 -1.6528
 3271SOL     OW10256   1.195   1.912   3.259 -0.0751 -0.1044  0.4874
 3271SOL    HW110257   1.147   1.947   3.334  2.2276  0.8867  1.6035
 3271SOL    HW210258   1.238   1.834   3.293  0.2855 -0.1524 -0.0743
 3272SOL     OW10259   0.957   2.512   2.935 -0.3999 -0.3652  0.5999
 3272SOL    HW110260   1.029   2.523   2.997 -0.4304 -0.8607  0.7206
 3272SOL    HW210261   0.935   2.602   2.909  0.1286 -0.1999  0.7106
 3273SOL     OW10262   3.759   5.778   3.686 -0.4281  0.2074 -0.3706
 3273SOL    HW110263   3.844   5.793   3.645  0.2980 -2.0604  0.1380
 3273SOL    HW210264   3.780   5.764   3.779 -1.4281  0.2553 -0.1274
 3274SOL     OW10265   5.945   5.455   4.189  0.1073 -0.9915 -0.3199
 3274SOL    HW110266   6.039   5.435   4.189  0.1951 -0.8740 -2.4513
 3274SOL    HW210267   5.933   5.517   4.260  2.0260  0.5001 -1.1909
 3275SOL     OW10268   2.072   5.384   2.030  0.2941  0.1574 -0.6546
 3275SOL    HW110269   2.035   5.407   2.115  0.3480  2.7477 -1.2588
 3275SOL    HW210270   2.160   5.423   2.030  0.1861  0.4777 -1.9775
 3276SOL     OW10271   3.214   0.678   4.360 -0.3547 -1.1462 -0.0787
 3276SOL    HW110272   3.187   0.590   4.333  0.3574 -0.6815 -2.5533
 3276SOL    HW210273   3.233   0.724   4.278 -2.1516  1.8455  1.0192
 3277SOL     OW10274   0.449   1.517   2.106 -0.3442 -0.0468 -0.3053
 3277SOL    HW110275   0.482   1.463   2.178  0.3651 -1.0274 -1.3308
 3277SOL    HW210276   0.368   1.556   2.140  0.0716 -0.3325  1.0748
 3278SOL     OW10277   4.435   1.938   3.644  0.2524 -0.1133 -0.0452
 3278SOL    HW110278   4.383   1.889   3.708  1.4401  0.0851  1.1042
 3278SOL    HW210279   4.487   1.871   3.600  1.8458  0.0411  1.4987
 3279SOL     OW10280   1.177   4.718   2.822 -0.2224  0.4994  0.3458
 3279SOL    HW110281   1.103   4.671   2.784  0.2045 -1.1670  1.4837
 3279SOL    HW210282   1.185   4.797   2.769 -3.7671  1.5246  1.1098
 3280SOL     OW10283   3.828   6.053   3.503 -0.3084  0.4010 -0.0759
 3280SOL    HW110284   3.797   6.095   3.583 -0.8584  1.1859 -0.6821
 3280SOL    HW210285   3.847   6.126   3.444  0.7767 -0.1395 -0.4219
 3281SOL     OW10286   5.273   1.177   2.952  0.5033  0.0474  0.3506
 3281SOL    HW110287   5.252   1.145   2.864 -0.6240  1.8797 -0.0934
 3281SOL    HW210288   5.220   1.122   3.010  1.1556 -1.0852 -0.0842
 3282SOL     OW10289   5.855   3.953   5.909  0.0895 -0.1530 -0.4811
 3282SOL    HW110290   5.853   3.978   6.002 -1.5862 -0.2790 -0.4565
 3282SOL    HW210291   5.765   3.930   5.889  0.3703  0.1964 -2.2436
 3283SOL     OW10292   2.045   2.060   5.665  0.0174  0.1303 -0.9016
 3283SOL    HW110293   2.070   2.022   5.749 -0.7588  0.4176 -0.5313
 3283SOL    HW210294   2.094   2.009   5.600  1.0331  0.2496 -0.2524
 3284SOL     OW10295   3.564   5.926   3.509  0.5612 -0.3867  0.0039
 3284SOL    HW110296   3.614   6.003   3.483 -0.4794  0.4470  0.3973
 3284SOL    HW210297   3.619   5.883   3.574  1.9913 -1.0380 -1.5934
 3285SOL     OW10298   3.441   4.237   6.101 -0.3763  0.0571 -0.4491
 3285SOL    HW110299   3.524   4.248   6.147 -1.3303 -1.0422  1.6718
 3285SOL    HW210300   3.384   4.304   6.139 -0.9912 -0.4090 -0.5348
 3286SOL     OW10301   1.967   3.390   5.870  0.4534 -0.0591 -0.3886
 3286SOL    HW110302   1.872   3.378   5.867  0.2670  1.0507  0.5248
 3286SOL    HW210303   1.979   3.483   5.889  1.6999 -0.4873  1.0812
 3287SOL     OW10304   2.775   2.650   1.238 -0.0174  0.1033  0.3714
 3287SOL    HW110305   2.796   2.660   1.145  2.1068 -0.9201  0.6747
 3287SOL    HW210306   2.694   2.601   1.239 -0.1055  0.1827 -0.9382
 3288SOL     OW10307   1.571   3.167   1.304  0.3783 -0.5071 -0.6801
 3288SOL    HW110308   1.621   3.192   1.382 -0.6462 -1.5543  0.3570
 3288SOL    HW210309   1.530   3.084   1.328 -0.1638 -0.7246 -2.2606
 3289SOL     OW10310   1.979   0.900   4.504  0.3202 -0.1010 -0.0484
 3289SOL    HW110311   1.916   0.911   4.433 -0.0543 -1.4624  0.0382
 3289SOL    HW210312   1.967   0.977   4.559 -1.4028 -0.4113  0.0605
 3290SOL     OW10313   2.824   1.572   1.720  0.2478 -0.4040 -0.2580
 3290SOL    HW110314   2.766   1.518   1.667 -0.3406  0.2002 -0.2481
 3290SOL    HW210315   2.884   1.510   1.763 -1.1090 -1.1406  0.6204
 3291SOL     OW10316   0.154   3.994   2.083  0.3740  0.2903 -0.4008
 3291SOL    HW110317   0.213   4.056   2.041 -0.7315  1.0287 -0.8869
 3291SOL    HW210318   0.209   3.917   2.099  1.4775  0.9675 -0.8011
 3292SOL     OW10319   1.416   0.489   1.397  0.1394  0.1408  0.1988
 3292SOL    HW110320   1.409   0.570   1.448 -0.5774  0.2631 -0.0788
 3292SOL    HW210321   1.419   0.519   1.306 -0.6377 -0.1650  0.0715
 3293SOL     OW10322   4.393   2.347   2.851  0.5980  0.0572  0.1855
 3293SOL    HW110323   4.394   2.441   2.835 -1.2298  0.0682 -0.0340
 3293SOL    HW210324   4.303   2.320   2.833  0.4822 -1.3517  2.4978
 3294SOL     OW10325   0.036   0.424   3.960  0.3108 -0.3422  0.1245
 3294SOL    HW110326   0.093   0.465   4.025 -1.7782  0.7108  1.3890
 3294SOL    HW210327   0.045   0.330   3.976  0.6481 -0.1398  1.2118
 3295SOL     OW10328   0.630   1.480   5.524  0.4532 -0.1244 -0.1771
 3295SOL    HW110329   0.559   1.542   5.507 -0.9391 -0.8351  2.4919
 3295SOL    HW210330   0.601   1.398   5.485  0.8382  0.0919 -0.9445
 3296SOL     OW10331   5.873   1.444   0.130 -0.4914  0.5201  0.3421
 3296SOL    HW110332   5.900   1.499   0.056 -0.9059 -0.4470 -0.5554
 3296SOL    HW210333   5.940   1.376   0.135 -0.8519  0.1682  0.3978
 3297SOL     OW10334   1.911   1.235   2.833  0.1319  0.3883  0.0567
 3297SOL    HW110335   1.958   1.173   2.890  1.2081  0.8541 -0.2878
 3297SOL    HW210336   1.903   1.189   2.750  1.6208  0.9629 -0.4371
 3298SOL     OW10337   5.395   4.440   2.458 -0.6303  0.3161 -0.6056
 3298SOL    HW110338   5.450   4.489   2.519 -1.2531  0.5330 -0.1991
 3298SOL    HW210339   5.306   4.473   2.475 -1.1037 -1.1343 -0.1398
 3299SOL     OW10340   1.411   5.357   5.872  0.0652  0.7478  0.2950
 3299SOL    HW110341   1.405   5.425   5.938  0.7505  1.6520 -0.5501
 3299SOL    HW210342   1.455   5.284   5.915  0.6644  1.3943  0.7737
 3300SOL     OW10343   0.443   2.528   5.087 -0.0681 -0.3310  0.4808
 3300SOL    HW110344   0.406   2.567   5.008  0.2662 -1.1395 -0.0910
 3300SOL    HW210345   0.459   2.602   5.146  0.5303  0.3829 -0.5524
 3301SOL     OW10346   6.017   4.753   4.979  0.9954 -0.0580 -0.0421
 3301SOL    HW110347   5.942   4.812   4.971  1.3318  0.1502 -2.1146
 3301SOL    HW210348   6.060   4.780   5.060 -0.4782  0.5853  0.5682
 3302SOL     OW10349   4.433   4.005   5.268  0.1878  0.2888  0.2075
 3302SOL    HW110350   4.476   4.083   5.233 -1.9831  2.1053  1.2661
 3302SOL    HW210351   4.458   4.003   5.360  0.1902 -0.2460  0.1970
 3303SOL     OW10352   0.385   1.465   4.429  0.2717 -0.2540  0.4478
 3303SOL    HW110353   0.291   1.457   4.418  0.0449  0.1767  1.9070
 3303SOL    HW210354   0.398   1.468   4.524  1.8357 -1.3683  0.3113
 3304SOL     OW10355   4.061   1.928   4.458  0.3014  0.0869  0.1661
 3304SOL    HW110356   4.150   1.897   4.441 -0.0146 -0.4374 -0.5587
 3304SOL    HW210357   4.006   1.851   4.448 -0.4926  0.8328 -1.5799
 3305SOL     OW10358   3.644   3.500   0.188  0.1963 -0.3004 -0.0468
 3305SOL    HW110359   3.730   3.540   0.177  0.2138 -0.6541 -1.2361
 3305SOL    HW210360   3.624   3.460   0.104 -1.3017  0.0961  0.0897
 3306SOL     OW10361   5.188   3.770   4.051  0.3104  0.4985  0.4350
 3306SOL    HW110362   5.122   3.707   4.024  3.0289 -2.6601  0.4950
 3306SOL    HW210363   5.172   3.847   3.996 -2.4285 -0.6489 -0.5439
 3307SOL     OW10364   2.831   6.025   3.615 -0.2530 -0.1591  0.3673
 3307SOL    HW110365   2.814   6.068   3.531  0.9187 -2.1766 -0.9687
 3307SOL    HW210366   2.906   6.073   3.651 -1.4563  1.4351  0.8504
 3308SOL     OW10367   4.191   3.878   3.141  0.3280  0.6663  0.3504
 3308SOL    HW110368   4.113   3.843   3.183  0.2370 -1.5530 -1.4204
 3308SOL    HW210369   4.241   3.920   3.211 -1.8300  1.0408  1.7420
 3309SOL     OW10370   2.885   2.273   5.325 -0.4317  0.2850  0.2501
 3309SOL    HW110371   2.881   2.369   5.317  1.9420  0.3111 -1.7470
 3309SOL    HW210372   2.867   2.241   5.237 -1.6459 -1.1857  0.9805
 3310SOL     OW10373   2.849   4.992   2.107  0.0326  0.7816  0.1484
 3310SOL    HW110374   2.903   4.962   2.179 -0.5847  0.3825  0.4586
 3310SOL    HW210375   2.759   4.970   2.133 -0.0765 -1.3760 -1.6671
 3311SOL     OW10376   2.081   5.989   4.559 -0.8955  0.4886  0.4489
 3311SOL    HW110377   2.009   6.000   4.621 -3.2195 -0.1447 -1.9656
 3311SOL    HW210378   2.116   5.902   4.578 -2.2171 -0.0987  0.2713
 3312SOL     OW10379   4.070   2.418   3.982 -0.3636  0.3929 -0.3072
 3312SOL    HW110380   4.046   2.404   3.890  1.1398 -1.5545 -0.4672
 3312SOL    HW210381   4.069   2.331   4.021 -0.2172  1.0928  1.3550
 3313SOL     OW10382   5.391   3.730   5.467  0.3744 -0.0360 -0.0660
 3313SOL    HW110383   5.410   3.686   5.384  1.8998 -0.7606  0.6385
 3313SOL    HW210384   5.470   3.779   5.487 -0.8332  2.0954 -0.1784
 3314SOL     OW10385   3.169   3.209   3.159  0.0489  0.1024 -0.4897
 3314SOL    HW110386   3.114   3.234   3.084 -0.3735 -0.4169 -0.3514
 3314SOL    HW210387   3.112   3.216   3.235  0.6693  1.3272 -0.1045
 3315SOL     OW10388   2.014   1.452   3.016  0.1669  0.0128 -0.0888
 3315SOL    HW110389   1.954   1.410   2.955 -1.0429  1.2045  0.2420
 3315SOL    HW210390   1.990   1.416   3.102  1.4555 -1.1954 -0.1946
 3316SOL     OW10391   4.190   0.657   3.065  0.2583  0.1606 -0.0473
 3316SOL    HW110392   4.218   0.634   2.977 -0.2338 -2.0283  0.3159
 3316SOL    HW210393   4.238   0.737   3.085  1.7290 -0.2630 -1.6256
 3317SOL     OW10394   0.959   2.811   2.890 -0.3286  0.7433  0.1224
 3317SOL    HW110395   0.865   2.829   2.895 -0.1645  1.6984 -0.1752
 3317SOL    HW210396   0.997   2.862   2.962 -0.1794 -0.7815  1.1946
 3318SOL     OW10397   4.993   4.802   0.405  0.0979  0.6163 -0.2762
 3318SOL    HW110398   4.906   4.833   0.380  0.5579  2.3361  0.1069
 3318SOL    HW210399   4.992   4.803   0.501 -0.4868 -2.5136 -0.1590
 3319SOL     OW10400   4.059   1.946   2.200  0.2217 -0.1710  0.1778
 3319SOL    HW110401   3.978   1.894   2.201  1.0900 -1.5807  0.1492
 3319SOL    HW210402   4.107   1.916   2.277  0.8810  0.3733 -0.0183
 3320SOL     OW10403   4.435   3.034   3.213 -0.5440  0.0622  0.0281
 3320SOL    HW110404   4.386   3.083   3.279  1.4026  0.0252  1.5946
 3320SOL    HW210405   4.408   3.072   3.130 -0.6719  2.3461  1.0546
 3321SOL     OW10406   1.645   2.825   5.229 -0.9203 -0.1513 -0.4819
 3321SOL    HW110407   1.555   2.858   5.234 -1.3598 -1.4799  2.2651
 3321SOL    HW210408   1.699   2.895   5.265 -0.8922  0.4480 -1.6605
 3322SOL     OW10409   3.235   3.974   1.034 -0.0288 -0.1876 -0.4113
 3322SOL    HW110410   3.161   4.030   1.012 -0.9261 -0.3868  1.8423
 3322SOL    HW210411   3.198   3.886   1.037  0.3963 -0.3454  0.3058
 3323SOL     OW10412   3.082   0.804   3.569  0.0343  0.1354  0.4185
 3323SOL    HW110413   3.146   0.816   3.499  1.3092  0.3653  1.5669
 3323SOL    HW210414   3.005   0.853   3.541 -0.2024 -1.2704 -1.6423
 3324SOL     OW10415   5.353   1.749   5.028 -0.6291 -0.1325  0.2459
 3324SOL    HW110416   5.330   1.724   4.939  0.5664 -1.5450  0.2971
 3324SOL    HW210417   5.410   1.679   5.059  1.2729  1.7049  1.1404
 3325SOL     OW10418   0.627   5.711   2.255 -0.4133 -0.0706 -0.2777
 3325SOL    HW110419   0.620   5.691   2.349  0.1375 -2.3613 -0.6715
 3325SOL    HW210420   0.701   5.771   2.249  1.1264 -1.7823  0.5755
 3326SOL     OW10421   2.320   1.443   4.159  0.3363 -1.0083 -0.1592
 3326SOL    HW110422   2.410   1.475   4.162  0.5729 -1.4698 -1.4799
 3326SOL    HW210423   2.317   1.387   4.081 -0.2152 -3.7240  1.6391
 3327SOL     OW10424   0.604   1.400   3.363  0.1831  0.9101  0.1009
 3327SOL    HW110425   0.556   1.364   3.437  1.2051 -1.4535 -0.2942
 3327SOL    HW210426   0.580   1.344   3.289  2.1603  0.7166 -0.4684
 3328SOL     OW10427   0.709   1.775   1.496  0.1739  0.4353  0.4187
 3328SOL    HW110428   0.784   1.738   1.543  1.1024  0.1588 -1.2102
 3328SOL    HW210429   0.746   1.810   1.415 -1.4256  0.4997 -0.3276
 3329SOL     OW10430   5.246   0.339   0.460  0.3106 -0.4719  0.2069
 3329SOL    HW110431   5.314   0.388   0.415  0.7693  1.0084  2.3524
 3329SOL    HW210432   5.206   0.285   0.392  0.5570  2.0153 -2.0861
 3330SOL     OW10433   0.467   3.182   5.047 -0.2882 -0.1911 -0.9097
 3330SOL    HW110434   0.484   3.229   4.965  0.8934 -1.5083 -1.4724
 3330SOL    HW210435   0.492   3.092   5.028  0.5626 -0.4278  1.0732
 3331SOL     OW10436   0.556   0.029   3.954  0.6306  0.0295 -0.0772
 3331SOL    HW110437   0.647   0.058   3.953  0.6255  0.0342 -0.6827
 3331SOL    HW210438   0.556  -0.051   3.901  0.5180 -0.7232  1.0089
 3332SOL     OW10439   4.817   1.658   1.917 -0.0604  0.0614  0.1756
 3332SOL    HW110440   4.734   1.638   1.873 -0.6278  2.8744 -0.2310
 3332SOL    HW210441   4.864   1.714   1.855  2.2626 -1.5265  0.3716
 3333SOL     OW10442   5.402   5.791   2.781 -0.1635  0.2787 -0.1570
 3333SOL    HW110443   5.384   5.854   2.711  1.1267  1.9382  0.9352
 3333SOL    HW210444   5.324   5.735   2.783 -0.3981  0.3734 -2.6544
 3334SOL     OW10445   4.159   2.877   2.955 -0.7295  0.2211  0.0239
 3334SOL    HW110446   4.147   2.933   2.879  0.5677  0.3760 -0.0990
 3334SOL    HW210447   4.253   2.858   2.956 -0.6643  0.4536  1.7295
 3335SOL     OW10448   4.824   4.439   3.492  0.2219 -0.1422  0.0057
 3335SOL    HW110449   4.771   4.360   3.504  1.6122 -0.9629  1.1080
 3335SOL    HW210450   4.821   4.456   3.398 -1.7684 -0.2959  0.0026
 3336SOL     OW10451   4.284   1.116   0.609 -0.0352  0.3364 -0.9670
 3336SOL    HW110452   4.301   1.095   0.701 -4.6135 -0.8197 -0.1238
 3336SOL    HW210453   4.305   1.209   0.601  1.6958  0.1564  0.8486
 3337SOL     OW10454   4.187   3.505   5.947  0.1824  0.4732 -0.3528
 3337SOL    HW110455   4.093   3.522   5.951  0.2993  1.4999 -1.2739
 3337SOL    HW210456   4.199   3.422   5.993 -1.2453  0.0348 -0.7128
 3338SOL     OW10457   4.015   5.890   0.690 -0.1417 -0.0951 -0.0392
 3338SOL    HW110458   4.104   5.900   0.656  0.0665 -1.8664 -0.0880
 3338SOL    HW210459   3.964   5.957   0.644  1.1232  0.8723 -0.0857
 3339SOL     OW10460   0.415   0.080   4.211 -0.1042  0.2993 -0.2022
 3339SOL    HW110461   0.485   0.045   4.156 -0.1910  1.3427 -1.0064
 3339SOL    HW210462   0.356   0.006   4.224  0.7687 -0.3970 -0.1144
 3340SOL     OW10463   5.275   3.127   5.156 -0.4531 -0.0201 -0.1547
 3340SOL    HW110464   5.230   3.077   5.225 -0.4577  0.9119  0.5453
 3340SOL    HW210465   5.279   3.067   5.082 -0.1323 -1.1911  0.7654
 3341SOL     OW10466   4.881   5.503   2.210  0.2877 -0.2404 -0.4100
 3341SOL    HW110467   4.792   5.531   2.188  0.9476  1.6726 -0.8186
 3341SOL    HW210468   4.891   5.418   2.167 -0.7182  0.3827 -1.9583
 3342SOL     OW10469   4.169   3.503   4.286  0.2263 -0.0887 -0.4399
 3342SOL    HW110470   4.265   3.500   4.284  0.3067  0.9691  0.6023
 3342SOL    HW210471   4.146   3.483   4.377 -0.4801  0.7500 -0.4204
 3343SOL     OW10472   2.270   4.241   5.481 -0.6639  0.1274 -0.2060
 3343SOL    HW110473   2.208   4.188   5.431 -0.4565  1.5552 -2.1453
 3343SOL    HW210474   2.260   4.329   5.444 -0.3000  1.2503  2.1791
 3344SOL     OW10475   3.912   5.776   4.190 -0.2220  0.4721 -0.5101
 3344SOL    HW110476   3.837   5.741   4.237  0.2714  2.3610  1.9055
 3344SOL    HW210477   3.983   5.714   4.208 -0.1903  0.8634  0.7960
 3345SOL     OW10478   4.350   4.632   5.015 -0.5265  0.5258 -0.3089
 3345SOL    HW110479   4.362   4.564   5.081  1.5157  1.5840  0.4721
 3345SOL    HW210480   4.429   4.686   5.020 -1.2545  1.8921 -2.1712
 3346SOL     OW10481   5.953   3.404   0.267 -0.2354 -0.3123 -0.6240
 3346SOL    HW110482   5.956   3.370   0.356  0.7785 -1.5556 -1.1045
 3346SOL    HW210483   6.034   3.454   0.257  0.9529 -2.3139 -1.6191
 3347SOL     OW10484   4.599   4.508   1.980 -0.3686  0.1858  0.0951
 3347SOL    HW110485   4.663   4.443   2.011 -0.1557  1.1029  1.6978
 3347SOL    HW210486   4.649   4.590   1.977 -1.6340  1.0968  2.2212
 3348SOL     OW10487   0.059   4.548   4.000 -0.4611 -0.4079 -0.0826
 3348SOL    HW110488   0.129   4.483   4.007  0.4392  0.6395  0.9185
 3348SOL    HW210489   0.026   4.558   4.089  1.3283  2.5229  0.3720
 3349SOL     OW10490   0.897   3.550   2.001 -0.0587  0.0695 -0.4523
 3349SOL    HW110491   0.900   3.622   2.064 -2.7363  2.2900 -2.6499
 3349SOL    HW210492   0.839   3.485   2.042  0.7739  0.0081  0.6834
 3350SOL     OW10493   5.035   3.901   2.922  0.2561 -0.3274  0.3801
 3350SOL    HW110494   5.049   3.827   2.863  0.6399 -0.3193  0.4548
 3350SOL    HW210495   4.966   3.873   2.981  0.5761 -0.7296  0.5730
 3351SOL     OW10496   5.669   0.698   5.344 -0.4205 -0.4749  0.4487
 3351SOL    HW110497   5.632   0.708   5.432 -0.4260 -0.8006  0.4822
 3351SOL    HW210498   5.760   0.725   5.354 -0.5687  0.0455  0.4280
 3352SOL     OW10499   1.706   0.285   5.339  0.0006 -0.0498  0.2470
 3352SOL    HW110500   1.620   0.296   5.378  0.3090 -0.2293  0.9916
 3352SOL    HW210501   1.733   0.374   5.316 -0.5075 -0.0250 -0.2706
 3353SOL     OW10502   3.929   0.321   2.611  0.0355 -0.2889 -0.0399
 3353SOL    HW110503   3.838   0.293   2.613 -0.5961  1.6677  0.4879
 3353SOL    HW210504   3.979   0.241   2.623 -1.6620 -1.1706  1.6077
 3354SOL     OW10505   6.037   2.667   4.337  0.0178 -0.0811  0.4086
 3354SOL    HW110506   5.997   2.580   4.333  0.8775 -0.4658 -0.2810
 3354SOL    HW210507   6.022   2.705   4.251 -1.5276  1.0249  1.1253
 3355SOL     OW10508   1.233   4.782   4.664  0.1298 -0.5056 -0.1549
 3355SOL    HW110509   1.256   4.781   4.571  0.9860 -0.5821  0.0534
 3355SOL    HW210510   1.292   4.719   4.704 -0.2268 -0.4623  0.4538
 3356SOL     OW10511   0.491   4.750   3.051  0.2901 -0.5755 -0.0212
 3356SOL    HW110512   0.480   4.668   3.002  0.0714 -0.8089  0.4157
 3356SOL    HW210513   0.485   4.724   3.143  1.1618 -0.2070  0.1444
 3357SOL     OW10514   2.605   0.166   2.630 -0.1084 -0.4660  0.4698
 3357SOL    HW110515   2.530   0.110   2.649 -0.3763 -0.9031 -1.6437
 3357SOL    HW210516   2.674   0.106   2.602 -0.1546  0.1689 -1.0921
 3358SOL     OW10517   5.208   0.703   4.058  0.3928  0.3606 -0.4292
 3358SOL    HW110518   5.269   0.633   4.082  0.6888  0.4819 -0.8201
 3358SOL    HW210519   5.194   0.752   4.138 -1.6392 -1.5120  0.4913
 3359SOL     OW10520   5.832   3.658   2.204  0.2586  0.0874 -0.0285
 3359SOL    HW110521   5.825   3.678   2.297 -0.1457  1.0515 -0.2446
 3359SOL    HW210522   5.926   3.666   2.184  0.4238 -0.7120  0.4077
 3360SOL     OW10523   5.652   0.725   3.312 -0.0230  0.2079 -0.2038
 3360SOL    HW110524   5.715   0.763   3.250  0.2757  0.9516  0.5281
 3360SOL    HW210525   5.574   0.708   3.259  1.3411 -2.4490 -1.5535
 3361SOL     OW10526   0.860   5.624   2.817  0.1367  0.4591 -0.1472
 3361SOL    HW110527   0.789   5.636   2.880 -0.5438  0.1818 -0.8520
 3361SOL    HW210528   0.898   5.539   2.840 -1.0387 -0.3189 -0.9987
 3362SOL     OW10529   1.966   4.611   5.456  0.3187 -0.7377  0.1853
 3362SOL    HW110530   1.937   4.607   5.365  0.4981 -0.1990  0.0997
 3362SOL    HW210531   1.890   4.643   5.504  0.8404  1.0245 -0.0909
 3363SOL     OW10532   1.403   5.949   2.242  0.0380 -0.3853 -0.4818
 3363SOL    HW110533   1.489   5.987   2.254  0.3779 -0.6633 -1.8115
 3363SOL    HW210534   1.421   5.861   2.207 -0.7186 -1.7127  2.2447
 3364SOL     OW10535   1.654   3.774   6.051 -0.0806  1.1276  0.0185
 3364SOL    HW110536   1.664   3.869   6.061 -1.1612  1.0626  2.4911
 3364SOL    HW210537   1.561   3.763   6.028 -0.6945  0.6183  2.4463
 3365SOL     OW10538   2.158   4.415   5.322  0.5914  0.0760 -0.2453
 3365SOL    HW110539   2.167   4.363   5.242 -0.9995  0.2429 -0.5756
 3365SOL    HW210540   2.103   4.489   5.296  0.6813  0.5377  0.8324
 3366SOL     OW10541   2.687   3.598   3.241  0.2914  0.3371 -0.1148
 3366SOL    HW110542   2.732   3.513   3.242  0.2782  0.2595 -1.9587
 3366SOL    HW210543   2.743   3.654   3.187 -0.9813  0.6989 -1.1255
 3367SOL     OW10544   1.447   3.856   2.917 -0.7939  0.2254 -0.5980
 3367SOL    HW110545   1.458   3.815   2.832  0.1020  0.3929 -0.5646
 3367SOL    HW210546   1.363   3.822   2.949 -0.0478 -1.6560 -0.5281
 3368SOL     OW10547   0.326   3.135   2.631 -0.2880 -0.2784 -0.1442
 3368SOL    HW110548   0.376   3.130   2.713 -1.1468 -0.5822  0.3862
 3368SOL    HW210549   0.371   3.076   2.571 -0.0824 -0.6480  0.3666
 3369SOL     OW10550   0.706   2.841   4.055  0.5772  0.0560  0.2287
 3369SOL    HW110551   0.652   2.859   4.132  1.4220  0.3325  0.7618
 3369SOL    HW210552   0.669   2.896   3.986 -0.3363 -0.3746  0.3578
 3370SOL     OW10553   1.927   4.416   1.776  1.1255 -0.5065 -0.1158
 3370SOL    HW110554   1.957   4.477   1.709 -2.4476  2.5597  0.6881
 3370SOL    HW210555   1.983   4.433   1.852  1.0415  0.8524 -0.3421
 3371SOL     OW10556   1.678   3.402   1.684 -0.6531 -0.0826  1.1101
 3371SOL    HW110557   1.590   3.437   1.673 -0.9918 -1.6890 -2.6881
 3371SOL    HW210558   1.669   3.307   1.671  1.6559 -0.2732  0.3192
 3372SOL     OW10559   2.304   4.315   2.113 -0.1215 -0.4294  0.4044
 3372SOL    HW110560   2.268   4.259   2.182 -1.8322  0.9250  0.6740
 3372SOL    HW210561   2.363   4.375   2.159 -0.0122 -0.5681  0.4453
 3373SOL     OW10562   5.134   1.488   5.183  0.1843 -0.5124 -0.0429
 3373SOL    HW110563   5.101   1.548   5.250 -1.1445 -1.0965 -0.1504
 3373SOL    HW210564   5.208   1.444   5.224  1.0811  1.0578  0.1013
 3374SOL     OW10565   0.892   3.678   3.157  0.1164  0.1282  0.1337
 3374SOL    HW110566   0.908   3.607   3.219 -0.5734 -0.1027  0.0537
 3374SOL    HW210567   0.944   3.654   3.080 -0.6483 -0.6587 -0.1563
 3375SOL     OW10568   1.091   0.670   2.197  0.7882  1.0738  0.3529
 3375SOL    HW110569   1.122   0.701   2.112  3.1726  1.1175  1.1570
 3375SOL    HW210570   1.051   0.746   2.237  0.6207  1.3372 -0.2950
 3376SOL     OW10571   2.415   3.107   3.879 -0.8721  0.3580 -0.2763
 3376SOL    HW110572   2.437   3.182   3.934 -1.3173 -2.1342  3.7545
 3376SOL    HW210573   2.500   3.070   3.853 -0.6433  1.2431 -0.8197
 3377SOL     OW10574   2.455   0.312   3.471 -0.0450  1.2671  0.6868
 3377SOL    HW110575   2.413   0.398   3.479  0.9748  1.9548 -0.8858
 3377SOL    HW210576   2.515   0.308   3.545 -1.1263  1.2661  1.5989
 3378SOL     OW10577   2.203   3.179   2.483  0.2345 -0.0347  0.4189
 3378SOL    HW110578   2.111   3.161   2.501  0.0362 -0.6194 -1.0268
 3378SOL    HW210579   2.249   3.098   2.506  0.4269  0.3304  1.3446
 3379SOL     OW10580   4.512   1.978   2.293  0.4534  0.1584 -0.0589
 3379SOL    HW110581   4.515   1.995   2.387 -0.1007 -0.2210  0.0275
 3379SOL    HW210582   4.422   1.997   2.267  0.1868 -1.2382 -0.2249
 3380SOL     OW10583   3.900   1.093   0.452 -0.2768 -0.1377 -0.0166
 3380SOL    HW110584   3.807   1.070   0.454  0.0043 -1.3187  0.1813
 3380SOL    HW210585   3.938   1.049   0.528  0.3486  0.8343  0.2614
 3381SOL     OW10586   0.327   4.372   1.193 -0.5831 -0.0412 -0.5157
 3381SOL    HW110587   0.256   4.310   1.184  0.1107 -0.9392  0.0241
 3381SOL    HW210588   0.401   4.320   1.225  0.2054  0.9332 -0.6915
 3382SOL     OW10589   0.272   1.973   0.194 -0.2293 -0.2750  0.0723
 3382SOL    HW110590   0.299   1.882   0.176 -0.4396 -0.0663 -1.4090
 3382SOL    HW210591   0.231   1.969   0.280 -1.7456 -1.9176 -0.6698
 3383SOL     OW10592   2.124   0.227   3.442 -0.1737  0.0806  0.3201
 3383SOL    HW110593   2.034   0.226   3.408 -0.4151  0.6762  0.9290
 3383SOL    HW210594   2.144   0.319   3.455 -0.1304 -0.1236  1.8994
 3384SOL     OW10595   1.436   4.247   4.104  0.1187  0.3636  0.2904
 3384SOL    HW110596   1.408   4.217   4.017  2.1688  0.5221 -0.4750
 3384SOL    HW210597   1.455   4.166   4.152 -4.5484 -0.0250  2.0604
 3385SOL     OW10598   0.228   3.710   0.358 -0.2046 -0.3931 -0.2790
 3385SOL    HW110599   0.317   3.703   0.390  0.1507 -0.0797 -1.1625
 3385SOL    HW210600   0.231   3.780   0.293 -1.4037  0.6003  0.6943
 3386SOL     OW10601   5.891   0.906   5.291  0.3160  0.1429  0.2133
 3386SOL    HW110602   5.888   1.001   5.283  0.0394  0.3546  2.4071
 3386SOL    HW210603   5.917   0.876   5.204 -1.0912  2.1122 -0.9796
 3387SOL     OW10604   5.407   0.355   2.846 -0.0880  0.0852 -0.4402
 3387SOL    HW110605   5.371   0.345   2.758 -0.3933  0.3532 -0.3497
 3387SOL    HW210606   5.330   0.366   2.902  0.1181  0.3152 -0.1959
 3388SOL     OW10607   0.692   3.569   0.107 -0.1691  0.0016  0.3282
 3388SOL    HW110608   0.654   3.562   0.019 -0.8342  0.7458  0.5459
 3388SOL    HW210609   0.692   3.662   0.126  0.2646 -0.1267  0.9988
 3389SOL     OW10610   1.934   2.843   2.662  0.0209  0.3485 -0.1276
 3389SOL    HW110611   1.981   2.819   2.742 -0.4334  1.1950  0.4139
 3389SOL    HW210612   1.841   2.835   2.686 -0.1306  1.4379 -0.2956
 3390SOL     OW10613   5.255   5.335   1.093 -0.4844 -0.4806 -0.2207
 3390SOL    HW110614   5.297   5.264   1.141  1.3123  0.5156 -0.2165
 3390SOL    HW210615   5.317   5.357   1.023 -0.1960  2.1028  0.7304
 3391SOL     OW10616   3.548   5.141   4.377  0.7799 -0.3625 -0.2778
 3391SOL    HW110617   3.487   5.161   4.305 -0.9066  0.1232  1.2023
 3391SOL    HW210618   3.546   5.219   4.432 -1.5581 -2.2792  2.6616
 3392SOL     OW10619   5.794   5.116   4.020 -0.1124 -0.2896  0.0763
 3392SOL    HW110620   5.764   5.148   4.105 -0.7897  1.3273 -0.7393
 3392SOL    HW210621   5.714   5.107   3.968  0.5091  1.2044 -1.1894
 3393SOL     OW10622   0.349   0.395   1.910  0.1341  0.3866  0.0015
 3393SOL    HW110623   0.407   0.469   1.897 -0.2286  0.4546 -1.3893
 3393SOL    HW210624   0.294   0.421   1.984  1.3833  0.6009  0.8938
 3394SOL     OW10625   5.445   2.481   3.328 -0.7771 -0.1352 -0.4012
 3394SOL    HW110626   5.350   2.476   3.336 -0.7895 -0.3957 -0.7086
 3394SOL    HW210627   5.461   2.536   3.252 -0.6694  0.6746  0.1903
 3395SOL     OW10628   5.670   1.300   1.395 -0.5477  0.5526  0.0439
 3395SOL    HW110629   5.642   1.212   1.419 -0.9259  0.6384 -0.0800
 3395SOL    HW210630   5.634   1.314   1.307  2.0244 -0.3236 -1.2594
 3396SOL     OW10631   0.983   1.205   1.144  1.2483  0.0543 -0.2131
 3396SOL    HW110632   0.970   1.127   1.198  1.0321 -0.2297 -0.6671
 3396SOL    HW210633   1.078   1.214   1.137  1.2740 -0.2294 -0.2441
 3397SOL     OW10634   0.802   1.807   4.058 -0.1218 -0.2420  0.7431
 3397SOL    HW110635   0.884   1.818   4.105 -0.4167 -1.0614  1.4775
 3397SOL    HW210636   0.824   1.826   3.967  0.6259  0.6224  1.0868
 3398SOL     OW10637   0.649   5.355   3.725 -0.1590  0.1357  0.5427
 3398SOL    HW110638   0.644   5.442   3.765  1.1387  0.0677  0.8825
 3398SOL    HW210639   0.680   5.298   3.796  1.2208 -0.1682 -0.2757
 3399SOL     OW10640   4.088   5.230   1.898 -0.5299  0.3910  0.5094
 3399SOL    HW110641   4.119   5.288   1.828 -1.7097  0.9195  0.4078
 3399SOL    HW210642   4.008   5.272   1.930 -0.8933 -0.7108  1.0682
 3400SOL     OW10643   1.511   2.102   4.770  0.5225 -0.5152  0.3329
 3400SOL    HW110644   1.568   2.140   4.703  0.1662 -0.2812  0.1611
 3400SOL    HW210645   1.494   2.013   4.740  1.6061 -0.9287  0.8857
 3401SOL     OW10646   4.507   4.243   5.759  0.0124 -0.0837 -0.1954
 3401SOL    HW110647   4.423   4.266   5.719  0.0258  1.3832  0.5402
 3401SOL    HW210648   4.568   4.309   5.726  0.6958 -0.6493 -0.0872
 3402SOL     OW10649   2.508   2.394   0.366  0.4652  0.4372  0.6563
 3402SOL    HW110650   2.552   2.405   0.450  1.3149 -1.0057  0.4308
 3402SOL    HW210651   2.432   2.338   0.386 -1.3801  2.9068  1.0450
 3403SOL     OW10652   0.152   2.823   6.099 -1.4013  0.3528  0.0205
 3403SOL    HW110653   0.115   2.872   6.173 -1.0400  2.5930 -1.1720
 3403SOL    HW210654   0.147   2.884   6.025  1.2196 -0.5733 -1.0651
 3404SOL     OW10655   0.970   3.388   3.617 -0.2455  0.1281 -0.5513
 3404SOL    HW110656   0.985   3.394   3.523  0.7670 -1.4394 -0.5209
 3404SOL    HW210657   1.028   3.454   3.655  0.7453 -0.5014 -0.9336
 3405SOL     OW10658   1.575   1.575   0.749  0.1380 -0.2949  0.0491
 3405SOL    HW110659   1.515   1.504   0.725 -0.8396  0.7499 -0.6888
 3405SOL    HW210660   1.527   1.626   0.814  0.4978  0.1780 -0.0554
 3406SOL     OW10661   3.467   5.681   2.906 -0.3470  0.9461  0.0761
 3406SOL    HW110662   3.400   5.734   2.949 -2.1786  0.4293 -1.9616
 3406SOL    HW210663   3.468   5.599   2.956  0.3364  1.7220  1.3975
 3407SOL     OW10664   0.082   3.820   0.689 -0.2215  0.4658 -0.4067
 3407SOL    HW110665   0.055   3.736   0.653 -1.2694 -0.4434  2.2616
 3407SOL    HW210666   0.011   3.880   0.665 -0.8272 -0.0795 -0.0247
 3408SOL     OW10667   3.776   1.687   5.145  0.0853  0.4143  0.3746
 3408SOL    HW110668   3.788   1.702   5.239  0.4989 -0.0415  0.4016
 3408SOL    HW210669   3.865   1.678   5.111 -0.0805 -0.0983  0.0582
 3409SOL     OW10670   4.198   4.489   4.631 -0.4331  0.5823 -0.0314
 3409SOL    HW110671   4.129   4.548   4.662  1.6756  1.6184  3.2782
 3409SOL    HW210672   4.250   4.543   4.571 -0.0519  1.3020  0.9093
 3410SOL     OW10673   5.067   0.188   3.239 -0.5400 -0.0805  0.0087
 3410SOL    HW110674   5.005   0.193   3.167  0.0176 -0.8525 -0.5483
 3410SOL    HW210675   5.014   0.201   3.318 -0.9903  1.8643 -0.5807
 3411SOL     OW10676   1.412   1.236   2.542 -0.4053  1.3476 -0.1620
 3411SOL    HW110677   1.366   1.319   2.527  2.1081  2.7933 -0.4556
 3411SOL    HW210678   1.404   1.222   2.637 -0.6628  2.0657 -0.0668
 3412SOL     OW10679   0.874   1.414   3.519  0.3496 -0.1255 -0.0487
 3412SOL    HW110680   0.843   1.389   3.432  3.3120 -1.6208 -0.8168
 3412SOL    HW210681   0.911   1.334   3.555  3.0866  1.3622  0.7206
 3413SOL     OW10682   5.906   2.108   5.698  0.4532  0.3969 -0.1332
 3413SOL    HW110683   5.933   2.116   5.606  1.6712  0.3543  0.2091
 3413SOL    HW210684   5.848   2.182   5.712  2.7759  2.2980 -0.0713
 3414SOL     OW10685   4.589   3.878   3.031  0.1299 -0.3614 -0.0534
 3414SOL    HW110686   4.514   3.820   3.046  0.7143 -0.5009  2.8768
 3414SOL    HW210687   4.551   3.958   2.995 -1.4788 -0.4271  1.3841
 3415SOL     OW10688   0.595   0.136   1.343 -0.3218 -0.5642 -0.2993
 3415SOL    HW110689   0.527   0.193   1.307 -0.4503 -1.3972 -1.4650
 3415SOL    HW210690   0.549   0.081   1.407 -0.6277 -0.6874 -0.6182
 3416SOL     OW10691   1.926   3.446   4.155 -0.3387 -0.0993  0.0262
 3416SOL    HW110692   1.841   3.409   4.132 -0.7066  0.4595  0.4690
 3416SOL    HW210693   1.933   3.434   4.250 -0.2049  0.4068  0.0873
 3417SOL     OW10694   3.347   0.351   5.413 -0.4610  0.0528 -0.1742
 3417SOL    HW110695   3.419   0.288   5.424 -0.3400 -0.4229 -2.8975
 3417SOL    HW210696   3.391   0.435   5.400 -0.3331 -0.2131 -1.6843
 3418SOL     OW10697   1.701   2.445   3.775  0.3206 -0.8614  0.1265
 3418SOL    HW110698   1.762   2.371   3.774  0.7413 -0.5306  0.6186
 3418SOL    HW210699   1.615   2.405   3.785  0.5721 -1.2740  0.7107
 3419SOL     OW10700   4.834   2.320   2.833 -0.1154  0.2725 -0.4902
 3419SOL    HW110701   4.890   2.248   2.805 -0.4031 -0.2776  0.2922
 3419SOL    HW210702   4.806   2.362   2.752 -0.6377 -1.0343 -1.0303
 3420SOL     OW10703   2.093   5.061   6.035  0.1468  0.4607  0.4832
 3420SOL    HW110704   2.189   5.066   6.043  0.3785  1.0706 -1.8011
 3420SOL    HW210705   2.061   5.071   6.124  2.2053  0.7907  1.2523
 3421SOL     OW10706   3.399   4.259   4.223 -0.4740 -0.1263 -0.7962
 3421SOL    HW110707   3.467   4.225   4.165 -0.6532 -0.1166 -1.0147
 3421SOL    HW210708   3.333   4.295   4.163  0.5480  2.2942 -0.5871
 3422SOL     OW10709   4.542   4.294   0.472 -0.2770  0.3076  0.2433
 3422SOL    HW110710   4.508   4.282   0.383  0.5145  0.1459 -0.0456
 3422SOL    HW210711   4.526   4.211   0.515 -0.5431  0.3413  0.2097
 3423SOL     OW10712   4.120   3.310   2.713 -0.5169  0.2580 -0.1334
 3423SOL    HW110713   4.034   3.271   2.727 -0.4955  0.1470 -0.2983
 3423SOL    HW210714   4.125   3.322   2.618 -1.0835  1.9574  0.0230
 3424SOL     OW10715   3.632   0.141   1.148  0.1695  0.1130  0.1096
 3424SOL    HW110716   3.724   0.138   1.123  0.8385 -2.0668  2.3582
 3424SOL    HW210717   3.632   0.119   1.241 -2.6802 -1.0467 -0.0532
 3425SOL     OW10718   3.238   5.716   5.398  0.8266  0.0722 -0.6075
 3425SOL    HW110719   3.144   5.717   5.417  0.5505 -0.7413 -1.7656
 3425SOL    HW210720   3.280   5.703   5.483 -0.1101  0.4791 -0.0703
 3426SOL     OW10721   0.552   4.509   4.058 -0.2194 -0.4339  0.4001
 3426SOL    HW110722   0.597   4.453   4.121  1.9395  0.3627 -0.3292
 3426SOL    HW210723   0.566   4.598   4.092  0.1396 -0.0675 -0.6774
 3427SOL     OW10724   1.458   0.139   4.360 -0.2533  0.2238  0.1127
 3427SOL    HW110725   1.505   0.082   4.421  0.1708 -0.2752 -0.6686
 3427SOL    HW210726   1.457   0.091   4.278 -1.6170  0.4881 -0.0498
 3428SOL     OW10727   5.835   5.302   2.817  0.4380 -0.3738 -0.3348
 3428SOL    HW110728   5.880   5.278   2.899  1.0449  0.8000 -0.3052
 3428SOL    HW210729   5.746   5.268   2.828 -0.5958  2.6709  2.3277
 3429SOL     OW10730   1.280   1.424   0.738 -0.1291  0.2589 -0.2587
 3429SOL    HW110731   1.220   1.429   0.664  0.1834 -0.1304 -0.5437
 3429SOL    HW210732   1.234   1.469   0.809 -0.4436  0.6038 -0.6761
 3430SOL     OW10733   1.271   6.127   3.489  0.8005 -0.9371  0.1777
 3430SOL    HW110734   1.266   6.034   3.467  2.1903 -0.7382 -1.2328
 3430SOL    HW210735   1.360   6.139   3.523 -0.0236 -0.4635  2.3458
 3431SOL     OW10736   5.759   0.589   2.244 -0.1334  0.2038  0.5262
 3431SOL    HW110737   5.771   0.605   2.337 -1.9747  0.9285  0.6868
 3431SOL    HW210738   5.785   0.498   2.231 -0.3249 -0.0594  1.8410
 3432SOL     OW10739   3.577   4.440   0.513 -0.1847 -0.3403 -0.2587
 3432SOL    HW110740   3.614   4.522   0.481 -1.0874  0.2763  0.2279
 3432SOL    HW210741   3.653   4.389   0.540  0.5121 -0.2949 -1.9540
 3433SOL     OW10742   1.763   1.558   1.829 -0.6670  0.5443  0.1561
 3433SOL    HW110743   1.690   1.496   1.828  0.0745 -0.3464  0.1860
 3433SOL    HW210744   1.810   1.541   1.748 -0.2118  0.7797  0.3676
 3434SOL     OW10745   4.302   3.927   5.017  0.3344  0.5701  0.1733
 3434SOL    HW110746   4.324   3.950   5.107 -0.1701  1.5061  0.0675
 3434SOL    HW210747   4.354   3.987   4.963 -1.3589  1.9033 -0.0959
 3435SOL     OW10748   5.196   0.869   4.298 -0.0837  0.5557  0.2945
 3435SOL    HW110749   5.155   0.852   4.383  1.0739  3.7866  1.6524
 3435SOL    HW210750   5.288   0.845   4.310 -0.2557 -0.7610 -0.7384
 3436SOL     OW10751   4.982   0.480   3.144  0.1589  0.5676  0.1116
 3436SOL    HW110752   4.889   0.457   3.143  0.4272 -0.5978 -0.4901
 3436SOL    HW210753   4.988   0.551   3.207 -0.7822 -0.9729  2.0543
 3437SOL     OW10754   0.554   0.075   3.535 -0.1242 -0.2687 -0.3680
 3437SOL    HW110755   0.554   0.163   3.571  0.4774 -0.7630  0.9104
 3437SOL    HW210756   0.510   0.083   3.450 -1.6149  0.9458  0.4726
 3438SOL     OW10757   1.744   2.918   0.432 -0.1232 -0.0467  0.3812
 3438SOL    HW110758   1.686   2.972   0.486 -0.1676 -0.3488  0.6410
 3438SOL    HW210759   1.686   2.853   0.391  0.2573 -1.6469  2.2272
 3439SOL     OW10760   1.448   0.516   5.203  0.1633 -0.0789 -0.1939
 3439SOL    HW110761   1.530   0.543   5.161  0.8976 -2.1698 -0.2355
 3439SOL    HW210762   1.380   0.565   5.158  1.3466  1.3896 -0.4471
 3440SOL     OW10763   1.392   5.755   5.677 -0.9329  0.4499  0.2235
 3440SOL    HW110764   1.325   5.818   5.704 -2.3054 -0.7607 -0.1603
 3440SOL    HW210765   1.368   5.733   5.586  0.1521  0.1736 -0.0100
 3441SOL     OW10766   4.966   5.932   2.957 -0.3369 -0.2956 -0.0196
 3441SOL    HW110767   5.010   5.875   3.019  1.1589  0.6062 -0.2037
 3441SOL    HW210768   4.905   5.874   2.910  0.7657 -1.6309  0.1348
 3442SOL     OW10769   3.682   4.771   2.950 -0.0289  0.0949 -0.4833
 3442SOL    HW110770   3.633   4.777   2.868 -2.0079 -0.3525  0.5936
 3442SOL    HW210771   3.717   4.682   2.951 -2.4656 -0.9590  0.3746
 3443SOL     OW10772   2.785   5.258   0.290 -0.4192 -0.4200  0.0759
 3443SOL    HW110773   2.795   5.347   0.325  0.1164 -0.9389  1.3069
 3443SOL    HW210774   2.736   5.269   0.209  0.3388  1.0841 -0.2124
 3444SOL     OW10775   2.981   1.798   1.833  0.5445  0.0204 -0.1910
 3444SOL    HW110776   3.043   1.815   1.762  0.4747  0.0661 -0.2408
 3444SOL    HW210777   2.905   1.760   1.790  0.7716 -0.6013 -0.0603
 3445SOL     OW10778   4.967   1.501   1.297  0.2627 -0.5951 -0.2818
 3445SOL    HW110779   4.981   1.420   1.347 -0.6278 -0.5749  0.0228
 3445SOL    HW210780   5.035   1.499   1.230  0.2501 -1.6134 -0.2892
 3446SOL     OW10781   4.285   1.791   1.460  0.2727  0.1565 -0.1146
 3446SOL    HW110782   4.300   1.814   1.552  0.6439  0.6690 -0.3030
 3446SOL    HW210783   4.289   1.875   1.413 -1.0620  0.0559 -0.4522
 3447SOL     OW10784   0.094   0.291   1.405 -0.0586  0.6379 -0.3637
 3447SOL    HW110785   0.161   0.353   1.378 -0.3748  0.5702 -1.3198
 3447SOL    HW210786   0.026   0.298   1.339 -1.3226  1.1978  0.9302
 3448SOL     OW10787   0.281   4.108   0.419  0.5565  0.1403 -0.4121
 3448SOL    HW110788   0.268   4.042   0.350  0.3507 -0.3377  0.0774
 3448SOL    HW210789   0.228   4.182   0.391 -0.5440 -0.5232 -0.1441
 3449SOL     OW10790   4.084   0.569   5.196 -0.3123  0.4812  0.5357
 3449SOL    HW110791   4.019   0.599   5.132 -0.6569  1.9864  1.5112
 3449SOL    HW210792   4.165   0.611   5.169 -0.7286  2.1989  1.7255
 3450SOL     OW10793   3.234   2.197   3.658  0.0372 -0.6244  0.3146
 3450SOL    HW110794   3.201   2.153   3.580 -0.7160  1.7027 -0.7418
 3450SOL    HW210795   3.232   2.129   3.726 -2.7463 -1.7884 -0.7990
 3451SOL     OW10796   4.257   2.865   1.905 -0.0639 -0.6174 -0.2412
 3451SOL    HW110797   4.232   2.940   1.852  0.1785  0.3167  0.9352
 3451SOL    HW210798   4.220   2.790   1.859 -1.3685  0.3314 -0.8022
 3452SOL     OW10799   4.144   0.768   4.765 -1.1891 -0.1109 -0.3842
 3452SOL    HW110800   4.087   0.838   4.733  0.0522  2.2480  2.1169
 3452SOL    HW210801   4.232   0.797   4.745 -0.6583 -1.3145  0.1064
 3453SOL     OW10802   0.169   3.976   0.961 -0.1196 -0.0057 -0.4537
 3453SOL    HW110803   0.219   3.984   1.042  1.2342  2.1527 -1.4111
 3453SOL    HW210804   0.078   3.987   0.988  0.3551  1.3497  0.7025
 3454SOL     OW10805   3.229   0.396   0.332  0.1548  0.0061  0.5706
 3454SOL    HW110806   3.134   0.383   0.336  0.0714  0.7306  1.6504
 3454SOL    HW210807   3.266   0.316   0.370  0.0782 -1.0591 -1.4988
 3455SOL     OW10808   3.239   3.138   1.399  0.2516  1.0807  1.1793
 3455SOL    HW110809   3.313   3.087   1.430  0.1373  0.2174  0.0659
 3455SOL    HW210810   3.163   3.101   1.445  0.1242  0.0073  0.1352
 3456SOL     OW10811   0.230   5.486   4.472 -0.2861  0.1308  0.0292
 3456SOL    HW110812   0.261   5.402   4.504  0.4200  0.7261  0.9515
 3456SOL    HW210813   0.187   5.466   4.389  1.4242 -0.9115 -0.6520
 3457SOL     OW10814   4.082   0.176   0.686  0.4102 -0.2065  0.3331
 3457SOL    HW110815   4.131   0.256   0.667  1.1909 -0.6214  0.5383
 3457SOL    HW210816   3.991   0.205   0.694  0.6872  0.6705  0.4585
 3458SOL     OW10817   2.099   3.597   2.808 -0.0400 -0.5222  0.0789
 3458SOL    HW110818   2.147   3.616   2.727  0.1395 -1.4976 -0.0580
 3458SOL    HW210819   2.144   3.521   2.845 -1.2868 -1.2701  0.1139
 3459SOL     OW10820   3.231   4.777   0.822  0.0670 -0.6079  0.0137
 3459SOL    HW110821   3.319   4.799   0.790  0.9539 -1.1308  1.9433
 3459SOL    HW210822   3.236   4.792   0.916 -1.4279 -2.2145  0.3960
 3460SOL     OW10823   4.963   2.570   5.933 -0.2367  0.0056 -0.8676
 3460SOL    HW110824   4.933   2.523   5.855 -1.2132  0.1790 -0.6115
 3460SOL    HW210825   4.905   2.539   6.003 -0.3878  0.9977 -0.5357
 3461SOL     OW10826   1.984   2.103   0.738  0.0576 -0.3027 -0.0180
 3461SOL    HW110827   2.012   2.026   0.787  2.9198  0.8169  0.2923
 3461SOL    HW210828   2.002   2.081   0.646  0.1540 -0.2750 -0.0055
 3462SOL     OW10829   2.052   1.462   5.305  0.0861  0.3154 -0.3152
 3462SOL    HW110830   2.050   1.552   5.337  0.3238  0.7794 -1.5446
 3462SOL    HW210831   1.960   1.437   5.296  0.0208  0.3139  0.3518
 3463SOL     OW10832   1.930   2.892   0.921 -0.4157 -1.2482  0.0523
 3463SOL    HW110833   1.994   2.849   0.977 -2.0020 -0.7716  2.3718
 3463SOL    HW210834   1.862   2.827   0.908 -1.2886 -0.5322  0.8952
 3464SOL     OW10835   4.684   5.354   3.843  0.4609 -0.1112  0.1792
 3464SOL    HW110836   4.717   5.301   3.770 -0.2687 -1.7281  0.9760
 3464SOL    HW210837   4.761   5.370   3.897  0.4280 -1.9529  0.8578
 3465SOL     OW10838   4.877   0.373   2.544 -0.2596  0.0763 -0.0939
 3465SOL    HW110839   4.859   0.334   2.629 -1.5386 -1.0922 -0.8474
 3465SOL    HW210840   4.791   0.397   2.511  0.1524 -0.0238 -1.2853
 3466SOL     OW10841   4.699   2.703   2.159 -0.3369  0.2258 -0.4512
 3466SOL    HW110842   4.609   2.718   2.129 -0.1003  0.9537 -0.8247
 3466SOL    HW210843   4.753   2.732   2.086  0.2590  2.2613  0.7151
 3467SOL     OW10844   5.923   5.589   2.231 -0.2664 -0.3395 -0.3123
 3467SOL    HW110845   5.965   5.596   2.317  1.6975  1.4375 -1.3028
 3467SOL    HW210846   5.944   5.500   2.201  1.5925  0.0039 -0.1356
 3468SOL     OW10847   4.802   2.430   0.470 -0.6145  0.0590  0.4669
 3468SOL    HW110848   4.722   2.422   0.521 -0.0771 -1.4543  1.1166
 3468SOL    HW210849   4.852   2.351   0.490  1.9054  1.7845  1.5294
 3469SOL     OW10850   1.290   1.486   1.581 -0.2901  0.1482  0.2337
 3469SOL    HW110851   1.289   1.490   1.677 -0.1925  0.9612  0.2092
 3469SOL    HW210852   1.215   1.432   1.558 -0.7614  0.5857  0.7412
 3470SOL     OW10853   0.187   4.262   5.793 -0.0988  0.1640  0.2353
 3470SOL    HW110854   0.211   4.314   5.870 -2.2520 -0.1450  1.1846
 3470SOL    HW210855   0.094   4.279   5.781  0.0759 -0.1818 -2.0534
 3471SOL     OW10856   0.662   5.566   3.202  0.1416 -0.1308 -0.0101
 3471SOL    HW110857   0.722   5.503   3.161 -0.6385 -0.2745 -0.9645
 3471SOL    HW210858   0.647   5.531   3.290  0.6919 -0.6072 -0.0963
 3472SOL     OW10859   1.569   0.800   4.389 -0.2984  0.0615 -0.0620
 3472SOL    HW110860   1.648   0.847   4.363 -1.0209  0.6546 -1.2763
 3472SOL    HW210861   1.570   0.721   4.335  0.3730 -0.8473  1.2260
 3473SOL     OW10862   0.947   4.286   5.081  0.2096 -0.3134 -0.4268
 3473SOL    HW110863   0.933   4.380   5.069 -0.7624 -0.6298 -2.2698
 3473SOL    HW210864   0.888   4.262   5.153  1.1685  0.6112  0.7091
 3474SOL     OW10865   4.428   1.998   5.462  0.2677  0.2623  0.5454
 3474SOL    HW110866   4.334   1.994   5.476  0.4488 -1.5523  1.5354
 3474SOL    HW210867   4.441   2.074   5.405 -2.1083 -1.3275 -2.3779
 3475SOL     OW10868   5.187   0.969   4.973 -0.2942  0.3119  0.6195
 3475SOL    HW110869   5.276   1.004   4.974 -0.3229  0.4132  2.1932
 3475SOL    HW210870   5.199   0.874   4.973 -0.1899  0.3250  0.4848
 3476SOL     OW10871   3.114   2.663   4.562 -0.0062 -0.7634 -0.2332
 3476SOL    HW110872   3.024   2.685   4.586  0.5305  0.4781  0.8377
 3476SOL    HW210873   3.153   2.629   4.643  1.1529  1.1008  0.0673
 3477SOL     OW10874   5.878   4.893   2.905  0.4067  0.3112 -0.0329
 3477SOL    HW110875   5.823   4.957   2.950  0.5756 -0.3210  1.1116
 3477SOL    HW210876   5.952   4.880   2.963  2.1139  1.5569 -1.7835
 3478SOL     OW10877   2.195   4.046   3.305  0.5073 -0.2558 -0.3911
 3478SOL    HW110878   2.273   3.991   3.315  1.2227  0.6911 -0.5666
 3478SOL    HW210879   2.129   3.988   3.267  0.8086 -1.3327  0.6778
 3479SOL     OW10880   5.702   5.321   5.247  0.5026  0.6940  0.4152
 3479SOL    HW110881   5.659   5.291   5.167  2.2987  2.1933 -1.2196
 3479SOL    HW210882   5.785   5.272   5.250  0.1960  0.2196  1.7135
 3480SOL     OW10883   2.210   3.574   5.083 -0.1521 -0.2488  0.4872
 3480SOL    HW110884   2.153   3.612   5.150  0.3981 -0.1861  0.9360
 3480SOL    HW210885   2.171   3.489   5.064  0.2027 -0.6868  1.6034
 3481SOL     OW10886   4.464   2.629   5.272 -0.0173  0.1088  0.0435
 3481SOL    HW110887   4.553   2.606   5.296 -0.4581 -0.3288  1.3436
 3481SOL    HW210888   4.438   2.562   5.209  0.7322  0.5575 -0.7792
 3482SOL     OW10889   2.227   5.755   4.703  0.0321  0.1674  0.3361
 3482SOL    HW110890   2.179   5.714   4.775 -1.2786  1.1421  0.0683
 3482SOL    HW210891   2.296   5.806   4.745  0.1432 -0.3724  0.8127
 3483SOL     OW10892   2.765   2.237   2.966 -0.0349 -0.1610  0.0994
 3483SOL    HW110893   2.810   2.320   2.980  0.9510 -0.7172  0.3151
 3483SOL    HW210894   2.807   2.198   2.889 -0.3683 -0.5415  0.1029
 3484SOL     OW10895   5.536   5.011   4.456  0.1905  0.4690  0.0995
 3484SOL    HW110896   5.577   4.946   4.513  0.3417 -0.0813 -0.6200
 3484SOL    HW210897   5.512   5.082   4.514 -0.9844 -0.6912  1.1003
 3485SOL     OW10898   5.599   5.531   2.019  0.0429 -0.0523  0.0486
 3485SOL    HW110899   5.558   5.527   1.933 -0.1860 -0.1322  0.1600
 3485SOL    HW210900   5.657   5.607   2.015 -1.6939  1.3690  0.5795
 3486SOL     OW10901   1.799   3.272   4.640  0.6232 -0.3386  0.0235
 3486SOL    HW110902   1.708   3.297   4.658  0.3575 -0.9132 -0.5142
 3486SOL    HW210903   1.795   3.219   4.561  1.6317  1.1210 -1.0714
 3487SOL     OW10904   1.593   5.450   0.487 -0.1208 -0.5266  0.1444
 3487SOL    HW110905   1.547   5.476   0.408 -0.8599  0.5943  0.9103
 3487SOL    HW210906   1.526   5.451   0.556  0.1790 -2.9394  0.5482
 3488SOL     OW10907   3.084   3.373   1.163  0.0024  0.5627  0.0550
 3488SOL    HW110908   3.029   3.445   1.132 -0.8498  0.4864  1.2888
 3488SOL    HW210909   3.122   3.406   1.245  0.9241  0.2080 -0.2229
 3489SOL     OW10910   5.440   5.209   4.159 -0.0023 -0.3787  0.0753
 3489SOL    HW110911   5.431   5.301   4.137 -2.0715 -0.6360 -0.4314
 3489SOL    HW210912   5.514   5.205   4.219  1.0243  1.3959 -1.0041
 3490SOL     OW10913   0.032   1.318   1.453 -0.4018 -0.2188 -0.1713
 3490SOL    HW110914   0.117   1.319   1.409  0.2550 -0.6102  1.0533
 3490SOL    HW210915  -0.031   1.310   1.381  0.2818  3.7741 -1.4718
 3491SOL     OW10916   5.730   1.248   6.128 -0.2871  0.6516  0.0744
 3491SOL    HW110917   5.685   1.291   6.055 -0.4282  0.2607 -0.0716
 3491SOL    HW210918   5.783   1.317   6.167 -1.0998  1.1521  0.3221
 3492SOL     OW10919   5.629   2.071   3.760  0.2995  0.0409 -0.1832
 3492SOL    HW110920   5.705   2.013   3.753  1.4500  1.4127  0.3015
 3492SOL    HW210921   5.595   2.056   3.848 -0.6794 -1.3498 -0.7710
 3493SOL     OW10922   1.594   0.729   3.797  0.4249 -0.2749  0.1079
 3493SOL    HW110923   1.521   0.732   3.858  0.9434 -1.5315  0.8097
 3493SOL    HW210924   1.665   0.775   3.842  0.2121  0.6200 -0.4253
 3494SOL     OW10925   5.629   2.010   5.808  0.4196  0.5463  0.2873
 3494SOL    HW110926   5.561   2.044   5.866  1.0208  0.2866  1.1569
 3494SOL    HW210927   5.624   2.066   5.730 -1.7791 -0.3983 -0.3190
 3495SOL     OW10928   5.940   2.065   2.001 -0.6024  0.4436  0.0773
 3495SOL    HW110929   5.990   1.995   1.959 -0.3238  0.2725  0.6732
 3495SOL    HW210930   5.858   2.069   1.952 -0.2179  0.3727 -0.5791
 3496SOL     OW10931   3.852   1.351   0.493  0.0058 -0.3822 -0.9359
 3496SOL    HW110932   3.778   1.378   0.439 -0.5164  0.2259  0.0430
 3496SOL    HW210933   3.865   1.259   0.472 -1.5858 -0.7355 -0.5134
 3497SOL     OW10934   5.048   6.063   0.863 -0.7563  0.6757 -0.0568
 3497SOL    HW110935   5.014   5.990   0.812 -0.1332  1.1989 -1.2656
 3497SOL    HW210936   5.133   6.083   0.823  0.2403  0.4606  1.8187
 3498SOL     OW10937   2.804   1.050   5.131  0.2572  0.6377 -0.5699
 3498SOL    HW110938   2.800   1.138   5.168  0.8977 -0.2548  1.8129
 3498SOL    HW210939   2.898   1.034   5.117  0.2719 -0.1853  0.4074
 3499SOL     OW10940   4.559   2.210   3.853 -0.2155 -0.3230 -0.1499
 3499SOL    HW110941   4.643   2.251   3.875 -0.5077 -0.5482  1.4940
 3499SOL    HW210942   4.501   2.284   3.836 -0.2635 -0.0790  0.9972
 3500SOL     OW10943   2.412   2.944   3.485 -0.3398 -0.1407 -0.4859
 3500SOL    HW110944   2.424   3.039   3.494 -0.0140 -0.2457  0.2033
 3500SOL    HW210945   2.470   2.906   3.551 -1.4003 -0.7844  0.0972
 3501SOL     OW10946   3.291   3.222   0.656  0.1150  0.1893  0.0548
 3501SOL    HW110947   3.383   3.229   0.633 -0.0774  0.4090 -0.7057
 3501SOL    HW210948   3.287   3.245   0.749  1.1019 -1.9716  0.6880
 3502SOL     OW10949   2.825   3.589   2.707  0.3077 -0.9737 -0.1442
 3502SOL    HW110950   2.806   3.615   2.617  0.0804 -2.2102 -0.4734
 3502SOL    HW210951   2.739   3.589   2.750  0.3200 -1.0685 -0.1196
 3503SOL     OW10952   5.781   2.200   1.296  0.6213 -0.3653 -0.6465
 3503SOL    HW110953   5.735   2.259   1.236 -1.4966 -0.3315  0.9009
 3503SOL    HW210954   5.779   2.115   1.251 -1.6882 -0.5326 -0.3500
 3504SOL     OW10955   2.179   4.191   3.522  0.1240 -0.7190 -0.3197
 3504SOL    HW110956   2.171   4.142   3.440 -0.2033 -0.1518 -0.6350
 3504SOL    HW210957   2.271   4.217   3.525 -0.4368  1.8750 -2.0809
 3505SOL     OW10958   5.403   4.935   0.636  0.5774  0.0994 -0.0930
 3505SOL    HW110959   5.380   4.849   0.673  1.4378 -0.2475 -0.3254
 3505SOL    HW210960   5.496   4.946   0.657  0.9000  0.2233 -1.4805
 3506SOL     OW10961   2.399   3.401   0.605 -0.0408 -0.3455  0.5917
 3506SOL    HW110962   2.455   3.329   0.579  1.2747  0.4245  1.1846
 3506SOL    HW210963   2.383   3.387   0.698 -1.4905 -0.9613  0.2822
 3507SOL     OW10964   4.717   2.428   4.701 -0.2983  0.2627  0.1529
 3507SOL    HW110965   4.703   2.403   4.609 -1.0629 -2.4109  0.9009
 3507SOL    HW210966   4.803   2.471   4.701  0.0385 -0.2959 -1.7199
 3508SOL     OW10967   2.842   4.542   1.441  0.2180 -0.0941  0.1399
 3508SOL    HW110968   2.872   4.623   1.481  1.8850 -1.2260  1.3152
 3508SOL    HW210969   2.763   4.567   1.393 -0.6238  1.8111  2.2991
 3509SOL     OW10970   5.173   3.560   5.281 -0.0842  0.2664 -0.6894
 3509SOL    HW110971   5.123   3.515   5.213 -1.2445  0.9818 -0.3378
 3509SOL    HW210972   5.204   3.640   5.238  1.2641 -0.4304 -1.0683
 3510SOL     OW10973   5.017   0.936   4.753 -0.3181  0.2613 -0.1332
 3510SOL    HW110974   4.960   1.011   4.769  2.0191  2.0773  0.2683
 3510SOL    HW210975   5.086   0.944   4.819  0.1058 -2.1858 -0.1833
 3511SOL     OW10976   4.118   3.040   0.387  0.3284  0.2593  0.3279
 3511SOL    HW110977   4.066   3.061   0.465 -1.3785  0.0602 -0.6874
 3511SOL    HW210978   4.053   3.015   0.322  1.7828 -0.5660 -0.8684
 3512SOL     OW10979   1.837   3.787   5.842 -0.5725  0.4515 -0.1653
 3512SOL    HW110980   1.807   3.783   5.932  0.8125  1.8506  0.4092
 3512SOL    HW210981   1.762   3.759   5.790 -0.9738 -1.8347  1.4507
 3513SOL     OW10982   1.140   2.251   1.164  0.1651 -0.2897  0.4319
 3513SOL    HW110983   1.200   2.318   1.130 -1.1031 -0.0925 -1.5620
 3513SOL    HW210984   1.198   2.186   1.205  1.6474  0.5768 -0.1954
 3514SOL     OW10985   3.556   5.887   1.400  0.4454 -0.2139 -0.6572
 3514SOL    HW110986   3.573   5.805   1.354  2.0983 -0.8891  1.0320
 3514SOL    HW210987   3.489   5.864   1.465 -0.6046  0.3104 -1.5255
 3515SOL     OW10988   2.003   2.292   4.197  0.4618 -0.0827 -0.2680
 3515SOL    HW110989   1.936   2.303   4.264  1.0873  0.7983  0.2322
 3515SOL    HW210990   1.957   2.307   4.114 -0.4752 -1.8900 -0.1292
 3516SOL     OW10991   0.746   2.473   0.749 -0.2943  0.4367  0.5493
 3516SOL    HW110992   0.692   2.400   0.717 -0.0767  0.2762  0.5440
 3516SOL    HW210993   0.702   2.502   0.829  0.9797 -1.3449  1.9723
 3517SOL     OW10994   4.803   4.712   4.365 -0.2419 -0.2712  0.1289
 3517SOL    HW110995   4.849   4.667   4.436  1.3516 -1.8086 -1.7745
 3517SOL    HW210996   4.776   4.643   4.305  1.4257  1.1551 -2.4387
 3518SOL     OW10997   3.415   2.429   3.624 -0.3176  0.0029 -0.2634
 3518SOL    HW110998   3.498   2.467   3.653 -0.0893 -0.2591 -0.5673
 3518SOL    HW210999   3.404   2.350   3.678 -0.1448 -0.2056 -0.5269
 3519SOL     OW11000   3.235   5.504   4.183  0.2676 -0.0783  0.5189
 3519SOL    HW111001   3.244   5.412   4.156  2.8541 -0.3625  2.0445
 3519SOL    HW211002   3.284   5.510   4.265 -0.6104  2.4860  0.9395
 3520SOL     OW11003   1.705   1.294   1.264  0.1184 -0.1331  0.4465
 3520SOL    HW111004   1.665   1.379   1.244  0.9237  0.5247  1.5104
 3520SOL    HW211005   1.632   1.240   1.296 -0.5380 -0.1090 -0.9618
 3521SOL     OW11006   2.067   0.153   4.401  0.2390 -0.3991 -0.4659
 3521SOL    HW111007   2.089   0.134   4.309  0.5134  0.1504 -0.5184
 3521SOL    HW211008   2.147   0.131   4.449  1.1039  1.9442 -0.6978
 3522SOL     OW11009   0.914   4.011   4.656  0.5187  0.2705 -0.2016
 3522SOL    HW111010   0.950   4.044   4.573  1.1300 -0.2673 -0.1507
 3522SOL    HW211011   0.926   4.084   4.717 -1.5865  1.3791 -0.9954
 3523SOL     OW11012   5.273   1.492   1.752 -0.2518 -0.1533 -0.9178
 3523SOL    HW111013   5.344   1.503   1.689  0.5971 -0.4773 -0.0471
 3523SOL    HW211014   5.293   1.409   1.796 -1.2786 -0.3449 -0.7886
 3524SOL     OW11015   1.940   4.528   5.166 -0.1517 -0.5346 -0.1041
 3524SOL    HW111016   1.875   4.459   5.154  0.5484 -1.5089  1.3235
 3524SOL    HW211017   1.931   4.584   5.089 -1.5599 -1.5438 -0.7140
 3525SOL     OW11018   2.518   5.675   1.939 -0.4154  0.3239  0.3594
 3525SOL    HW111019   2.484   5.597   1.894 -1.3404 -0.5090  2.3497
 3525SOL    HW211020   2.591   5.642   1.992 -1.7799  0.3927  2.4245
 3526SOL     OW11021   1.488   5.180   5.482  0.1514 -0.3128 -0.3785
 3526SOL    HW111022   1.392   5.175   5.474  0.0038  0.9103  0.3609
 3526SOL    HW211023   1.510   5.117   5.550  0.1230 -2.0326 -1.8664
 3527SOL     OW11024   3.556   0.001   0.488  0.0650 -0.1227  0.1472
 3527SOL    HW111025   3.575  -0.009   0.581 -1.0384  0.2508  0.4344
 3527SOL    HW211026   3.510  -0.079   0.464  0.9428 -0.5196 -0.2561
 3528SOL     OW11027   4.028   3.341   5.759  0.3930 -0.2104 -0.2254
 3528SOL    HW111028   4.110   3.388   5.746 -1.0005  2.8660  0.9764
 3528SOL    HW211029   3.984   3.345   5.674  0.6206 -0.0072 -0.3360
 3529SOL     OW11030   2.753   5.135   2.629  0.4508  0.0396 -0.3864
 3529SOL    HW111031   2.826   5.073   2.633 -0.6167 -1.2026  0.2142
 3529SOL    HW211032   2.710   5.127   2.714  0.5828  2.0022 -0.0897
 3530SOL     OW11033   2.852   1.993   0.997  0.4268 -0.4617 -0.5320
 3530SOL    HW111034   2.764   1.965   1.023  1.1442 -1.2245  1.2073
 3530SOL    HW211035   2.899   1.911   0.983  1.0147 -0.0584 -0.9227
 3531SOL     OW11036   4.692   5.157   3.092 -0.6256 -0.4006  0.3034
 3531SOL    HW111037   4.667   5.158   3.184 -1.6192 -0.5809  0.0464
 3531SOL    HW211038   4.724   5.068   3.076 -0.3862 -0.3477  0.4906
 3532SOL     OW11039   5.737   5.852   2.630  0.6547  0.0203  0.1420
 3532SOL    HW111040   5.749   5.932   2.683  0.8621  1.4874 -2.0069
 3532SOL    HW211041   5.785   5.785   2.678  0.0351  1.0295  2.3114
 3533SOL     OW11042   0.702   4.677   5.160  0.9895 -0.1849 -0.1773
 3533SOL    HW111043   0.689   4.594   5.115  1.4394 -0.6087  0.4448
 3533SOL    HW211044   0.676   4.744   5.097  0.1161 -0.8112 -0.5070
 3534SOL     OW11045   4.593   3.314   4.930  0.1205  0.3037 -0.0006
 3534SOL    HW111046   4.550   3.323   5.015 -1.1360  0.3813 -0.6193
 3534SOL    HW211047   4.577   3.224   4.903  1.1330  0.0631  0.1484
 3535SOL     OW11048   1.504   4.526   1.124 -0.1437 -0.4872  0.2791
 3535SOL    HW111049   1.593   4.492   1.110 -0.1384 -0.7502  0.8988
 3535SOL    HW211050   1.448   4.449   1.115 -0.1176 -0.7308  1.8606
 3536SOL     OW11051   0.646   5.381   2.440 -0.0168  0.2418 -0.4913
 3536SOL    HW111052   0.633   5.474   2.456 -0.4176  0.1399 -0.2083
 3536SOL    HW211053   0.625   5.369   2.348  2.2524  0.8214 -1.1466
 3537SOL     OW11054   5.334   4.768   2.681 -0.1311  0.0948 -0.3877
 3537SOL    HW111055   5.358   4.689   2.730 -1.8884  0.0573  0.4603
 3537SOL    HW211056   5.300   4.735   2.598  0.9290  0.0779 -0.8400
 3538SOL     OW11057   4.556   1.526   0.239 -0.1919 -0.4370  0.9636
 3538SOL    HW111058   4.590   1.501   0.153  0.8156 -0.4826  1.3678
 3538SOL    HW211059   4.539   1.443   0.283  0.6844 -0.4237  1.3426
 3539SOL     OW11060   0.471   2.537   4.322 -0.1071 -0.0799  0.3084
 3539SOL    HW111061   0.382   2.565   4.342  0.5936  1.2681  1.7466
 3539SOL    HW211062   0.510   2.612   4.278  0.4977 -0.4512  0.2057
 3540SOL     OW11063   0.232   4.728   3.713 -0.1081 -0.2226 -0.4269
 3540SOL    HW111064   0.137   4.740   3.710  0.1617  2.6242 -0.6404
 3540SOL    HW211065   0.256   4.744   3.804  0.0425 -2.7249  0.0218
 3541SOL     OW11066   2.542   1.790   4.815 -0.6540 -0.5890  0.1073
 3541SOL    HW111067   2.527   1.761   4.905  1.0366  0.6089  0.8121
 3541SOL    HW211068   2.571   1.711   4.769  0.8353 -0.7463  1.2333
 3542SOL     OW11069   2.198   3.798   0.378 -0.1278 -0.0158 -0.1830
 3542SOL    HW111070   2.260   3.726   0.380 -0.7902 -0.5842  0.7981
 3542SOL    HW211071   2.206   3.839   0.464 -1.3007 -0.2839  0.0729
 3543SOL     OW11072   0.876   4.368   1.503  0.1359 -0.0864 -0.3471
 3543SOL    HW111073   0.852   4.338   1.591  0.9865 -0.0490 -0.0962
 3543SOL    HW211074   0.971   4.359   1.500  0.4467  2.3709 -0.3076
 3544SOL     OW11075   5.579   5.687   4.015  0.3742 -0.1912 -0.1456
 3544SOL    HW111076   5.581   5.694   3.919 -0.3237 -1.0432 -0.2375
 3544SOL    HW211077   5.668   5.704   4.042  0.6621 -0.2981 -0.9878
 3545SOL     OW11078   2.657   4.638   2.428  0.1219 -0.0159 -0.0266
 3545SOL    HW111079   2.615   4.724   2.431  0.2653  0.0514  0.0714
 3545SOL    HW211080   2.633   4.597   2.511 -0.1383 -0.1629 -0.1721
 3546SOL     OW11081   4.391   2.443   3.799  0.5706  0.3449  0.2378
 3546SOL    HW111082   4.348   2.459   3.883  0.7947  2.7491 -0.0502
 3546SOL    HW211083   4.372   2.521   3.747  2.5318  0.0274 -1.0481
 3547SOL     OW11084   3.508   5.504   2.215 -0.0276  0.2697  0.2244
 3547SOL    HW111085   3.500   5.564   2.289 -0.1749 -0.8777  1.1663
 3547SOL    HW211086   3.573   5.440   2.242  0.8077  0.5046 -1.1318
 3548SOL     OW11087   4.414   2.905   3.943 -0.2784 -0.2612  0.0607
 3548SOL    HW111088   4.361   2.873   4.016 -0.4221 -1.3400 -0.4916
 3548SOL    HW211089   4.504   2.904   3.976 -0.2824 -1.2588  0.0586
 3549SOL     OW11090   0.967   4.271   3.046 -0.0130  0.4173  0.3741
 3549SOL    HW111091   0.923   4.269   3.132  2.6236  1.8042  1.8690
 3549SOL    HW211092   0.937   4.352   3.006 -0.7918  0.0589  0.2022
 3550SOL     OW11093   1.415   4.031   2.376 -0.4382  0.7011  0.4000
 3550SOL    HW111094   1.426   4.094   2.305  1.2839  0.5518  0.4738
 3550SOL    HW211095   1.321   4.017   2.382 -0.6093 -0.6854 -3.0946
 3551SOL     OW11096   4.452   5.517   3.898 -0.3866  0.7240  0.2186
 3551SOL    HW111097   4.415   5.503   3.811 -0.9061  0.7256  0.4332
 3551SOL    HW211098   4.542   5.487   3.891 -0.8236 -0.6505  0.0607
 3552SOL     OW11099   5.626   2.792   4.172 -0.3591  0.2839  0.6170
 3552SOL    HW111100   5.606   2.762   4.260 -0.3031  1.6504  1.1234
 3552SOL    HW211101   5.673   2.874   4.185 -0.6608  0.6870 -0.6948
 3553SOL     OW11102   1.640   0.481   4.656  0.1965  0.0529  0.2103
 3553SOL    HW111103   1.649   0.574   4.676  0.0692  0.0036  0.4994
 3553SOL    HW211104   1.699   0.467   4.582  1.9861 -0.0998  1.5896
 3554SOL     OW11105   0.623   3.755   3.550  0.0198 -0.1138  0.0065
 3554SOL    HW111106   0.669   3.672   3.541  1.2547  0.7410 -2.5420
 3554SOL    HW211107   0.690   3.821   3.537 -1.3394  1.2476 -0.3986
 3555SOL     OW11108   4.733   2.000   3.847  0.0434  0.6943  0.3846
 3555SOL    HW111109   4.653   2.047   3.871 -1.6038 -1.4990 -0.5492
 3555SOL    HW211110   4.768   2.048   3.772 -0.9652  1.0492  0.1335
 3556SOL     OW11111   5.360   5.885   3.180  0.6103 -0.0503 -0.6861
 3556SOL    HW111112   5.413   5.835   3.242 -0.5587  0.2610  0.6161
 3556SOL    HW211113   5.405   5.970   3.174  0.1614  0.3036  0.6079
 3557SOL     OW11114   4.701   2.128   0.558 -0.0476 -0.4877 -0.3835
 3557SOL    HW111115   4.794   2.142   0.572  0.1928 -2.1439 -0.1070
 3557SOL    HW211116   4.666   2.108   0.645 -0.1670 -2.3143 -0.8172
 3558SOL     OW11117   6.044   3.751   3.725  0.3323 -0.4022  0.4321
 3558SOL    HW111118   6.135   3.780   3.722  0.8910 -2.1242 -1.1818
 3558SOL    HW211119   6.048   3.656   3.714 -1.6962 -0.3530 -1.6181
 3559SOL     OW11120   4.934   1.129   3.300  0.1829  0.1421  0.4223
 3559SOL    HW111121   4.909   1.212   3.260  3.1713  1.3087  0.7225
 3559SOL    HW211122   4.895   1.131   3.387 -2.6034 -0.4080 -0.7048
 3560SOL     OW11123   1.429   5.580   1.114 -0.5194 -0.2599  0.3837
 3560SOL    HW111124   1.498   5.515   1.109 -0.6778 -0.3427 -1.7402
 3560SOL    HW211125   1.354   5.538   1.072 -0.7632  1.1056 -0.6047
 3561SOL     OW11126   5.447   2.797   0.097 -0.0021  0.8186  0.1756
 3561SOL    HW111127   5.364   2.752   0.084  0.3923  0.4824 -1.3736
 3561SOL    HW211128   5.502   2.733   0.142 -0.2431  0.6581  0.2439
 3562SOL     OW11129   1.580   1.088   2.804 -0.2007  0.4005 -0.4701
 3562SOL    HW111130   1.528   1.135   2.868  1.2753  0.8055  0.4823
 3562SOL    HW211131   1.554   0.996   2.814  0.6669  0.3220  1.4044
 3563SOL     OW11132   2.948   5.093   1.134  0.4388  0.1359  0.4368
 3563SOL    HW111133   2.864   5.137   1.126 -0.5137 -0.9653  3.2263
 3563SOL    HW211134   3.007   5.160   1.169  0.3919  0.5524 -0.2691
 3564SOL     OW11135   1.531   3.035   4.639  0.1174  0.2111 -0.2773
 3564SOL    HW111136   1.495   3.023   4.727 -1.8650  0.1691 -1.0347
 3564SOL    HW211137   1.546   3.129   4.631 -2.1170  0.5875 -0.7128
 3565SOL     OW11138   0.565   3.786   4.401  0.5584 -0.0785 -0.5104
 3565SOL    HW111139   0.582   3.857   4.340 -0.2458  2.1891  1.7559
 3565SOL    HW211140   0.642   3.784   4.458 -0.2213  0.2709  0.5920
 3566SOL     OW11141   4.965   1.862   0.727  0.5924  0.2409  0.0044
 3566SOL    HW111142   4.877   1.832   0.703  0.9777 -0.9816  0.0230
 3566SOL    HW211143   5.010   1.872   0.643  0.5438  0.4979  0.0101
 3567SOL     OW11144   4.486   0.054   0.676  0.0463  0.1627 -0.3495
 3567SOL    HW111145   4.519   0.126   0.730  0.5585 -0.4668  0.1940
 3567SOL    HW211146   4.563   0.001   0.658 -0.2960 -0.1420 -0.9179
 3568SOL     OW11147   5.824   3.853   4.749 -0.1022  0.2740 -0.0168
 3568SOL    HW111148   5.860   3.910   4.816 -2.1109  2.3389 -0.5550
 3568SOL    HW211149   5.831   3.765   4.786  0.5740  1.1408  2.0712
 3569SOL     OW11150   5.180   1.720   1.843  0.0381  0.0092 -0.0191
 3569SOL    HW111151   5.209   1.711   1.934 -0.5180  0.1483  0.1705
 3569SOL    HW211152   5.209   1.638   1.801 -1.9236 -1.2006  0.8796
 3570SOL     OW11153   5.628   1.322   0.360 -0.2847  0.5213  0.5374
 3570SOL    HW111154   5.674   1.347   0.441 -1.0069  1.5187  0.6600
 3570SOL    HW211155   5.652   1.390   0.297 -0.1581  0.0436  0.0620
 3571SOL     OW11156   4.558   5.466   4.408  0.5050 -0.0634  0.5272
 3571SOL    HW111157   4.652   5.483   4.410  1.1002 -2.7224  2.4572
 3571SOL    HW211158   4.531   5.471   4.500 -1.3319  0.8897 -0.0132
 3572SOL     OW11159   3.412   0.975   3.725 -0.8184  0.0799 -1.0558
 3572SOL    HW111160   3.330   1.002   3.766 -0.0936  0.4819  0.1838
 3572SOL    HW211161   3.408   0.880   3.722 -0.3061 -0.0742  1.2985
 3573SOL     OW11162   0.847   1.497   0.623  0.3939 -0.1067  0.4959
 3573SOL    HW111163   0.891   1.425   0.668  0.3674 -0.2230  0.3367
 3573SOL    HW211164   0.755   1.471   0.620  0.0841  0.7079  1.9565
 3574SOL     OW11165   2.754   0.085   5.929 -0.1355 -0.0912  0.1692
 3574SOL    HW111166   2.700   0.120   5.858 -0.2378 -1.4713 -0.4596
 3574SOL    HW211167   2.705   0.105   6.008  0.0745  1.6548 -0.1109
 3575SOL     OW11168   3.975   3.524   2.481  0.5245  0.3426 -0.3136
 3575SOL    HW111169   4.040   3.454   2.472  1.1408 -0.0145  4.2539
 3575SOL    HW211170   3.898   3.492   2.434  1.1765 -2.9420  0.5624
 3576SOL     OW11171   4.420   4.406   2.196  0.4221  0.2403 -0.3514
 3576SOL    HW111172   4.471   4.432   2.119  1.9823 -0.0716  0.5465
 3576SOL    HW211173   4.365   4.483   2.215  0.3706  0.4970 -1.4699
 3577SOL     OW11174   1.357   1.111   5.240 -0.3146 -0.5585 -0.5157
 3577SOL    HW111175   1.398   1.025   5.242 -0.0319 -0.4250 -0.4575
 3577SOL    HW211176   1.275   1.100   5.290  0.3265 -0.4866  0.5919
 3578SOL     OW11177   3.266   3.650   1.866 -0.0191 -0.4055 -0.2752
 3578SOL    HW111178   3.323   3.691   1.802 -0.2876 -1.5014 -1.2690
 3578SOL    HW211179   3.279   3.699   1.947  0.6064  0.7757 -1.0812
 3579SOL     OW11180   2.428   2.894   4.584  0.0493 -0.1279  0.1291
 3579SOL    HW111181   2.441   2.813   4.633  3.9517  0.0843 -0.2275
 3579SOL    HW211182   2.383   2.867   4.505 -1.1645 -1.4491  1.2155
 3580SOL     OW11183   3.772   3.268   1.037 -0.0060  0.0091 -0.3843
 3580SOL    HW111184   3.691   3.317   1.025 -1.0691 -2.0591 -2.3297
 3580SOL    HW211185   3.827   3.294   0.963  0.6985  0.5721  0.3187
 3581SOL     OW11186   0.308   2.175   2.550  0.0778  0.2702  0.3669
 3581SOL    HW111187   0.360   2.148   2.475  0.6442 -0.3065  0.9519
 3581SOL    HW211188   0.219   2.183   2.516  0.0100 -1.6536  0.0019
 3582SOL     OW11189   1.012   2.276   3.283 -0.0388 -0.3986  0.0811
 3582SOL    HW111190   0.989   2.270   3.376 -1.6917 -1.7395 -0.3730
 3582SOL    HW211191   0.932   2.306   3.240  0.2492 -1.2286 -1.0821
 3583SOL     OW11192   1.201   1.759   4.718 -0.3258  0.1658 -0.1599
 3583SOL    HW111193   1.115   1.720   4.706  0.6234 -1.6606 -1.6557
 3583SOL    HW211194   1.232   1.722   4.801 -0.4708 -0.2436 -0.2823
 3584SOL     OW11195   3.099   1.336   2.331 -0.2632 -0.1124 -0.4772
 3584SOL    HW111196   3.044   1.258   2.344 -0.1246  0.0725  1.4923
 3584SOL    HW211197   3.175   1.321   2.387  0.0169  1.1965 -0.4797
 3585SOL     OW11198   3.383   1.857   2.605  0.2072  0.7844 -0.3592
 3585SOL    HW111199   3.442   1.814   2.667 -0.5678  1.5995  1.0057
 3585SOL    HW211200   3.408   1.823   2.520  1.0169 -0.7320  0.4486
 3586SOL     OW11201   2.497   4.519   5.444  0.1862  0.3528 -0.0862
 3586SOL    HW111202   2.485   4.588   5.509  0.9848  1.2598 -0.8668
 3586SOL    HW211203   2.522   4.441   5.495 -0.1026  0.7985  0.7536
 3587SOL     OW11204   4.818   5.278   1.064 -0.3084  0.3582 -0.1004
 3587SOL    HW111205   4.766   5.286   0.984  1.3770 -0.5825 -1.3609
 3587SOL    HW211206   4.762   5.227   1.123 -2.3016  2.5622  0.0688
 3588SOL     OW11207   4.808   5.448   5.948 -0.0773 -0.0859  0.6292
 3588SOL    HW111208   4.774   5.359   5.947 -1.1259  0.3063  0.3748
 3588SOL    HW211209   4.807   5.473   6.040 -0.7016 -0.0048  0.6053
 3589SOL     OW11210   1.997   2.720   3.627 -0.2180  1.0780  0.4073
 3589SOL    HW111211   2.063   2.773   3.671  1.9676 -1.5022  0.4721
 3589SOL    HW211212   1.960   2.665   3.695 -0.0879  0.2416 -0.1776
 3590SOL     OW11213   3.447   0.976   0.670 -0.1833 -0.3052 -0.2043
 3590SOL    HW111214   3.369   0.979   0.725 -0.3563  0.9125 -0.4837
 3590SOL    HW211215   3.493   1.058   0.688  1.1680 -1.1029  0.1283
 3591SOL     OW11216   5.868   4.183   5.275  0.1831 -0.5252  0.4210
 3591SOL    HW111217   5.957   4.165   5.306  0.2275 -0.0703  0.5680
 3591SOL    HW211218   5.842   4.262   5.322 -0.4445 -0.8690  0.6535
 3592SOL     OW11219   2.727   3.161   4.224  0.2999 -0.1066 -0.6438
 3592SOL    HW111220   2.634   3.145   4.240  0.3668  0.0930 -0.0379
 3592SOL    HW211221   2.772   3.094   4.274  0.5816  1.7966  1.8541
 3593SOL     OW11222   1.284   3.587   4.079 -0.2660  0.2242  0.0852
 3593SOL    HW111223   1.326   3.592   3.994  0.6200  0.9177  0.5484
 3593SOL    HW211224   1.265   3.494   4.092  0.3369  0.0187 -0.5047
 3594SOL     OW11225   0.082   3.105   1.310 -0.3355 -0.3752 -0.0295
 3594SOL    HW111226   0.136   3.184   1.303 -0.0956 -0.4565  0.8012
 3594SOL    HW211227   0.098   3.073   1.399  0.2988 -1.8765 -0.6499
 3595SOL     OW11228   5.385   3.571   1.267 -0.1462 -0.2870 -0.3245
 3595SOL    HW111229   5.304   3.555   1.314  0.1048 -0.1749  0.1624
 3595SOL    HW211230   5.375   3.526   1.184  0.5569 -3.0794  0.9898
 3596SOL     OW11231   1.168   6.061   2.302 -0.0448 -0.1162 -0.1386
 3596SOL    HW111232   1.248   6.023   2.266 -0.5270 -0.1730 -1.1738
 3596SOL    HW211233   1.176   6.048   2.397  0.8908 -0.6545 -0.2801
 3597SOL     OW11234   3.256   4.218   4.824  1.0208  0.4893 -0.1397
 3597SOL    HW111235   3.283   4.234   4.915  1.6675  0.3528 -0.3050
 3597SOL    HW211236   3.244   4.305   4.787 -0.3516  0.5587  0.3824
 3598SOL     OW11237   4.382   5.708   3.400  0.4228 -0.4069 -0.5854
 3598SOL    HW111238   4.470   5.688   3.433 -0.8596 -2.4790  2.0162
 3598SOL    HW211239   4.357   5.631   3.349 -0.7553 -1.0288  0.8462
 3599SOL     OW11240   4.394   0.630   1.158  0.5632  0.1747 -0.4428
 3599SOL    HW111241   4.478   0.672   1.175 -0.2997  1.1567  1.8573
 3599SOL    HW211242   4.409   0.538   1.180  0.9788  0.3910  0.2018
 3600SOL     OW11243   5.453   3.207   2.823 -0.6069 -0.3970 -0.0647
 3600SOL    HW111244   5.494   3.133   2.779 -1.9434 -1.5625  0.5537
 3600SOL    HW211245   5.384   3.236   2.762  0.1743  0.6348 -0.4879
 3601SOL     OW11246   4.259   2.117   2.209 -0.1124 -0.0491  0.1578
 3601SOL    HW111247   4.186   2.057   2.196 -0.0423 -1.1176  3.5344
 3601SOL    HW211248   4.221   2.191   2.255  0.5392  0.4680 -0.1307
 3602SOL     OW11249   3.503   4.326   1.713 -0.4871 -0.1555 -0.4816
 3602SOL    HW111250   3.522   4.250   1.768  0.0346 -0.9437 -1.7005
 3602SOL    HW211251   3.585   4.376   1.712 -0.9346  0.6311  0.5998
 3603SOL     OW11252   3.520   3.543   3.908 -0.1223  0.0476  0.8088
 3603SOL    HW111253   3.524   3.639   3.906  0.3209  0.0226 -0.1263
 3603SOL    HW211254   3.598   3.517   3.957 -0.4478  0.1700  1.3990
 3604SOL     OW11255   5.131   3.223   3.630  0.2865  0.7415 -0.0801
 3604SOL    HW111256   5.053   3.187   3.672 -1.5631  1.8001 -2.3897
 3604SOL    HW211257   5.188   3.148   3.615 -0.5065 -0.1366  1.1524
 3605SOL     OW11258   1.525   0.375   5.693 -0.2789 -0.2530  0.8398
 3605SOL    HW111259   1.443   0.375   5.744 -0.0605 -3.3085  1.3532
 3605SOL    HW211260   1.498   0.354   5.604 -0.3556  2.4149  0.1433
 3606SOL     OW11261   0.097   1.337   5.474  0.4099  0.0016  0.8452
 3606SOL    HW111262   0.087   1.242   5.480 -3.0101  0.2293  0.4827
 3606SOL    HW211263   0.016   1.372   5.511  0.2311  2.6752 -1.7228
 3607SOL     OW11264   2.888   4.729   3.100 -0.5648 -0.2960  0.1337
 3607SOL    HW111265   2.979   4.734   3.128 -0.6958 -0.1203  0.5380
 3607SOL    HW211266   2.843   4.685   3.172 -1.0088  0.6762  0.4664
 3608SOL     OW11267   5.730   4.218   3.647  0.2382  0.4093 -0.0837
 3608SOL    HW111268   5.740   4.125   3.628  1.5222  0.4405  0.3501
 3608SOL    HW211269   5.801   4.238   3.709  0.1194  1.7133 -0.3356
 3609SOL     OW11270   2.186   1.672   1.962 -0.1122 -0.4105  0.6834
 3609SOL    HW111271   2.229   1.747   2.004 -0.2150  0.6041 -0.9021
 3609SOL    HW211272   2.124   1.712   1.901 -0.2782 -1.8084 -0.1044
 3610SOL     OW11273   3.529   5.296   5.506  0.4253 -0.3023 -0.6125
 3610SOL    HW111274   3.501   5.249   5.427 -1.0476 -0.1689 -0.1923
 3610SOL    HW211275   3.467   5.270   5.573  0.9599  0.5012  0.2181
 3611SOL     OW11276   3.159   2.304   4.448 -0.1378  0.4217  0.2949
 3611SOL    HW111277   3.244   2.349   4.439  0.3956 -0.6742 -0.3007
 3611SOL    HW211278   3.097   2.362   4.404  0.5309  0.6265 -0.4007
 3612SOL     OW11279   3.939   6.096   4.748 -0.1161 -0.5017  0.1243
 3612SOL    HW111280   4.001   6.048   4.692 -0.1565 -0.0078 -0.3524
 3612SOL    HW211281   3.855   6.085   4.705 -0.1095  0.0743 -0.0370
 3613SOL     OW11282   0.388   0.741   0.991  0.1479  0.0330 -0.0613
 3613SOL    HW111283   0.345   0.813   0.943 -1.7967 -1.8419 -1.3122
 3613SOL    HW211284   0.323   0.714   1.056  2.0572  1.3271  2.5767
 3614SOL     OW11285   0.322   3.566   2.405 -0.0195  0.1155 -0.7272
 3614SOL    HW111286   0.319   3.659   2.424  0.4744  0.6914 -3.2330
 3614SOL    HW211287   0.291   3.524   2.486  0.7626  2.3616  0.8244
 3615SOL     OW11288   2.570   4.004   0.224 -0.4323 -0.1307  0.0536
 3615SOL    HW111289   2.527   4.041   0.301  0.0217 -0.4961  0.4948
 3615SOL    HW211290   2.500   3.991   0.160 -0.9756 -0.7149  0.7527
 3616SOL     OW11291   2.174   4.426   3.721  0.7344 -0.0283 -0.0797
 3616SOL    HW111292   2.205   4.382   3.642  0.7512 -0.6493  0.2652
 3616SOL    HW211293   2.103   4.482   3.691 -0.3114 -1.4397 -0.3081
 3617SOL     OW11294   0.190   3.254   4.125 -0.5186 -0.2936  0.2398
 3617SOL    HW111295   0.178   3.233   4.217  0.8781  1.0037  0.7591
 3617SOL    HW211296   0.226   3.342   4.125  1.6335 -1.0814 -1.4053
 3618SOL     OW11297   4.804   4.157   4.840  0.6675  0.2678 -0.3458
 3618SOL    HW111298   4.880   4.151   4.782  0.8440 -1.7046  0.0195
 3618SOL    HW211299   4.761   4.072   4.832 -2.1861  1.6894 -1.3767
 3619SOL     OW11300   1.585   5.013   1.767  0.2501  0.2020  0.0112
 3619SOL    HW111301   1.636   4.933   1.754 -1.3841 -0.8761 -0.1999
 3619SOL    HW211302   1.649   5.083   1.769  1.9203 -1.2642  1.9295
 3620SOL     OW11303   5.894   3.533   1.105 -0.2225  0.3950 -0.2092
 3620SOL    HW111304   5.847   3.538   1.022  1.1446 -0.5801 -1.0950
 3620SOL    HW211305   5.830   3.499   1.167 -1.0645  0.4488 -1.0219
 3621SOL     OW11306   5.137   2.969   5.307  0.0385  0.8260  0.0673
 3621SOL    HW111307   5.176   2.942   5.390 -3.0950 -0.0458  1.3816
 3621SOL    HW211308   5.091   2.892   5.275  2.5847  0.5607 -3.5265
 3622SOL     OW11309   5.299   2.959   2.554  0.1723 -0.3697 -0.1046
 3622SOL    HW111310   5.364   2.964   2.624  0.2720 -2.3253 -0.0077
 3622SOL    HW211311   5.347   2.989   2.476  0.5309  0.2911  0.3593
 3623SOL     OW11312   3.168   0.452   3.044 -0.2007 -0.5794 -0.1269
 3623SOL    HW111313   3.084   0.421   3.012 -0.3520  0.3100 -0.6243
 3623SOL    HW211314   3.182   0.404   3.126 -2.0421  0.5271  0.9032
 3624SOL     OW11315   2.897   3.257   1.497  0.1409 -0.2541  0.9374
 3624SOL    HW111316   2.910   3.170   1.536 -1.9082 -1.3004 -0.4967
 3624SOL    HW211317   2.814   3.287   1.534 -1.1279 -0.6570 -1.3822
 3625SOL     OW11318   2.309   1.675   2.421  0.4807  0.0581  0.3025
 3625SOL    HW111319   2.319   1.589   2.380  0.3923 -0.3218  1.0623
 3625SOL    HW211320   2.353   1.735   2.361 -0.0729 -0.4072 -0.5941
 3626SOL     OW11321   0.755   4.231   1.273 -0.1609 -0.3378  0.1188
 3626SOL    HW111322   0.805   4.221   1.354  0.0191  0.6927  0.1541
 3626SOL    HW211323   0.798   4.173   1.210  1.2888  0.7536  0.0601
 3627SOL     OW11324   5.184   4.112   2.675 -0.0139  0.2871  0.6544
 3627SOL    HW111325   5.246   4.169   2.720 -1.0923  1.5151  0.6363
 3627SOL    HW211326   5.098   4.146   2.698 -0.6696 -0.7779 -0.1056
 3628SOL     OW11327   3.829   3.821   3.461  0.4474  0.0008 -0.3627
 3628SOL    HW111328   3.819   3.766   3.538  0.7360 -0.9179 -0.9652
 3628SOL    HW211329   3.761   3.888   3.471  0.6990  0.0944  0.8409
 3629SOL     OW11330   4.046   2.110   3.765 -0.0973  0.1053  0.2192
 3629SOL    HW111331   3.989   2.104   3.841  0.0331  0.6545  0.3694
 3629SOL    HW211332   4.135   2.109   3.801 -0.0287  0.1087  0.0551
 3630SOL     OW11333   5.123   5.982   3.558 -0.0433 -0.2721  0.1565
 3630SOL    HW111334   5.058   6.040   3.597  0.5439  1.0014 -0.6953
 3630SOL    HW211335   5.182   5.960   3.631 -0.3228  0.1342  0.5092
 3631SOL     OW11336   3.251   3.198   4.435 -0.2618 -0.1688 -0.0082
 3631SOL    HW111337   3.183   3.191   4.502 -1.4427 -1.0276 -1.2437
 3631SOL    HW211338   3.233   3.281   4.392  0.4785  0.3685  0.6923
 3632SOL     OW11339   1.195   2.327   2.680  0.0752 -0.0727 -0.3345
 3632SOL    HW111340   1.105   2.348   2.654  0.4404 -0.8410 -2.3796
 3632SOL    HW211341   1.233   2.412   2.703 -1.9219  0.0220  3.5378
 3633SOL     OW11342   2.036   3.832   2.018 -0.4204  0.0220  0.0525
 3633SOL    HW111343   2.110   3.875   2.061 -0.8998  1.0460 -0.1311
 3633SOL    HW211344   2.036   3.743   2.054  1.8147 -0.4959 -1.0388
 3634SOL     OW11345   4.674   5.621   0.332 -0.4695  0.4565  0.4988
 3634SOL    HW111346   4.586   5.611   0.370 -0.7800 -0.1037 -0.3549
 3634SOL    HW211347   4.723   5.546   0.366 -0.5939  0.2460  0.2121
 3635SOL     OW11348   2.810   6.015   4.742 -0.4293 -0.3273  0.3713
 3635SOL    HW111349   2.853   6.082   4.690  0.6064  0.3819  2.0570
 3635SOL    HW211350   2.881   5.957   4.771 -0.8814 -0.3774  1.4458
 3636SOL     OW11351   0.758   4.595   1.379 -0.4772 -0.2593  0.5042
 3636SOL    HW111352   0.801   4.524   1.427  1.6242  1.2179  0.9775
 3636SOL    HW211353   0.694   4.630   1.440  0.3190 -0.0974  1.2620
 3637SOL     OW11354   4.914   1.189   4.778  0.6100 -0.1334  0.3383
 3637SOL    HW111355   4.916   1.236   4.861  0.7483  0.6708 -0.1141
 3637SOL    HW211356   4.891   1.255   4.713  2.6848 -0.2504 -0.5942
 3638SOL     OW11357   1.286   0.994   3.798 -0.4034  0.2947 -0.0580
 3638SOL    HW111358   1.336   0.955   3.869  1.2128 -0.9776 -1.7844
 3638SOL    HW211359   1.344   1.062   3.763 -1.4607  1.3810  0.2430
 3639SOL     OW11360   3.501   1.133   1.216 -0.1407 -0.0480  0.0851
 3639SOL    HW111361   3.549   1.202   1.261 -0.7494  0.5652 -0.1708
 3639SOL    HW211362   3.563   1.098   1.152 -0.2580  1.2998 -0.8219
 3640SOL     OW11363   1.591   3.013   5.492 -0.4056  0.3187 -0.0686
 3640SOL    HW111364   1.566   3.053   5.575  0.1056 -0.3179  0.4038
 3640SOL    HW211365   1.622   2.925   5.515 -1.0825 -0.1943 -1.0356
 3641SOL     OW11366   4.487   2.211   2.046  0.3571  0.0378 -0.1202
 3641SOL    HW111367   4.500   2.265   2.124  0.8397  0.1348 -0.2622
 3641SOL    HW211368   4.407   2.161   2.064  0.0725  0.5800  0.1383
 3642SOL     OW11369   4.933   4.946   5.135 -0.4520  0.1597 -0.3021
 3642SOL    HW111370   4.898   4.889   5.066  0.9863  0.8028 -1.6368
 3642SOL    HW211371   4.875   5.022   5.136 -0.3365  0.2695 -1.0350
 3643SOL     OW11372   2.948   5.317   4.788 -0.0558  0.3866  0.0756
 3643SOL    HW111373   2.913   5.389   4.736 -1.0465  0.1160  0.3393
 3643SOL    HW211374   3.019   5.356   4.839 -0.7407  1.2264  0.4013
 3644SOL     OW11375   1.110   0.089   3.711 -0.0129  0.2854 -0.3112
 3644SOL    HW111376   1.153   0.041   3.640 -0.8070 -0.1098 -0.5410
 3644SOL    HW211377   1.017   0.076   3.696 -0.2383  1.5143 -0.0842
 3645SOL     OW11378   5.624   0.792   2.081 -0.2363  0.1495 -0.1014
 3645SOL    HW111379   5.548   0.738   2.058  0.4530  0.2843 -3.1498
 3645SOL    HW211380   5.695   0.729   2.094  0.1409  0.1669 -1.8429
 3646SOL     OW11381   0.040   4.584   0.218 -0.2569  0.1564 -0.3678
 3646SOL    HW111382  -0.025   4.600   0.149 -2.4604 -0.7751  1.3283
 3646SOL    HW211383  -0.002   4.617   0.298  1.7266  0.2049  0.7167
 3647SOL     OW11384   4.010   3.002   3.144 -0.0589  0.3030  0.4665
 3647SOL    HW111385   4.056   2.962   3.218 -0.3148  0.9189  0.9645
 3647SOL    HW211386   4.054   3.085   3.130 -0.8230  0.7614  0.7502
 3648SOL     OW11387   4.426   5.330   1.501 -0.1157  0.1478  0.0790
 3648SOL    HW111388   4.449   5.421   1.517 -0.5451  0.1989  0.4229
 3648SOL    HW211389   4.343   5.335   1.453 -1.3536 -0.0940  2.1000
 3649SOL     OW11390   5.820   2.252   4.747  0.2666  0.0003  0.0748
 3649SOL    HW111391   5.739   2.288   4.785 -0.2017 -1.2709  0.3371
 3649SOL    HW211392   5.820   2.284   4.657 -0.0956  0.6862  0.3070
 3650SOL     OW11393   3.158   2.337   1.368 -0.3350  0.6456  0.3505
 3650SOL    HW111394   3.084   2.341   1.308 -0.1121 -1.4681 -0.1673
 3650SOL    HW211395   3.217   2.273   1.329  2.1091  2.6743  0.4310
 3651SOL     OW11396   4.530   4.989   1.845  0.1306  0.2027  0.6342
 3651SOL    HW111397   4.502   4.902   1.816 -1.2273  0.8740 -0.1490
 3651SOL    HW211398   4.463   5.048   1.812  0.6295  1.4777  1.8154
 3652SOL     OW11399   5.040   3.477   2.494 -0.2228 -0.3312  0.4383
 3652SOL    HW111400   4.993   3.499   2.574  0.2322 -1.2400  0.9707
 3652SOL    HW211401   4.978   3.496   2.423 -0.1459  1.8398  0.8842
 3653SOL     OW11402   4.792   4.080   5.518 -0.7299  0.2539  0.0645
 3653SOL    HW111403   4.760   4.151   5.464  1.3797  2.5543  1.6384
 3653SOL    HW211404   4.859   4.037   5.465 -1.7232 -0.3800 -0.7266
 3654SOL     OW11405   5.374   2.489   2.866 -0.3657  0.1150 -0.0077
 3654SOL    HW111406   5.311   2.561   2.871 -0.5200  0.0961 -1.3220
 3654SOL    HW211407   5.457   2.531   2.846 -0.5747 -0.0947 -1.4219
 3655SOL     OW11408   1.659   6.082   4.931 -0.6788  0.3434  0.1555
 3655SOL    HW111409   1.733   6.052   4.879 -0.8587 -1.8996  1.0318
 3655SOL    HW211410   1.583   6.073   4.873 -0.5753  0.1382  0.0498
 3656SOL     OW11411   4.023   4.674   2.422  0.3813 -0.9796 -0.5236
 3656SOL    HW111412   4.009   4.596   2.369  1.1666 -1.0179 -0.6872
 3656SOL    HW211413   4.067   4.735   2.362  3.3503 -1.7967  0.6247
 3657SOL     OW11414   0.796   3.067   0.547  0.5391 -0.5270  0.7696
 3657SOL    HW111415   0.729   3.036   0.486  0.7371  0.8869 -0.2147
 3657SOL    HW211416   0.859   3.114   0.492  0.9445  0.4337  2.0028
 3658SOL     OW11417   2.587   2.865   2.596 -0.8596  0.3419 -0.4604
 3658SOL    HW111418   2.633   2.925   2.655  1.1998 -1.2393 -0.3672
 3658SOL    HW211419   2.650   2.846   2.527 -1.6596 -1.2683 -0.7953
 3659SOL     OW11420   5.061   5.391   0.277  0.1738 -0.0964  0.3325
 3659SOL    HW111421   5.059   5.340   0.197 -1.5892  2.5982 -1.5297
 3659SOL    HW211422   5.153   5.416   0.288  0.4398 -0.4679 -0.8930
 3660SOL     OW11423   0.446   0.927   0.755 -0.4020  0.1729  0.4247
 3660SOL    HW111424   0.373   0.963   0.805 -1.0669 -0.0688 -0.3611
 3660SOL    HW211425   0.482   1.001   0.707  0.2074  0.3959  1.1953
 3661SOL     OW11426   1.404   5.643   2.329  0.0217 -0.4352  0.5637
 3661SOL    HW111427   1.489   5.637   2.373 -0.6772 -0.5721  1.9387
 3661SOL    HW211428   1.342   5.603   2.390 -0.7582 -2.2033 -1.2594
 3662SOL     OW11429   4.989   1.412   1.701 -0.0035  0.9093 -0.0433
 3662SOL    HW111430   5.078   1.433   1.674  0.0949  0.1746 -0.3022
 3662SOL    HW211431   4.994   1.398   1.795  0.4322 -0.4669 -0.2438
 3663SOL     OW11432   5.671   0.142   1.184  0.2474  0.7249 -0.3571
 3663SOL    HW111433   5.731   0.099   1.247 -0.2788  1.4782  0.6899
 3663SOL    HW211434   5.623   0.205   1.237 -0.9055  0.7038 -1.3521
 3664SOL     OW11435   4.565   2.384   3.459 -0.6044 -0.0440  0.2135
 3664SOL    HW111436   4.534   2.468   3.493 -1.5366  0.3691 -1.5715
 3664SOL    HW211437   4.487   2.344   3.421  0.4115 -0.4101 -1.5410
 3665SOL     OW11438   0.692   0.865   4.007 -0.3944  0.6691 -0.2456
 3665SOL    HW111439   0.651   0.939   3.962  0.7111  2.0453  0.8985
 3665SOL    HW211440   0.621   0.823   4.056 -1.0479  0.9333 -0.9600
 3666SOL     OW11441   4.659   0.178   0.897  0.1790  0.0736  0.0399
 3666SOL    HW111442   4.683   0.094   0.937  1.3025  0.5229  0.3463
 3666SOL    HW211443   4.743   0.215   0.868 -0.4454  0.4680 -1.3458
 3667SOL     OW11444   2.663   2.894   4.055  0.1084 -0.3612  0.2696
 3667SOL    HW111445   2.682   2.911   3.963  0.2391 -1.6256  0.0349
 3667SOL    HW211446   2.583   2.841   4.054  0.2109 -0.5447  0.8702
 3668SOL     OW11447   5.673   1.925   1.708  0.1322  0.4656 -0.4823
 3668SOL    HW111448   5.668   1.982   1.632 -0.7250 -1.4931 -1.9776
 3668SOL    HW211449   5.766   1.901   1.714  0.0699 -0.0470 -1.4517
 3669SOL     OW11450   6.102   2.417   3.630 -0.1671  0.4603 -0.2100
 3669SOL    HW111451   6.187   2.390   3.596 -0.4924 -0.2467 -0.4784
 3669SOL    HW211452   6.039   2.382   3.567 -0.6840  0.5852  0.2296
 3670SOL     OW11453   4.658   2.495   2.979 -0.1423 -0.3934 -0.2428
 3670SOL    HW111454   4.692   2.414   2.941  0.5309  0.4077 -1.3950
 3670SOL    HW211455   4.696   2.497   3.067  1.6015 -0.2965 -0.9566
 3671SOL     OW11456   0.382   2.324   3.283  0.0347 -0.1313 -0.5092
 3671SOL    HW111457   0.389   2.366   3.197 -3.0924 -1.2619 -1.4700
 3671SOL    HW211458   0.351   2.235   3.263  3.2266 -1.8804  1.6214
 3672SOL     OW11459   0.156   4.979   5.969  0.0279  0.6226 -0.1099
 3672SOL    HW111460   0.104   5.039   6.023  1.0810  0.8122  0.7227
 3672SOL    HW211461   0.246   4.992   5.999  0.3162 -1.1812 -0.1174
 3673SOL     OW11462   3.756   2.084   2.754  0.4543  0.3194  0.0066
 3673SOL    HW111463   3.744   2.141   2.830 -0.1396 -0.9753  0.9279
 3673SOL    HW211464   3.764   2.144   2.680 -1.0419  1.5791  0.8025
 3674SOL     OW11465   3.537   5.471   1.937 -0.2049  0.0174 -0.1604
 3674SOL    HW111466   3.492   5.475   2.022 -1.4457  3.0462 -0.8284
 3674SOL    HW211467   3.611   5.530   1.947 -0.1126  0.0550 -1.0565
 3675SOL     OW11468   1.713   5.659   4.131 -0.1927 -0.5862  0.6386
 3675SOL    HW111469   1.661   5.585   4.099  1.3700 -2.1367  1.5452
 3675SOL    HW211470   1.743   5.703   4.051 -3.0899  0.6009  0.0665
 3676SOL     OW11471   1.662   5.776   4.388 -0.3320  0.2281 -0.1747
 3676SOL    HW111472   1.680   5.695   4.339  0.2514 -1.0903  2.0923
 3676SOL    HW211473   1.725   5.839   4.354 -0.4244 -0.3915 -1.6008
 3677SOL     OW11474   2.578   1.459   0.911 -1.0181  0.2703  0.3115
 3677SOL    HW111475   2.654   1.517   0.914 -0.6410 -0.0955 -1.3335
 3677SOL    HW211476   2.603   1.385   0.965  0.4415 -0.5356 -1.3705
 3678SOL     OW11477   2.085   5.338   3.225 -0.1798  0.4626 -0.0009
 3678SOL    HW111478   2.174   5.374   3.231  0.2788 -0.8192  1.6262
 3678SOL    HW211479   2.047   5.357   3.311 -0.7102 -0.8991  0.0781
 3679SOL     OW11480   0.229   0.286   0.321 -0.0980 -0.0748 -0.7491
 3679SOL    HW111481   0.232   0.193   0.295  1.5234  0.2926 -2.0853
 3679SOL    HW211482   0.301   0.295   0.383 -1.6310 -0.1278  1.1225
 3680SOL     OW11483   1.682   1.269   5.734 -0.3185 -0.3576  0.7031
 3680SOL    HW111484   1.738   1.308   5.801 -0.9073 -1.0142  1.6032
 3680SOL    HW211485   1.614   1.336   5.718  0.3721  0.2018  0.0265
 3681SOL     OW11486   4.541   5.847   1.111 -0.1804  0.0955  0.2854
 3681SOL    HW111487   4.507   5.864   1.199 -0.9222 -0.3808  0.0987
 3681SOL    HW211488   4.634   5.829   1.125 -0.6936 -2.1464  1.2854
 3682SOL     OW11489   1.156   0.893   4.579 -0.2103  0.2005  0.3360
 3682SOL    HW111490   1.069   0.870   4.610 -0.1573 -0.8869 -0.2500
 3682SOL    HW211491   1.142   0.958   4.510 -0.3916  1.7879  1.8064
 3683SOL     OW11492   3.512   0.092   5.439  0.0106  0.1762 -0.3630
 3683SOL    HW111493   3.539   0.130   5.523  0.2363  1.5078 -1.0221
 3683SOL    HW211494   3.508  -0.002   5.456  1.2287  0.3116  0.8172
 3684SOL     OW11495   6.028   2.766   2.525  0.2582  0.1641  0.1275
 3684SOL    HW111496   6.014   2.842   2.468 -0.6578  0.1160  0.2848
 3684SOL    HW211497   6.121   2.771   2.549  1.1920 -0.8259 -2.8433
 3685SOL     OW11498   4.883   5.248   1.397 -0.3157  0.3731  0.4978
 3685SOL    HW111499   4.831   5.219   1.322 -1.5169 -0.9659  1.7659
 3685SOL    HW211500   4.958   5.294   1.359  0.1475 -1.8928 -1.6215
 3686SOL     OW11501   1.716   3.176   4.331  1.1384 -0.2335 -0.1953
 3686SOL    HW111502   1.799   3.171   4.283  0.1782 -1.5628 -1.8436
 3686SOL    HW211503   1.668   3.097   4.305  0.5082 -1.0769  3.0104
 3687SOL     OW11504   5.756   2.091   3.283  0.1892  0.9366 -0.2383
 3687SOL    HW111505   5.707   2.035   3.223 -0.7238  1.0766  0.3469
 3687SOL    HW211506   5.688   2.136   3.334  0.9269  0.3921  1.2893
 3688SOL     OW11507   1.991   5.020   3.376  0.0666  0.0992 -0.6407
 3688SOL    HW111508   1.983   5.003   3.282  1.0387 -2.6916 -0.2918
 3688SOL    HW211509   2.083   5.043   3.389  0.1088 -0.2837 -0.2535
 3689SOL     OW11510   0.796   5.707   0.860  0.9719  0.7718  0.0384
 3689SOL    HW111511   0.878   5.745   0.894  1.9141 -0.1463 -1.0961
 3689SOL    HW211512   0.727   5.748   0.911  2.1152  2.0227  0.6303
 3690SOL     OW11513   2.038   4.886   1.224 -0.2369 -0.0813 -0.0588
 3690SOL    HW111514   2.017   4.969   1.183 -1.1293 -1.0569 -1.6770
 3690SOL    HW211515   2.133   4.889   1.237 -0.0186  0.5609 -1.5822
 3691SOL     OW11516   3.983   4.490   3.029  0.4681 -0.1934  0.1404
 3691SOL    HW111517   3.976   4.426   2.958 -2.7982 -0.6259  0.7365
 3691SOL    HW211518   3.893   4.506   3.056  1.4469  1.9772  2.4421
 3692SOL     OW11519   2.525   1.634   3.363  0.0994 -0.4378 -0.2290
 3692SOL    HW111520   2.521   1.573   3.289 -0.4169  1.0304 -1.4691
 3692SOL    HW211521   2.611   1.675   3.356 -0.4007  0.5691 -0.7792
 3693SOL     OW11522   2.216   2.806   2.234  0.0003  0.1706  0.0949
 3693SOL    HW111523   2.183   2.880   2.285 -1.7994  0.5851 -1.5070
 3693SOL    HW211524   2.181   2.728   2.278 -0.0371  0.4142  0.4982
 3694SOL     OW11525   2.156   0.977   0.661  0.2662  0.3293 -0.5257
 3694SOL    HW111526   2.149   1.049   0.598  0.2054  0.4458 -0.3872
 3694SOL    HW211527   2.245   0.943   0.650 -0.1736 -0.5216 -1.6113
 3695SOL     OW11528   1.128   2.497   3.617 -0.1674 -0.0523 -0.0785
 3695SOL    HW111529   1.079   2.479   3.698  0.0376  0.4638  0.1680
 3695SOL    HW211530   1.116   2.591   3.603  0.8792  0.1106  0.0673
 3696SOL     OW11531   1.603   0.869   1.075  0.2432  0.3637 -0.0444
 3696SOL    HW111532   1.536   0.860   1.143 -0.6377 -0.3077 -0.9670
 3696SOL    HW211533   1.596   0.961   1.047 -2.4376 -0.3177 -2.1643
 3697SOL     OW11534   4.492   6.125   1.144  0.0809  0.8701 -0.0357
 3697SOL    HW111535   4.516   6.032   1.135 -0.4737  0.7196  0.0120
 3697SOL    HW211536   4.576   6.171   1.150  0.3600  0.3692 -0.0427
 3698SOL     OW11537   0.750   3.540   3.985  0.0942  0.2747 -0.2888
 3698SOL    HW111538   0.777   3.629   3.961 -2.2502  1.1095 -0.0565
 3698SOL    HW211539   0.740   3.495   3.901  1.7494  0.0376 -0.3922
 3699SOL     OW11540   5.489   4.181   6.076  0.5554 -0.4073  0.0331
 3699SOL    HW111541   5.428   4.107   6.079  0.2754 -0.1705  0.2678
 3699SOL    HW211542   5.547   4.167   6.151  0.3216 -0.2378  0.2478
 3700SOL     OW11543   1.720   2.705   0.909  0.6390  0.3768  0.6572
 3700SOL    HW111544   1.659   2.697   0.836  1.8851  1.3467 -0.5440
 3700SOL    HW211545   1.727   2.617   0.945 -1.8310  0.3222  1.1721
 3701SOL     OW11546   3.503   1.995   4.873 -0.1665 -0.3740 -0.1186
 3701SOL    HW111547   3.518   2.045   4.953 -0.5341 -0.7211  0.1685
 3701SOL    HW211548   3.511   2.059   4.803 -1.1237  0.1947  0.2750
 3702SOL     OW11549   3.764   4.876   5.316 -0.0697  0.2170 -0.7988
 3702SOL    HW111550   3.849   4.882   5.272 -0.4473  2.1691 -1.3577
 3702SOL    HW211551   3.768   4.941   5.386 -1.3678  0.9382 -1.3540
 3703SOL     OW11552   5.949   2.289   3.434 -0.1002 -0.4961  0.2572
 3703SOL    HW111553   6.011   2.221   3.408  0.2895 -0.0290 -0.0536
 3703SOL    HW211554   5.889   2.295   3.360  0.5611  0.3070 -0.2287
 3704SOL     OW11555   0.613   5.786   1.051  0.0629  0.2724 -0.5871
 3704SOL    HW111556   0.560   5.707   1.046  0.9484 -0.3621 -0.2629
 3704SOL    HW211557   0.563   5.845   1.107 -0.2447 -0.3608 -0.1738
 3705SOL     OW11558   5.459   4.484   6.014 -0.2691 -0.4390 -0.7826
 3705SOL    HW111559   5.458   4.388   6.018  2.2845 -0.4998  0.6267
 3705SOL    HW211560   5.491   4.511   6.099  1.4978  1.5136 -1.9667
 3706SOL     OW11561   2.173   2.456   3.997  0.0550 -0.0980  0.8949
 3706SOL    HW111562   2.192   2.510   4.074 -0.8536  2.4793 -0.5660
 3706SOL    HW211563   2.149   2.370   4.032  0.0490  0.8828  3.4470
 3707SOL     OW11564   3.581   4.808   1.839  0.1939 -0.2830 -0.1007
 3707SOL    HW111565   3.665   4.845   1.810  0.1749 -0.6306 -0.6296
 3707SOL    HW211566   3.519   4.880   1.832  0.8918  0.6923  2.6337
 3708SOL     OW11567   4.467   3.475   1.128 -0.6784 -0.5805 -0.3362
 3708SOL    HW111568   4.475   3.388   1.168  1.4194 -0.5411 -0.5674
 3708SOL    HW211569   4.487   3.461   1.036  0.5522  0.2490 -0.2203
 3709SOL     OW11570   0.865   0.450   3.545 -0.0843  0.0036 -0.0484
 3709SOL    HW111571   0.908   0.535   3.537  0.7030 -0.1931  1.6618
 3709SOL    HW211572   0.936   0.389   3.566 -0.9194 -0.7046  0.8203
 3710SOL     OW11573   0.990   0.436   0.554 -0.3508 -0.5684 -0.1639
 3710SOL    HW111574   1.008   0.509   0.495  0.6088 -1.2586 -0.7529
 3710SOL    HW211575   0.913   0.393   0.516 -0.7178 -0.0560  0.0007
 3711SOL     OW11576   4.636   4.191   3.636 -0.1070 -0.1178  0.2339
 3711SOL    HW111577   4.617   4.103   3.604 -0.9329 -0.1797  0.8733
 3711SOL    HW211578   4.566   4.245   3.602  0.1419  0.2093  0.2320
 3712SOL     OW11579   3.639   1.316   1.345 -0.6502  0.4922 -0.1496
 3712SOL    HW111580   3.639   1.411   1.337  0.8821  0.4882 -0.5151
 3712SOL    HW211581   3.655   1.299   1.438 -4.1834  0.5306  0.6132
 3713SOL     OW11582   3.632   0.245   2.866  0.6339 -0.6435  0.3616
 3713SOL    HW111583   3.566   0.311   2.885 -0.0625  0.1312 -3.8834
 3713SOL    HW211584   3.584   0.163   2.859  0.6308 -0.6259  0.1906
 3714SOL     OW11585   1.453   5.933   2.582 -0.3179  0.4919 -0.0129
 3714SOL    HW111586   1.359   5.929   2.562 -0.1617  0.4596 -0.7743
 3714SOL    HW211587   1.493   5.963   2.500  0.4087 -0.2027  0.0725
 3715SOL     OW11588   2.483   1.636   5.036 -0.3124 -0.3402  0.2909
 3715SOL    HW111589   2.503   1.565   4.975 -2.7084 -1.6529  0.9168
 3715SOL    HW211590   2.546   1.625   5.107  0.3048 -0.8880 -0.3187
 3716SOL     OW11591   1.343   0.206   4.884  0.3057 -0.3868  0.2021
 3716SOL    HW111592   1.363   0.228   4.793  1.5421  0.0693  0.5682
 3716SOL    HW211593   1.389   0.273   4.935 -1.8266  0.4525  1.1339
 3717SOL     OW11594   4.915   4.128   2.739 -0.6570  0.4697  0.3491
 3717SOL    HW111595   4.855   4.094   2.672  0.9225  0.5819 -1.1875
 3717SOL    HW211596   4.937   4.051   2.792 -1.9930  0.3964  0.8488
 3718SOL     OW11597   4.283   4.879   3.829 -0.3888  0.3850  0.4432
 3718SOL    HW111598   4.269   4.863   3.736  0.3027 -1.4411  0.5960
 3718SOL    HW211599   4.198   4.860   3.869 -0.3559 -0.1024  0.2957
 3719SOL     OW11600   1.406   1.687   0.254  0.1858 -0.2041  0.1755
 3719SOL    HW111601   1.333   1.703   0.194  0.4942  0.5658  0.0010
 3719SOL    HW211602   1.363   1.671   0.339 -0.2149 -0.5658 -0.0880
 3720SOL     OW11603   0.200   3.268   4.894 -0.2755  0.3124 -0.1366
 3720SOL    HW111604   0.274   3.263   4.834  1.0082  0.4951  1.3671
 3720SOL    HW211605   0.233   3.317   4.969 -2.4172  1.8214 -0.0959
 3721SOL     OW11606   0.735   3.507   3.454 -0.2567 -0.0653  0.0016
 3721SOL    HW111607   0.695   3.429   3.417  0.4871 -0.2276 -0.4859
 3721SOL    HW211608   0.825   3.505   3.422  0.1496  0.2761  1.0798
 3722SOL     OW11609   0.190   1.125   1.164 -0.5857 -0.8217  0.1283
 3722SOL    HW111610   0.119   1.189   1.164 -0.9788 -1.2370 -0.6590
 3722SOL    HW211611   0.173   1.070   1.241 -0.8723 -0.6464  0.1890
 3723SOL     OW11612   2.355   3.951   5.372 -0.6042  0.2912 -0.6093
 3723SOL    HW111613   2.433   3.916   5.328 -2.2661 -2.5321 -1.5562
 3723SOL    HW211614   2.354   3.907   5.457 -0.5075  1.2927 -0.0825
 3724SOL     OW11615   0.466   4.255   5.118  0.4660 -0.2243 -0.5601
 3724SOL    HW111616   0.555   4.223   5.134  0.6063  0.6637  0.5027
 3724SOL    HW211617   0.429   4.268   5.205  0.3484  2.2701 -0.9338
 3725SOL     OW11618   1.811   5.124   2.124  0.1633 -0.5396 -0.2968
 3725SOL    HW111619   1.843   5.095   2.209  1.7262  0.9593 -0.3051
 3725SOL    HW211620   1.731   5.073   2.109 -0.7649 -0.0977  2.5219
 3726SOL     OW11621   2.449   2.049   1.214  0.4177 -0.0824 -0.1508
 3726SOL    HW111622   2.400   2.128   1.239 -0.4708 -0.6699  0.0300
 3726SOL    HW211623   2.541   2.074   1.222  0.1481  0.7122  0.6324
 3727SOL     OW11624   0.428   0.735   2.168  0.0694  0.2094 -0.2229
 3727SOL    HW111625   0.494   0.794   2.204  0.0770 -0.7374  1.4826
 3727SOL    HW211626   0.349   0.787   2.162  0.3151  0.6539  0.3288
 3728SOL     OW11627   3.993   2.034   0.038  0.8090 -0.6937  0.5846
 3728SOL    HW111628   3.983   1.965   0.103  1.9365  1.2646  2.9934
 3728SOL    HW211629   3.946   2.109   0.075  0.9477  0.3237 -1.1791
 3729SOL     OW11630   0.321   5.394   5.243 -0.3309  0.2383 -0.2005
 3729SOL    HW111631   0.276   5.310   5.233  0.6486 -0.1760 -1.3660
 3729SOL    HW211632   0.366   5.408   5.159 -1.0394  2.2755 -0.3105
 3730SOL     OW11633   2.960   5.540   4.167 -1.1744 -0.4294 -0.1708
 3730SOL    HW111634   2.955   5.445   4.164 -0.8295 -0.4444 -0.4060
 3730SOL    HW211635   3.053   5.559   4.151 -1.4672 -0.0080 -1.5085
 3731SOL     OW11636   3.958   1.638   2.285 -0.0021 -0.5402 -0.2039
 3731SOL    HW111637   3.927   1.552   2.254 -1.3870 -0.2745  0.3492
 3731SOL    HW211638   3.972   1.625   2.379 -2.2328  0.3112  0.3242
 3732SOL     OW11639   5.981   2.464   1.499  0.0464 -0.0455  0.3490
 3732SOL    HW111640   5.948   2.495   1.583 -1.1159  0.1110 -0.1585
 3732SOL    HW211641   6.006   2.373   1.516  3.0024  0.8738  1.7158
 3733SOL     OW11642   1.395   1.423   4.455 -0.1154  0.1089  0.0690
 3733SOL    HW111643   1.321   1.389   4.506 -2.8606  0.5069 -3.2227
 3733SOL    HW211644   1.374   1.515   4.442 -0.2894 -0.2138 -2.6457
 3734SOL     OW11645   0.411   0.541   5.248 -0.1091 -0.6165 -0.1027
 3734SOL    HW111646   0.468   0.547   5.171 -0.2558 -0.6262 -0.2112
 3734SOL    HW211647   0.338   0.486   5.221 -0.6089  0.0953 -0.2325
 3735SOL     OW11648   3.934   1.157   2.232  0.5046 -0.5322 -0.3026
 3735SOL    HW111649   3.893   1.124   2.152  0.5017 -1.3128  0.0114
 3735SOL    HW211650   3.861   1.187   2.286  0.5556  0.7456 -0.9017
 3736SOL     OW11651   3.996   2.748   3.807  0.7597  0.1790  0.3870
 3736SOL    HW111652   3.922   2.763   3.866  1.0133  0.6405  0.5951
 3736SOL    HW211653   3.988   2.657   3.781  0.8465 -0.1311  1.4176
 3737SOL     OW11654   5.776   0.333   2.474 -0.2097 -0.5465  0.7687
 3737SOL    HW111655   5.747   0.353   2.563 -1.0783 -0.7557  0.5390
 3737SOL    HW211656   5.708   0.276   2.439  1.7632 -3.3786  1.1497
 3738SOL     OW11657   1.218   3.037   0.061  0.1160 -0.0719  0.2582
 3738SOL    HW111658   1.201   2.944   0.074  1.5248 -0.1411  2.0004
 3738SOL    HW211659   1.314   3.042   0.052  0.0138  1.1686 -0.2918
 3739SOL     OW11660   1.311   5.262   3.270  0.8616  0.3344  0.3755
 3739SOL    HW111661   1.345   5.305   3.349  0.2111  2.5049 -0.4662
 3739SOL    HW211662   1.230   5.219   3.299 -0.0268  2.1428  0.6802
 3740SOL     OW11663   3.154   2.942   1.862  0.0403  0.1269 -0.2305
 3740SOL    HW111664   3.201   2.897   1.792  1.5835  1.2526  0.0294
 3740SOL    HW211665   3.170   3.035   1.846 -0.0094  0.4280  1.3075
 3741SOL     OW11666   5.321   0.074   5.604  0.6284 -0.3055 -0.0835
 3741SOL    HW111667   5.292   0.165   5.592 -0.4278 -0.7777 -1.3206
 3741SOL    HW211668   5.289   0.028   5.526 -0.6482 -2.1698  1.4386
 3742SOL     OW11669   0.644   5.362   4.549  0.3106 -0.4466 -0.1581
 3742SOL    HW111670   0.702   5.419   4.598 -0.4639  0.7241 -0.5702
 3742SOL    HW211671   0.701   5.291   4.518  0.9903 -0.6902  1.5718
 3743SOL     OW11672   0.974   4.826   6.050 -0.0848  0.0130 -0.0786
 3743SOL    HW111673   1.043   4.778   6.097 -0.8806 -0.5566  0.5342
 3743SOL    HW211674   1.007   4.916   6.045  0.1927  0.0085  1.2488
 3744SOL     OW11675   2.009   0.816   5.510  0.2796 -0.4352  0.3084
 3744SOL    HW111676   1.956   0.738   5.525 -1.2379  0.1084 -1.8540
 3744SOL    HW211677   2.098   0.783   5.495 -0.0680 -1.6040  0.7308
 3745SOL     OW11678   0.239   5.516   5.836  0.0411  0.0182 -0.1218
 3745SOL    HW111679   0.255   5.591   5.780  0.8321  0.6572  0.9189
 3745SOL    HW211680   0.145   5.498   5.827 -0.2813  1.5077  0.0579
 3746SOL     OW11681   3.392   4.230   0.614 -0.5543  0.0245  0.4123
 3746SOL    HW111682   3.298   4.227   0.592 -0.3994  1.3207 -0.5400
 3746SOL    HW211683   3.430   4.289   0.549  0.7811  0.2530  1.3548
 3747SOL     OW11684   1.673   4.112   5.689 -0.0813 -0.3893  0.1130
 3747SOL    HW111685   1.754   4.061   5.693 -0.1311 -0.3780  2.0872
 3747SOL    HW211686   1.699   4.201   5.712 -0.3005  0.1360 -1.5514
 3748SOL     OW11687   1.990   1.626   2.376 -0.2641  0.3875 -0.5345
 3748SOL    HW111688   2.027   1.569   2.308 -0.3620 -0.1563 -0.1361
 3748SOL    HW211689   1.992   1.573   2.456 -0.6624  0.8280 -0.2252
 3749SOL     OW11690   2.904   5.672   4.413 -0.2278  0.1380 -0.4812
 3749SOL    HW111691   2.821   5.713   4.388 -0.6294 -0.5444 -0.3060
 3749SOL    HW211692   2.919   5.605   4.347  0.8953  1.1412 -1.2920
 3750SOL     OW11693   4.339   1.754   5.138 -0.2524 -0.6574  0.0881
 3750SOL    HW111694   4.402   1.717   5.076 -1.0995 -1.0393 -0.5665
 3750SOL    HW211695   4.304   1.677   5.184 -0.3800 -0.4645  0.3144
 3751SOL     OW11696   1.515   2.140   1.624 -0.2069 -0.1186  0.0099
 3751SOL    HW111697   1.455   2.082   1.670 -0.6790  0.6631  0.4040
 3751SOL    HW211698   1.571   2.082   1.574 -0.2087 -0.9479  0.9454
 3752SOL     OW11699   3.102   4.069   4.226  0.2390 -0.1284 -0.1612
 3752SOL    HW111700   3.036   4.081   4.158  1.0474  0.3760 -0.8754
 3752SOL    HW211701   3.067   4.115   4.302 -0.5928 -0.5478 -0.2817
 3753SOL     OW11702   3.315   5.968   4.461 -0.5568 -0.5737  0.5183
 3753SOL    HW111703   3.318   6.063   4.457  1.1261 -0.5630  1.2733
 3753SOL    HW211704   3.382   5.944   4.526 -1.0294 -2.2590  0.4410
 3754SOL     OW11705   1.647   4.735   1.614 -0.2148 -0.2847  0.3112
 3754SOL    HW111706   1.615   4.705   1.529 -0.7886 -1.3169  0.8745
 3754SOL    HW211707   1.742   4.723   1.609 -0.3339 -1.2580  0.1468
 3755SOL     OW11708   3.165   1.081   3.835 -0.1626 -0.1717  0.7630
 3755SOL    HW111709   3.108   1.117   3.767 -0.3358  0.7631  1.3855
 3755SOL    HW211710   3.188   1.156   3.889 -0.0035 -0.8950  1.7303
 3756SOL     OW11711   1.290   4.521   6.070 -0.1848  0.6190  0.3228
 3756SOL    HW111712   1.273   4.454   6.004  1.4097  0.0424  0.4758
 3756SOL    HW211713   1.353   4.580   6.029  0.3084  0.6307  1.0796
 3757SOL     OW11714   5.570   5.581   3.111  0.1140 -0.1484  0.1873
 3757SOL    HW111715   5.602   5.627   3.033  0.3386 -1.3775 -0.4626
 3757SOL    HW211716   5.565   5.649   3.178  1.6794  0.5822 -0.3862
 3758SOL     OW11717   1.121   0.457   4.404  0.7105  0.2186 -0.4384
 3758SOL    HW111718   1.178   0.487   4.332  0.9318  0.3330 -0.2173
 3758SOL    HW211719   1.161   0.375   4.433  0.9579  0.4688 -0.0626
 3759SOL     OW11720   4.937   5.315   1.776 -0.0442 -0.6607 -0.1544
 3759SOL    HW111721   4.919   5.392   1.722 -0.9869 -1.7138 -1.3944
 3759SOL    HW211722   4.897   5.243   1.729 -1.1384 -1.5982  2.0763
 3760SOL     OW11723   3.686   2.664   3.061 -0.8570  0.1598 -0.8321
 3760SOL    HW111724   3.761   2.694   3.111 -0.2990  0.8519 -2.0563
 3760SOL    HW211725   3.617   2.650   3.127  0.4200 -0.8430  0.3502
 3761SOL     OW11726   0.062   5.230   6.099  0.2926  0.2541 -0.3100
 3761SOL    HW111727   0.007   5.275   6.035 -0.1760  0.3950  0.1830
 3761SOL    HW211728   0.021   5.250   6.184 -0.5088 -1.8718 -0.1354
 3762SOL     OW11729   1.196   1.737   5.317  0.3596 -0.3926  0.1087
 3762SOL    HW111730   1.209   1.714   5.225  1.6191  0.0880  0.1485
 3762SOL    HW211731   1.280   1.720   5.358  0.1475  0.4693  0.9426
 3763SOL     OW11732   1.127   1.841   2.204 -0.2596 -0.4078 -0.6729
 3763SOL    HW111733   1.203   1.856   2.148 -1.3960  1.7397 -1.8134
 3763SOL    HW211734   1.151   1.880   2.288  0.1792 -0.4401 -0.7819
 3764SOL     OW11735   1.206   5.456   0.295 -0.0988 -0.4884 -0.4218
 3764SOL    HW111736   1.170   5.372   0.324 -1.2450  0.8348  2.3471
 3764SOL    HW211737   1.134   5.497   0.247  0.7540 -1.3595 -2.5726
 3765SOL     OW11738   0.384   0.916   3.709 -0.1138  0.2634  0.2938
 3765SOL    HW111739   0.449   0.877   3.650 -0.5456 -0.8009  0.5013
 3765SOL    HW211740   0.320   0.846   3.724 -0.0032  0.5055  2.0476
 3766SOL     OW11741   1.976   0.772   0.476  0.5022 -0.7045  0.3666
 3766SOL    HW111742   2.039   0.843   0.488 -0.2399 -0.2537  1.8013
 3766SOL    HW211743   1.899   0.814   0.436  0.1049 -0.7090  1.1121
 3767SOL     OW11744   1.020   3.839   5.445  0.2435 -0.3425  0.3272
 3767SOL    HW111745   1.085   3.773   5.423  0.2424 -0.4156  0.5395
 3767SOL    HW211746   1.065   3.898   5.506  0.7174  0.7041 -0.9899
 3768SOL     OW11747   3.785   4.374   2.118 -0.3802 -0.4106 -0.6315
 3768SOL    HW111748   3.746   4.423   2.046 -1.0596  1.8910  1.1783
 3768SOL    HW211749   3.723   4.385   2.190  0.9530 -1.4327  0.7257
 3769SOL     OW11750   0.764   4.486   0.948 -0.3164  0.5326  0.1808
 3769SOL    HW111751   0.851   4.452   0.970 -0.4240 -0.4952 -0.8570
 3769SOL    HW211752   0.769   4.506   0.854 -1.1213  0.6843  0.1611
 3770SOL     OW11753   2.283   3.611   0.045  0.3053  0.0536  1.1060
 3770SOL    HW111754   2.215   3.675   0.064  0.8865  1.6588 -1.7009
 3770SOL    HW211755   2.358   3.639   0.099 -0.2273  0.2207  1.7674
 3771SOL     OW11756   4.062   4.297   4.971  0.1406 -0.0982 -0.2439
 3771SOL    HW111757   3.998   4.338   4.912  1.2200 -0.3964 -1.6981
 3771SOL    HW211758   4.143   4.297   4.920  0.8069 -1.5665  0.7674
 3772SOL     OW11759   3.208   2.038   5.827  0.2136  0.2074  0.2385
 3772SOL    HW111760   3.267   2.049   5.752 -0.5956 -1.1693 -0.6460
 3772SOL    HW211761   3.201   1.943   5.839  0.7894  0.3803  2.4794
 3773SOL     OW11762   1.524   4.440   5.692  0.1319  0.1792 -0.4740
 3773SOL    HW111763   1.542   4.496   5.616  1.3252 -0.6429 -0.8153
 3773SOL    HW211764   1.610   4.414   5.724 -0.2571  1.8757  2.2547
 3774SOL     OW11765   0.380   4.820   1.638  0.1076  0.2177  0.2844
 3774SOL    HW111766   0.467   4.787   1.617 -0.1655  0.0438 -0.6156
 3774SOL    HW211767   0.327   4.799   1.561 -1.5805 -2.7834  2.0793
 3775SOL     OW11768   2.658   2.729   5.959 -0.3511  0.7535 -0.2694
 3775SOL    HW111769   2.744   2.757   5.929 -0.3742  1.3948  0.2478
 3775SOL    HW211770   2.657   2.751   6.052 -1.4760  1.7691 -0.4973
 3776SOL     OW11771   5.663   0.426   5.700 -0.2929  0.1192  0.3122
 3776SOL    HW111772   5.682   0.349   5.752  0.3131  1.0916  1.5672
 3776SOL    HW211773   5.663   0.394   5.609 -1.3023 -1.5781  0.8627
 3777SOL     OW11774   3.967   0.420   1.836  0.1153  0.1716 -0.4191
 3777SOL    HW111775   4.007   0.421   1.923  0.9386  2.9984 -0.7093
 3777SOL    HW211776   3.880   0.458   1.849 -0.3145 -0.6984 -0.6569
 3778SOL     OW11777   4.796   2.247   3.419 -0.7061 -0.1845 -0.4528
 3778SOL    HW111778   4.845   2.321   3.383 -0.4884 -1.3981 -2.8674
 3778SOL    HW211779   4.721   2.286   3.463  0.1692  1.5247 -0.4084
 3779SOL     OW11780   1.774   3.264   4.929 -0.6268  0.5040 -0.1723
 3779SOL    HW111781   1.735   3.185   4.965  3.0411 -1.7681 -0.6378
 3779SOL    HW211782   1.803   3.239   4.841  0.2101  2.5231 -0.5292
 3780SOL     OW11783   2.829   0.454   3.233  0.0246 -0.0852  0.3367
 3780SOL    HW111784   2.866   0.526   3.182  0.6338 -0.4330  0.2834
 3780SOL    HW211785   2.868   0.375   3.195 -0.7612 -0.4596  0.2897
 3781SOL     OW11786   3.857   2.261   3.290  0.7610 -0.1036  0.5554
 3781SOL    HW111787   3.902   2.281   3.208 -0.4487  1.9666  0.3316
 3781SOL    HW211788   3.796   2.190   3.268  0.5689  0.3209 -0.3016
 3782SOL     OW11789   5.194   5.601   5.272  0.2965 -0.4582 -0.3912
 3782SOL    HW111790   5.241   5.682   5.291  0.1754  0.0996 -2.2076
 3782SOL    HW211791   5.263   5.534   5.265  0.5405 -0.2220 -0.2472
 3783SOL     OW11792   6.014   0.075   1.212 -0.4090  0.3545 -0.0855
 3783SOL    HW111793   5.973   0.074   1.298  0.6062  1.2705  0.4303
 3783SOL    HW211794   6.003  -0.014   1.179  0.2912 -0.3622  1.5298
 3784SOL     OW11795   5.659   1.594   2.362 -0.5754  0.2247  0.4158
 3784SOL    HW111796   5.745   1.629   2.383  0.2825 -1.2091 -0.5343
 3784SOL    HW211797   5.625   1.653   2.295 -1.0335  1.6783  1.8572
 3785SOL     OW11798   4.865   1.438   5.991  0.1018  0.3517  0.1422
 3785SOL    HW111799   4.884   1.358   5.941 -0.4861  1.1376 -1.4079
 3785SOL    HW211800   4.835   1.407   6.076 -0.2891 -1.0833 -0.4987
 3786SOL     OW11801   3.522   0.091   4.405 -0.5542  0.1903  0.0704
 3786SOL    HW111802   3.436   0.133   4.415 -0.7836 -0.6365  1.9593
 3786SOL    HW211803   3.505   0.017   4.346 -0.6228  1.3248 -1.3978
 3787SOL     OW11804   5.043   0.365   0.629 -0.6155  0.2858  0.2992
 3787SOL    HW111805   5.117   0.370   0.569 -2.4646 -1.9171 -2.4296
 3787SOL    HW211806   4.971   0.407   0.582 -2.2375 -1.8685  0.6810
 3788SOL     OW11807   5.040   2.518   0.308 -0.4350 -0.2810  0.0144
 3788SOL    HW111808   4.973   2.515   0.376  0.1639  0.4490  0.6569
 3788SOL    HW211809   5.122   2.501   0.355  0.2751  2.3824 -0.0831
 3789SOL     OW11810   5.251   2.368   0.829 -0.0728 -0.7372 -0.9515
 3789SOL    HW111811   5.269   2.275   0.843  0.0595 -0.4747  1.0267
 3789SOL    HW211812   5.334   2.412   0.849 -0.6702 -0.0861  0.2715
 3790SOL     OW11813   2.456   5.561   4.891  0.0700  0.0690  0.1072
 3790SOL    HW111814   2.448   5.497   4.820  0.5234  0.5871 -0.4247
 3790SOL    HW211815   2.380   5.544   4.947 -0.3036 -0.3394 -0.5059
 3791SOL     OW11816   5.147   2.187   3.627 -0.0501 -0.2083 -0.7895
 3791SOL    HW111817   5.179   2.273   3.601  2.1393 -0.5611  0.4128
 3791SOL    HW211818   5.193   2.125   3.569  1.4536 -0.7216  0.8415
 3792SOL     OW11819   0.249   2.543   2.600  0.1608 -0.1067 -0.2277
 3792SOL    HW111820   0.223   2.635   2.595  2.5767  0.5801 -1.5318
 3792SOL    HW211821   0.249   2.513   2.509 -0.0742 -1.2739  0.1373
 3793SOL     OW11822   1.375   1.656   3.057  0.4038  0.1549  0.1705
 3793SOL    HW111823   1.327   1.731   3.022  0.2325  0.4875  1.0845
 3793SOL    HW211824   1.464   1.666   3.021  0.1331  0.2520 -0.4834
 3794SOL     OW11825   2.970   6.114   1.784  0.1025  0.6887 -0.1022
 3794SOL    HW111826   3.058   6.132   1.816 -0.1524  2.2882 -0.2234
 3794SOL    HW211827   2.959   6.020   1.796  1.6663  0.5300  0.2956
 3795SOL     OW11828   2.200   2.323   2.649  0.2437  0.0793 -0.0297
 3795SOL    HW111829   2.273   2.315   2.710  0.3422 -0.4981 -0.2103
 3795SOL    HW211830   2.153   2.401   2.676  1.1818  0.7052 -0.1746
 3796SOL     OW11831   0.048   3.574   1.780 -0.0192  0.2739 -0.1498
 3796SOL    HW111832   0.053   3.526   1.698  0.6205  0.1319 -0.0300
 3796SOL    HW211833   0.003   3.515   1.840  0.3021  0.0301 -0.1486
 3797SOL     OW11834   4.127   3.196   5.331  0.2224 -0.6460 -0.6155
 3797SOL    HW111835   4.208   3.172   5.377  0.7130  0.5560 -0.8007
 3797SOL    HW211836   4.095   3.273   5.379 -1.1887 -1.4991 -0.1397
 3798SOL     OW11837   0.689   4.406   3.083  0.0651 -0.0708 -0.4353
 3798SOL    HW111838   0.747   4.467   3.038 -1.0560  3.1570  2.0736
 3798SOL    HW211839   0.715   4.413   3.175 -2.8445 -0.0703  0.4837
 3799SOL     OW11840   5.563   0.177   0.535  0.0849 -0.3685  0.6991
 3799SOL    HW111841   5.484   0.231   0.530 -0.6535 -1.5206 -0.5045
 3799SOL    HW211842   5.531   0.090   0.559  1.0316 -0.7809  0.4837
 3800SOL     OW11843   4.173   0.575   0.206  0.2386  0.0832 -0.1066
 3800SOL    HW111844   4.122   0.496   0.221  1.4744 -0.6144  0.5817
 3800SOL    HW211845   4.110   0.647   0.216 -1.1807 -0.8187 -1.9750
 3801SOL     OW11846   5.872   1.101   2.126  1.0049  0.7998  0.2863
 3801SOL    HW111847   5.816   1.097   2.049  3.2505  0.4955 -1.4387
 3801SOL    HW211848   5.933   1.027   2.115  0.2034 -0.4653  3.3855
 3802SOL     OW11849   3.534   0.778   1.594 -0.0670  0.1472 -0.1731
 3802SOL    HW111850   3.559   0.689   1.569  0.0825  0.0534  0.3022
 3802SOL    HW211851   3.600   0.834   1.554  0.6137 -0.0605  0.6424
 3803SOL     OW11852   1.681   5.877   5.307  0.4101 -0.6346 -0.0754
 3803SOL    HW111853   1.712   5.965   5.287  0.0466 -0.6578 -0.7727
 3803SOL    HW211854   1.642   5.846   5.225  2.9256 -2.4799 -0.6795
 3804SOL     OW11855   4.795   4.395   2.116  0.5081 -0.1319 -0.2847
 3804SOL    HW111856   4.832   4.422   2.200  0.8643  0.3974 -0.6051
 3804SOL    HW211857   4.870   4.362   2.067  0.2755 -0.5738 -0.3414
 3805SOL     OW11858   1.107   1.497   3.955 -0.6808  0.6847  0.0363
 3805SOL    HW111859   1.168   1.424   3.941  0.3452  1.1295  1.8722
 3805SOL    HW211860   1.132   1.561   3.889  0.5139  0.6311  0.4005
 3806SOL     OW11861   6.123   3.299   4.734  0.2026  0.3232 -0.0022
 3806SOL    HW111862   6.154   3.375   4.685  1.3105  0.4587  0.8713
 3806SOL    HW211863   6.198   3.272   4.786 -0.3738 -0.9815  0.1873
 3807SOL     OW11864   5.718   1.199   2.812 -0.2896  0.2543 -0.3358
 3807SOL    HW111865   5.670   1.212   2.894  0.9204  0.6447  0.3258
 3807SOL    HW211866   5.655   1.223   2.744 -0.9463  1.0504  0.5248
 3808SOL     OW11867   0.354   1.856   1.124 -0.6247  0.1520  0.1085
 3808SOL    HW111868   0.357   1.889   1.034  0.0796  2.2429  0.8419
 3808SOL    HW211869   0.369   1.762   1.115 -2.3230  0.0090 -2.0841
 3809SOL     OW11870   3.694   1.443   2.673 -0.6764 -0.3027  0.0245
 3809SOL    HW111871   3.781   1.464   2.709  0.3189 -1.3891 -1.6226
 3809SOL    HW211872   3.702   1.352   2.643 -1.5655  0.3444 -2.4071
 3810SOL     OW11873   0.024   0.331   1.850  0.2259  0.8659  0.0718
 3810SOL    HW111874  -0.065   0.361   1.868  0.0215  1.2747 -1.4875
 3810SOL    HW211875   0.067   0.407   1.809  0.3079 -0.2853 -2.1118
 3811SOL     OW11876   4.846   3.132   4.719  0.4618 -0.4727 -0.2866
 3811SOL    HW111877   4.905   3.169   4.654  1.3513  0.2979  0.9010
 3811SOL    HW211878   4.904   3.100   4.788 -0.4443 -1.2869  0.1230
 3812SOL     OW11879   0.190   0.947   0.314  0.0509 -0.3521  0.2368
 3812SOL    HW111880   0.108   0.908   0.286  0.9469 -0.9255 -1.7315
 3812SOL    HW211881   0.239   0.875   0.354 -0.0301 -0.2166  0.5876
 3813SOL     OW11882   0.446   3.485   5.394 -0.3601 -0.0953  0.1144
 3813SOL    HW111883   0.420   3.402   5.433 -1.3415  0.5191  0.8426
 3813SOL    HW211884   0.437   3.549   5.465 -0.3204  0.7492 -0.6101
 3814SOL     OW11885   5.381   4.096   5.624 -0.1329 -0.0927  0.0901
 3814SOL    HW111886   5.465   4.052   5.616 -0.1012 -0.2088  0.9610
 3814SOL    HW211887   5.317   4.032   5.593 -0.1141 -0.8778  1.5863
 3815SOL     OW11888   3.478   2.603   5.437 -0.3836 -0.2945 -0.5950
 3815SOL    HW111889   3.536   2.587   5.511  0.9181  0.7907 -1.3299
 3815SOL    HW211890   3.480   2.521   5.387  1.7466  0.1830 -1.3900
 3816SOL     OW11891   1.213   4.892   5.251 -0.2002 -0.2349  0.1873
 3816SOL    HW111892   1.284   4.839   5.287  1.0036  0.7495 -0.6919
 3816SOL    HW211893   1.158   4.913   5.327  0.9298 -0.2584  1.0358
 3817SOL     OW11894   5.992   3.364   1.480  0.4465 -0.2805  0.1283
 3817SOL    HW111895   5.964   3.436   1.538  0.2814 -1.7479  1.9718
 3817SOL    HW211896   6.082   3.386   1.457  0.6493  0.1733  1.2651
 3818SOL     OW11897   4.220   3.566   1.751 -0.2336 -0.2309 -0.0000
 3818SOL    HW111898   4.130   3.593   1.767  0.3890  2.0141  0.0417
 3818SOL    HW211899   4.213   3.474   1.727 -2.5845 -0.0027 -0.4831
 3819SOL     OW11900   0.063   5.665   1.281 -0.1922  0.0735 -0.5450
 3819SOL    HW111901   0.093   5.588   1.233 -2.2378 -1.2215  0.1210
 3819SOL    HW211902  -0.023   5.684   1.244 -0.7941  0.4892  0.9946
 3820SOL     OW11903   2.024   4.899   0.159  0.3159  0.5062 -0.3450
 3820SOL    HW111904   1.991   4.932   0.243 -0.2525 -0.7814 -0.0311
 3820SOL    HW211905   2.108   4.859   0.181 -0.4331 -1.0122 -0.1020
 3821SOL     OW11906   0.371   3.997   6.085  0.1629 -0.6473 -0.6505
 3821SOL    HW111907   0.425   4.076   6.095 -1.1797  0.2288  0.0351
 3821SOL    HW211908   0.378   3.975   5.992 -1.8308  2.1267 -1.5766
 3822SOL     OW11909   4.839   4.672   5.006 -0.6099  0.1658 -0.4319
 3822SOL    HW111910   4.881   4.739   4.953 -2.2764 -1.7207 -4.6117
 3822SOL    HW211911   4.886   4.591   4.984 -1.3615 -0.7520  1.1133
 3823SOL     OW11912   2.955   1.588   3.499 -0.0952 -0.6214 -0.6674
 3823SOL    HW111913   2.979   1.525   3.566  0.6994  0.1672 -0.1902
 3823SOL    HW211914   2.996   1.555   3.419  1.2482 -0.1700 -0.1976
 3824SOL     OW11915   5.657   3.654   5.966 -0.2938 -0.1033 -0.4262
 3824SOL    HW111916   5.640   3.746   5.947 -0.2035 -0.2947 -1.4733
 3824SOL    HW211917   5.588   3.629   6.028  0.1771  0.8768  0.5310
 3825SOL     OW11918   5.937   3.785   3.090  0.4634  0.1758  0.0111
 3825SOL    HW111919   5.948   3.875   3.124 -0.5515  0.1509  0.4257
 3825SOL    HW211920   5.992   3.783   3.012 -0.1277  1.4199 -0.4686
 3826SOL     OW11921   2.959   3.887   3.363  0.1076 -0.6685 -0.1178
 3826SOL    HW111922   2.995   3.947   3.428  1.8002 -0.4295 -1.2133
 3826SOL    HW211923   3.032   3.871   3.303 -0.8348 -2.4203 -0.8542
 3827SOL     OW11924   5.330   2.309   3.953  0.1257 -0.1964  0.1011
 3827SOL    HW111925   5.396   2.356   4.003 -0.1556  0.2762  0.0272
 3827SOL    HW211926   5.354   2.217   3.963  2.2152  0.0405 -1.8781
 3828SOL     OW11927   0.988   4.896   5.064  0.4122 -0.0010  0.7397
 3828SOL    HW111928   1.057   4.860   5.120  0.8882 -0.6209 -0.2189
 3828SOL    HW211929   0.978   4.831   4.995 -2.1611 -0.6679  1.6301
 3829SOL     OW11930   5.988   1.438   0.433  0.1891  0.3876  0.3826
 3829SOL    HW111931   6.070   1.445   0.383  0.3951  0.4602  0.7235
 3829SOL    HW211932   5.973   1.527   0.465  1.1189 -0.0190  2.0929
 3830SOL     OW11933   4.053   0.868   5.699 -0.3020 -0.0541 -0.0960
 3830SOL    HW111934   4.134   0.833   5.736 -0.0929  0.0555 -0.4427
 3830SOL    HW211935   4.007   0.791   5.665 -0.2742 -0.0990 -0.0316
 3831SOL     OW11936   3.451   2.322   4.363  0.2864 -0.2236  0.2811
 3831SOL    HW111937   3.407   2.259   4.306 -0.9140  1.0928 -0.3257
 3831SOL    HW211938   3.487   2.269   4.434 -0.3246 -1.6298 -0.4102
 3832SOL     OW11939   3.295   1.391   0.086 -0.3981 -0.1287  0.5511
 3832SOL    HW111940   3.275   1.484   0.070  1.7264  0.3265  0.1734
 3832SOL    HW211941   3.232   1.343   0.032  0.2682  1.1872 -1.5306
 3833SOL     OW11942   3.672   3.707   2.503  0.0904 -0.4740  0.2556
 3833SOL    HW111943   3.765   3.715   2.525 -0.0970  0.8642  0.6712
 3833SOL    HW211944   3.659   3.772   2.433 -1.0932  1.5404  2.2000
 3834SOL     OW11945   2.132   0.270   5.318 -0.3800  0.1015  0.3850
 3834SOL    HW111946   2.064   0.295   5.256 -1.2378  1.6566  1.8603
 3834SOL    HW211947   2.209   0.252   5.264 -1.2619  0.8088 -1.1519
 3835SOL     OW11948   3.357   4.897   6.043 -0.5491 -0.3772  0.4712
 3835SOL    HW111949   3.423   4.842   6.001  0.4483  0.5280  0.7898
 3835SOL    HW211950   3.389   4.986   6.030 -1.8918  0.1118  0.3558
 3836SOL     OW11951   1.648   2.564   3.159 -0.0698 -0.8094  0.1346
 3836SOL    HW111952   1.650   2.653   3.194  0.1369 -0.0209 -1.7499
 3836SOL    HW211953   1.604   2.513   3.227  1.2134  0.3802  1.9543
 3837SOL     OW11954   1.378   1.115   4.683 -0.2110 -0.0572 -0.2520
 3837SOL    HW111955   1.323   1.060   4.738  0.8629 -2.4700 -1.4195
 3837SOL    HW211956   1.319   1.180   4.645 -1.3421  0.3068  1.9866
 3838SOL     OW11957   4.261   5.599   1.574  0.0605  0.1340 -0.3780
 3838SOL    HW111958   4.240   5.691   1.559 -1.7378 -0.4956 -2.1148
 3838SOL    HW211959   4.357   5.597   1.579  0.1744  1.9983 -1.0980
 3839SOL     OW11960   0.664   2.982   0.329 -0.4274  0.1143 -0.2215
 3839SOL    HW111961   0.657   3.010   0.238 -1.3003  2.0506  0.3857
 3839SOL    HW211962   0.671   2.887   0.324  0.9105  0.2488 -2.3561
 3840SOL     OW11963   1.349   0.258   1.537  0.1380 -0.1778 -0.0736
 3840SOL    HW111964   1.347   0.319   1.611 -1.0947 -1.1072  0.7099
 3840SOL    HW211965   1.359   0.313   1.460 -0.3229  0.9595  0.6563
 3841SOL     OW11966   3.270   3.324   6.118  0.2891 -0.4674  0.2603
 3841SOL    HW111967   3.188   3.278   6.137  0.3479 -0.2368  1.0889
 3841SOL    HW211968   3.314   3.330   6.202  0.8860 -0.0507 -0.0792
 3842SOL     OW11969   0.475   4.666   0.380 -0.3631  0.1070 -0.4787
 3842SOL    HW111970   0.537   4.732   0.350  0.0915 -0.0189  0.1545
 3842SOL    HW211971   0.390   4.710   0.379  0.2533  1.6338  2.5407
 3843SOL     OW11972   3.372   4.949   2.820  0.0796  0.0925  0.2256
 3843SOL    HW111973   3.285   4.912   2.832  0.1370  0.2062  1.0794
 3843SOL    HW211974   3.367   4.998   2.738 -0.0469 -1.6326 -0.8414
 3844SOL     OW11975   4.394   0.850   3.835 -0.0657  0.1675  0.4801
 3844SOL    HW111976   4.334   0.801   3.890 -0.0294  0.0538  0.4185
 3844SOL    HW211977   4.351   0.855   3.750  0.8208 -1.5381 -0.1241
 3845SOL     OW11978   4.536   4.820   3.841  0.1770  0.1418 -0.3462
 3845SOL    HW111979   4.448   4.858   3.841 -0.1657 -0.6078 -0.9620
 3845SOL    HW211980   4.536   4.759   3.914  0.3566  0.4987 -0.0437
 3846SOL     OW11981   5.090   5.071   2.602 -0.1459  0.3106 -0.5236
 3846SOL    HW111982   5.051   5.156   2.579 -1.1517  0.0448  0.1046
 3846SOL    HW211983   5.156   5.056   2.535 -0.4309  1.2716 -1.0440
 3847SOL     OW11984   4.925   5.274   4.522 -0.4179 -0.3834  0.2645
 3847SOL    HW111985   4.894   5.212   4.456  0.8831 -0.6684 -0.1203
 3847SOL    HW211986   5.006   5.235   4.555 -1.0527 -0.2592  2.0818
 3848SOL     OW11987   1.349   3.844   3.638  0.3733  0.1259  0.5553
 3848SOL    HW111988   1.395   3.927   3.624 -1.6847  1.0514 -1.2382
 3848SOL    HW211989   1.373   3.790   3.562 -1.9608  0.9131 -0.8410
 3849SOL     OW11990   4.634   0.721   1.302  0.1728  0.0304  0.2271
 3849SOL    HW111991   4.607   0.707   1.392 -0.7912  0.0798 -0.0476
 3849SOL    HW211992   4.708   0.662   1.290  0.1370 -0.1706  0.9688
 3850SOL     OW11993   2.900   1.971   2.017  0.0510 -0.1304  0.1054
 3850SOL    HW111994   2.981   2.020   2.008  0.0554 -0.0753  0.4337
 3850SOL    HW211995   2.907   1.900   1.953 -0.3970  0.8857 -1.1241
 3851SOL     OW11996   3.577   3.370   4.376  0.4371  0.0819  0.2016
 3851SOL    HW111997   3.512   3.392   4.310  1.4973 -1.3485 -1.3918
 3851SOL    HW211998   3.540   3.296   4.423  1.0038 -0.9551 -0.9326
 3852SOL     OW11999   3.816   5.379   1.612  0.4125 -0.2743  0.1546
 3852SOL    HW112000   3.863   5.462   1.601  0.5103 -0.3639 -0.1259
 3852SOL    HW212001   3.723   5.405   1.617  0.2580 -0.2702 -1.8387
 3853SOL     OW12002   3.108   4.182   1.496 -0.9721 -0.0833  0.5034
 3853SOL    HW112003   3.067   4.206   1.413 -1.1354  0.5292  0.7633
 3853SOL    HW212004   3.043   4.127   1.540 -0.8557 -0.4718  0.1984
 3854SOL     OW12005   2.644   3.738   0.411  0.6097 -0.0979  0.0318
 3854SOL    HW112006   2.692   3.707   0.489  0.0805 -0.3887  0.2499
 3854SOL    HW212007   2.710   3.781   0.358  1.1289 -0.5462  0.3002
 3855SOL     OW12008   3.430   1.506   2.335 -0.2549  0.0309 -0.2086
 3855SOL    HW112009   3.386   1.467   2.260  2.8499 -1.8849 -1.2355
 3855SOL    HW212010   3.452   1.431   2.391  1.5162  0.8693  0.2865
 3856SOL     OW12011   5.173   2.964   0.439  0.5412 -0.2313  0.1803
 3856SOL    HW112012   5.088   2.921   0.426  0.0047  1.5095 -2.9108
 3856SOL    HW212013   5.237   2.894   0.427 -0.3920 -0.9841 -0.6228
 3857SOL     OW12014   5.159   5.497   4.658 -0.3154 -0.2614  0.1707
 3857SOL    HW112015   5.184   5.405   4.663 -1.0692 -0.4069  2.7662
 3857SOL    HW212016   5.133   5.520   4.747  0.1816  2.5842 -0.3105
 3858SOL     OW12017   1.545   4.116   1.284  0.0627 -0.4898 -0.2260
 3858SOL    HW112018   1.589   4.095   1.366 -0.7271  0.3375  0.4218
 3858SOL    HW212019   1.601   4.183   1.243 -0.9260  1.1285  0.9555
 3859SOL     OW12020   5.523   1.134   1.630 -0.1287  0.0065  0.4491
 3859SOL    HW112021   5.452   1.116   1.569 -1.0961  0.6626  1.3555
 3859SOL    HW212022   5.497   1.214   1.675  1.7888  1.0044 -0.0879
 3860SOL     OW12023   5.963   1.104   0.663  0.3342 -0.3906  0.2330
 3860SOL    HW112024   5.906   1.079   0.735  0.9725 -0.1573  0.8397
 3860SOL    HW212025   6.052   1.092   0.697  0.6525  0.5195 -0.2159
 3861SOL     OW12026   3.512   3.956   2.716 -0.2836 -0.8038 -0.4423
 3861SOL    HW112027   3.581   3.975   2.652 -1.4354 -0.6542 -1.6882
 3861SOL    HW212028   3.485   3.867   2.696 -1.3048 -0.4251 -0.8188
 3862SOL     OW12029   3.844   1.432   4.595 -0.1352 -0.5022  0.3431
 3862SOL    HW112030   3.865   1.518   4.558 -1.9914 -1.2010 -2.6335
 3862SOL    HW212031   3.771   1.449   4.654  1.1157  0.2382  1.7739
 3863SOL     OW12032   5.350   1.505   5.774  0.0909  0.4981  0.0436
 3863SOL    HW112033   5.285   1.573   5.790  0.7676  1.0474  0.4944
 3863SOL    HW212034   5.429   1.553   5.751  1.0493 -0.0656  1.9981
 3864SOL     OW12035   4.439   3.287   2.046  0.0585 -0.1276 -0.4006
 3864SOL    HW112036   4.446   3.374   2.086  2.0449 -0.5923  0.3760
 3864SOL    HW212037   4.455   3.303   1.953 -1.2616  0.5267 -0.5406
 3865SOL     OW12038   0.686   0.588   4.962  0.3388  0.1845 -0.4517
 3865SOL    HW112039   0.595   0.565   4.943  0.4968 -1.0509  0.2481
 3865SOL    HW212040   0.691   0.682   4.942 -0.6792 -0.0598 -1.9922
 3866SOL     OW12041   5.394   0.254   3.193  0.4705  0.2447  0.6871
 3866SOL    HW112042   5.304   0.285   3.206 -0.1743 -1.3831  0.2973
 3866SOL    HW212043   5.437   0.326   3.148 -1.2174  0.2882 -0.9961
 3867SOL     OW12044   3.048   5.164   4.492 -0.1965  0.2035  0.2982
 3867SOL    HW112045   2.992   5.187   4.566 -0.3820  3.9076 -0.7624
 3867SOL    HW212046   3.123   5.222   4.500  2.0369 -2.4383 -0.0796
 3868SOL     OW12047   3.245   6.081   4.789 -0.3064  0.6708  0.4073
 3868SOL    HW112048   3.291   6.058   4.870 -0.9010  0.9169  0.8142
 3868SOL    HW212049   3.316   6.094   4.725  0.1744  0.6935  0.9350
 3869SOL     OW12050   3.960   3.080   2.075  0.2751 -0.0889  0.0947
 3869SOL    HW112051   3.977   3.015   2.007 -0.9842  0.7781 -1.1100
 3869SOL    HW212052   3.910   3.032   2.141 -2.5929  0.0126 -1.7846
 3870SOL     OW12053   5.855   5.559   5.029 -0.7367  0.1584  0.8769
 3870SOL    HW112054   5.931   5.610   5.001 -1.0171  0.8367  1.3344
 3870SOL    HW212055   5.883   5.519   5.112 -1.7098  2.4780  2.4218
 3871SOL     OW12056   1.035   4.137   4.463  0.5033 -0.0107 -0.4156
 3871SOL    HW112057   1.066   4.224   4.487 -1.1945  0.4171  0.3800
 3871SOL    HW212058   1.114   4.091   4.433  2.1251  0.6275  2.4811
 3872SOL     OW12059   6.050   2.398   0.291  0.2183 -0.2734 -0.4908
 3872SOL    HW112060   6.079   2.364   0.207 -1.3241  0.2007 -1.2485
 3872SOL    HW212061   6.017   2.485   0.272  1.7304  0.6745  0.9889
 3873SOL     OW12062   1.380   4.135   5.011 -0.0716 -0.5678  0.4856
 3873SOL    HW112063   1.341   4.215   5.045  0.8159 -0.3330  0.9758
 3873SOL    HW212064   1.360   4.068   5.077 -0.2484 -0.5996  0.3983
 3874SOL     OW12065   5.126   2.386   2.653 -0.8455  0.1840  0.0881
 3874SOL    HW112066   5.212   2.428   2.659 -0.1875 -0.8186 -1.6077
 3874SOL    HW212067   5.073   2.448   2.603 -1.2115  0.8938  1.3041
 3875SOL     OW12068   2.991   1.776   4.504 -0.4176  0.4832  0.2442
 3875SOL    HW112069   3.032   1.830   4.436  0.9724 -0.4891  0.2655
 3875SOL    HW212070   2.944   1.707   4.455  0.0545  0.1536  0.2495
 3876SOL     OW12071   1.613   1.879   1.602 -0.0816  0.0094  0.0807
 3876SOL    HW112072   1.580   1.790   1.594  3.0356 -1.5439  2.1319
 3876SOL    HW212073   1.685   1.884   1.540 -0.6390  1.3856 -0.4991
 3877SOL     OW12074   5.740   3.270   0.594 -0.1206 -0.0566  0.0977
 3877SOL    HW112075   5.813   3.327   0.570 -0.7853  0.8248  0.1017
 3877SOL    HW212076   5.697   3.250   0.511 -0.1538 -0.1918  0.1469
 3878SOL     OW12077   3.720   2.950   4.750  0.6530  0.4084  0.0957
 3878SOL    HW112078   3.770   3.022   4.713  0.4725  0.3904 -0.1845
 3878SOL    HW212079   3.781   2.906   4.809  0.2281  1.9386  1.7866
 3879SOL     OW12080   3.603   0.579   2.840 -0.0953 -0.0613 -0.0142
 3879SOL    HW112081   3.537   0.542   2.898  0.9103 -2.1413 -0.1204
 3879SOL    HW212082   3.674   0.607   2.898 -1.3986  3.1935  0.2116
 3880SOL     OW12083   4.038   4.222   0.057 -0.0352 -0.6369  0.3105
 3880SOL    HW112084   4.078   4.264  -0.019  2.8966 -2.8823  0.4391
 3880SOL    HW212085   4.110   4.211   0.119 -1.7743 -1.2676  2.3377
 3881SOL     OW12086   2.521   3.397   5.423  0.1420 -0.1037 -0.0833
 3881SOL    HW112087   2.587   3.384   5.491  0.1616  2.4932  0.5363
 3881SOL    HW212088   2.553   3.472   5.373 -2.5187  1.6521  0.6216
 3882SOL     OW12089   4.807   0.491   3.450  0.1382 -0.3782  0.2973
 3882SOL    HW112090   4.721   0.502   3.490  0.4662  0.2935  0.8363
 3882SOL    HW212091   4.795   0.420   3.387 -0.9697  0.1576 -0.1199
 3883SOL     OW12092   5.771   3.822   0.959  0.0902  0.3828  0.5069
 3883SOL    HW112093   5.701   3.786   1.013  1.1325  0.0050  1.6505
 3883SOL    HW212094   5.795   3.904   1.001  1.8603 -0.5813  1.5038
 3884SOL     OW12095   3.896   5.099   3.919 -0.5778  0.0053 -0.1407
 3884SOL    HW112096   3.831   5.048   3.968  0.5277  0.2237  1.6303
 3884SOL    HW212097   3.952   5.033   3.878 -0.1213 -0.2171  0.8143
 3885SOL     OW12098   4.314   5.966   5.478  0.1818 -0.3736 -0.4117
 3885SOL    HW112099   4.236   5.961   5.423  0.0083  0.6604 -0.2790
 3885SOL    HW212100   4.311   6.054   5.516  0.1142 -1.1585  1.5131
 3886SOL     OW12101   1.100   2.803   4.547  0.0716 -0.3115  0.8525
 3886SOL    HW112102   1.171   2.754   4.589  1.1810 -0.6115 -1.2233
 3886SOL    HW212103   1.137   2.889   4.530 -0.2335 -0.2869  0.2660
 3887SOL     OW12104   0.025   4.266   1.161  0.3883  0.2639 -0.3433
 3887SOL    HW112105   0.016   4.190   1.104 -0.2209  0.7321 -0.8842
 3887SOL    HW212106   0.003   4.233   1.249  0.7940 -0.3299 -0.4597
 3888SOL     OW12107   5.096   0.854   1.342  0.2384  0.5010 -0.1611
 3888SOL    HW112108   5.015   0.844   1.293 -0.1045  0.5929  0.3733
 3888SOL    HW212109   5.165   0.837   1.278 -0.2152 -0.4162 -0.4315
 3889SOL     OW12110   4.729   6.102   0.612 -0.0880  0.5862 -0.0897
 3889SOL    HW112111   4.766   6.030   0.663 -1.3524  0.4944  0.7491
 3889SOL    HW212112   4.805   6.150   0.578  0.7713 -0.9962 -0.4805
 3890SOL     OW12113   3.849   4.283   1.466 -0.1125 -0.3302  0.5612
 3890SOL    HW112114   3.828   4.352   1.529 -0.4947  0.7843 -0.7414
 3890SOL    HW212115   3.939   4.299   1.441 -0.7499  0.8794 -1.1226
 3891SOL     OW12116   3.470   4.212   2.819  0.0564  0.1041 -0.5976
 3891SOL    HW112117   3.421   4.249   2.746  0.1691 -0.5567 -1.0174
 3891SOL    HW212118   3.480   4.119   2.797 -4.2070 -1.4423  2.4640
 3892SOL     OW12119   3.800   1.942   6.010 -0.0301  0.0515 -0.3530
 3892SOL    HW112120   3.881   1.958   6.058  0.1519 -1.0803 -0.2673
 3892SOL    HW212121   3.733   1.988   6.060 -0.0558 -2.0133  1.6837
 3893SOL     OW12122   0.712   6.032   0.882 -0.2063 -0.1134  0.3203
 3893SOL    HW112123   0.656   6.024   0.805 -1.2248  1.6034  0.8233
 3893SOL    HW212124   0.668   5.980   0.949 -1.1946  1.1089  0.6694
 3894SOL     OW12125   5.426   3.882   4.483 -1.1673 -0.2286 -0.2473
 3894SOL    HW112126   5.347   3.936   4.474 -1.6877 -0.6075  1.6949
 3894SOL    HW212127   5.405   3.820   4.552  1.4838  0.8972  1.7315
 3895SOL     OW12128   0.386   2.775   5.186 -0.1955 -0.1289 -0.1113
 3895SOL    HW112129   0.349   2.830   5.256 -1.8183 -1.7971  0.4410
 3895SOL    HW212130   0.420   2.837   5.122 -1.0329  1.4993  0.9416
 3896SOL     OW12131   1.621   2.282   1.079 -0.0410  0.1976  0.7555
 3896SOL    HW112132   1.536   2.311   1.048 -0.3725 -0.6423  0.8560
 3896SOL    HW212133   1.634   2.330   1.161 -0.6250 -0.0200  0.9768
 3897SOL     OW12134   4.217   4.231   0.652 -0.7107 -0.1795  0.4181
 3897SOL    HW112135   4.244   4.323   0.645 -0.2041 -0.2829  0.9010
 3897SOL    HW212136   4.224   4.197   0.563 -1.1202  0.3060  0.1932
 3898SOL     OW12137   4.679   1.800   1.405  0.1406  0.0481  0.2479
 3898SOL    HW112138   4.674   1.888   1.442 -0.3111  0.3094 -0.3911
 3898SOL    HW212139   4.772   1.783   1.393  0.2139  0.6584 -0.1017
 3899SOL     OW12140   1.447   5.144   4.500 -0.2060  0.2555  0.0586
 3899SOL    HW112141   1.356   5.147   4.530 -0.2605 -0.5801 -0.0054
 3899SOL    HW212142   1.485   5.228   4.529 -1.3846  1.2614 -1.2137
 3900SOL     OW12143   3.787   0.861   0.725  0.4567 -0.3314 -0.0933
 3900SOL    HW112144   3.875   0.882   0.693 -0.1719 -0.3051 -1.9004
 3900SOL    HW212145   3.731   0.928   0.688 -0.1470  0.7246  2.5035
 3901SOL     OW12146   5.703   5.722   5.188  0.4889  0.4917  0.0121
 3901SOL    HW112147   5.689   5.665   5.264 -0.7544 -0.9783 -1.2547
 3901SOL    HW212148   5.769   5.675   5.136  0.2970  0.7817 -0.4944
 3902SOL     OW12149   5.333   1.735   2.141 -0.6228 -0.3227  0.4163
 3902SOL    HW112150   5.362   1.646   2.121  1.8324  0.1954  1.3906
 3902SOL    HW212151   5.393   1.791   2.092 -1.4030  0.8195  0.7399
 3903SOL     OW12152   0.409   0.598   2.841  0.1327 -0.2843 -0.4693
 3903SOL    HW112153   0.361   0.518   2.863 -0.4327  1.0554  4.2649
 3903SOL    HW212154   0.499   0.580   2.867  0.1958  0.2501 -0.2998
 3904SOL     OW12155   3.421   1.478   3.877  0.7171 -0.0423 -0.6050
 3904SOL    HW112156   3.361   1.509   3.944  0.2279 -0.3974 -0.8721
 3904SOL    HW212157   3.369   1.477   3.797  1.1801 -0.0135 -0.9096
 3905SOL     OW12158   5.838   3.065   1.982  0.1659  0.0856  0.6863
 3905SOL    HW112159   5.888   3.044   2.061 -0.1110 -0.4009  0.7350
 3905SOL    HW212160   5.823   3.159   1.988  2.4802  0.5588 -0.1428
 3906SOL     OW12161   3.030   1.420   3.719 -0.5157 -0.3803  0.4393
 3906SOL    HW112162   3.123   1.396   3.714  0.8235  3.2521  2.9213
 3906SOL    HW212163   2.997   1.369   3.793 -0.7658 -2.1389 -0.8228
 3907SOL     OW12164   2.942   5.779   2.559  0.6628 -1.0100 -0.0198
 3907SOL    HW112165   2.970   5.748   2.645 -0.5705 -0.7158  0.5177
 3907SOL    HW212166   2.922   5.699   2.510  2.0250 -1.2058 -0.2843
 3908SOL     OW12167   3.199   3.663   0.260 -0.1076 -0.3315 -0.6252
 3908SOL    HW112168   3.128   3.722   0.285  0.2164 -0.3101  0.2919
 3908SOL    HW212169   3.279   3.715   0.271  0.3038 -1.2899  1.5198
 3909SOL     OW12170   1.882   4.418   4.731  0.6027 -0.1756 -0.4254
 3909SOL    HW112171   1.923   4.504   4.725  3.7562 -1.6185 -2.0694
 3909SOL    HW212172   1.871   4.390   4.640  0.2120 -1.7537  0.0767
 3910SOL     OW12173   1.120   3.852   2.046 -0.5338  0.2422 -0.8360
 3910SOL    HW112174   1.141   3.763   2.017 -1.6305 -0.2894 -0.0811
 3910SOL    HW212175   1.075   3.840   2.130  2.3977  1.6890  1.1321
 3911SOL     OW12176   5.075   5.008   1.955 -0.4175 -0.2549 -0.2347
 3911SOL    HW112177   5.071   4.920   1.919 -0.7853 -0.6026  0.6420
 3911SOL    HW212178   5.000   5.054   1.917 -0.5059 -0.4618 -0.3102
 3912SOL     OW12179   4.063   1.332   2.605 -0.2186 -0.0293  0.1785
 3912SOL    HW112180   4.009   1.253   2.600 -2.1468  1.2360 -0.0866
 3912SOL    HW212181   4.106   1.326   2.690 -2.1041 -0.3320  1.1832
 3913SOL     OW12182   2.225   4.678   0.463  0.0953 -0.3214 -0.1029
 3913SOL    HW112183   2.264   4.688   0.550 -1.9473  1.1099  0.7240
 3913SOL    HW212184   2.212   4.584   0.454  0.4771 -0.5099  1.0726
 3914SOL     OW12185   0.542   3.530   4.476  0.6396 -0.1050 -0.2621
 3914SOL    HW112186   0.468   3.502   4.529  0.7292  0.4513  0.1645
 3914SOL    HW212187   0.531   3.625   4.466  3.3543  0.7785  3.1921
 3915SOL     OW12188   2.776   2.318   2.362 -0.3109 -0.2240  0.0392
 3915SOL    HW112189   2.767   2.356   2.274 -0.9396  0.5188  0.4129
 3915SOL    HW212190   2.778   2.394   2.420 -0.3618 -0.7296  0.7013
 3916SOL     OW12191   3.631   5.229   1.319  0.2008  0.8233 -0.3814
 3916SOL    HW112192   3.555   5.205   1.373 -0.6031  0.4190 -1.6579
 3916SOL    HW212193   3.685   5.150   1.316 -0.1073  0.6241 -0.7394
 3917SOL     OW12194   4.903   4.868   0.674 -0.6298 -0.1664 -0.3115
 3917SOL    HW112195   4.813   4.899   0.662 -0.4931  0.1306 -0.5705
 3917SOL    HW212196   4.947   4.941   0.718 -0.5045 -0.3007 -0.2138
 3918SOL     OW12197   1.480   1.732   0.955 -0.1054  0.2414 -0.1019
 3918SOL    HW112198   1.412   1.727   1.022 -1.1387 -0.6564 -1.1536
 3918SOL    HW212199   1.494   1.826   0.941 -0.2524  0.4309  0.9806
 3919SOL     OW12200   1.164   2.453   3.104 -0.2299 -0.2341 -0.5241
 3919SOL    HW112201   1.118   2.394   3.164 -0.4968 -0.4365 -0.9261
 3919SOL    HW212202   1.250   2.414   3.092 -1.1544 -1.8199 -2.5981
 3920SOL     OW12203   3.443   4.084   5.862  0.1618  0.1176 -0.4615
 3920SOL    HW112204   3.402   4.142   5.798  0.8898 -0.5446 -1.5596
 3920SOL    HW212205   3.460   4.140   5.938 -1.5848  0.7021 -0.4540
 3921SOL     OW12206   1.180   5.041   4.619  0.1462  0.2697  0.3083
 3921SOL    HW112207   1.088   5.051   4.594  0.3636 -1.2379 -1.3817
 3921SOL    HW212208   1.184   4.956   4.664  0.7909 -0.0196 -0.2671
 3922SOL     OW12209   5.375   4.030   3.714 -0.3702  0.4471 -0.4231
 3922SOL    HW112210   5.297   4.015   3.662  0.8655 -1.0730 -1.9616
 3922SOL    HW212211   5.397   4.122   3.700 -0.7832  0.3804 -1.5745
 3923SOL     OW12212   1.218   0.980   3.309 -1.0162  0.5153 -0.4397
 3923SOL    HW112213   1.201   0.967   3.402 -1.6554 -0.9789 -0.7485
 3923SOL    HW212214   1.175   1.063   3.288 -0.7204  0.9492  0.6193
 3924SOL     OW12215   4.241   5.770   0.273 -0.2930 -0.1113 -0.0449
 3924SOL    HW112216   4.166   5.803   0.224  0.1944  1.9131  0.4694
 3924SOL    HW212217   4.317   5.807   0.228  0.2914 -0.5627  0.5572
 3925SOL     OW12218   5.650   1.006   1.927 -0.0651 -0.2127  0.1093
 3925SOL    HW112219   5.646   0.923   1.975 -1.6727 -0.6501 -0.6932
 3925SOL    HW212220   5.558   1.028   1.909  0.3938  0.9591 -0.9990
 3926SOL     OW12221   3.261   2.366   5.447 -0.3731 -0.3827  0.6113
 3926SOL    HW112222   3.333   2.318   5.407 -0.4112  0.8658 -1.0529
 3926SOL    HW212223   3.288   2.379   5.538  1.4309 -0.0704  0.0574
 3927SOL     OW12224   1.980   4.826   4.122 -0.2768 -0.0384 -0.1495
 3927SOL    HW112225   1.899   4.823   4.072 -0.1182  0.2392 -0.4307
 3927SOL    HW212226   2.017   4.738   4.113  0.1223  0.2153 -1.1553
 3928SOL     OW12227   5.056   0.795   4.530  0.5720  0.0111 -0.2068
 3928SOL    HW112228   5.037   0.863   4.594  1.5136 -1.0760  1.3061
 3928SOL    HW212229   4.973   0.783   4.483 -0.0400  1.1126  0.5434
 3929SOL     OW12230   4.195   1.421   1.642  0.2542  0.3068  0.3497
 3929SOL    HW112231   4.121   1.369   1.673 -0.2260  0.6739 -0.1418
 3929SOL    HW212232   4.251   1.433   1.719 -0.6012  0.6868  0.9264
 3930SOL     OW12233   1.856   2.829   4.874 -0.0949  0.7000  0.3296
 3930SOL    HW112234   1.951   2.825   4.885 -0.0235 -0.3716 -0.4699
 3930SOL    HW212235   1.843   2.843   4.781 -0.7195  0.9258  0.4493
 3931SOL     OW12236   2.510   3.896   1.281  0.3597 -0.7577 -0.1633
 3931SOL    HW112237   2.497   3.806   1.251  2.0697 -1.7692  1.8764
 3931SOL    HW212238   2.605   3.904   1.292  0.1561  0.9610  0.6166
 3932SOL     OW12239   0.877   1.577   5.953  0.2261  0.3898  0.2397
 3932SOL    HW112240   0.836   1.585   5.867  1.1205 -0.4242 -0.2745
 3932SOL    HW212241   0.836   1.499   5.992 -0.2030  0.7765  0.5778
 3933SOL     OW12242   0.065   2.455   5.507 -0.0984 -0.2131  0.5702
 3933SOL    HW112243   0.129   2.385   5.518  2.9429  2.4614  1.5937
 3933SOL    HW212244   0.071   2.480   5.415 -1.2195 -1.2416  0.1933
 3934SOL     OW12245   0.646   0.478   5.417 -0.3701  0.1252  0.2510
 3934SOL    HW112246   0.554   0.465   5.394 -0.1220  0.7883 -1.1621
 3934SOL    HW212247   0.680   0.389   5.427 -0.4122 -0.2597 -2.3698
 3935SOL     OW12248   3.409   6.128   1.108 -0.1935  0.2808  0.1082
 3935SOL    HW112249   3.377   6.212   1.074  1.1326 -0.0633 -2.2103
 3935SOL    HW212250   3.504   6.138   1.112  0.1428 -1.5506 -1.7149
 3936SOL     OW12251   1.483   2.000   5.250  0.4676  0.1078  0.0863
 3936SOL    HW112252   1.413   2.006   5.314  0.3653  0.4249 -0.0515
 3936SOL    HW212253   1.525   2.087   5.252  0.4776  0.1128 -0.2539
 3937SOL     OW12254   1.196   1.273   4.562 -0.3002  0.6036 -0.0536
 3937SOL    HW112255   1.118   1.224   4.590  0.3433 -0.9048 -0.7790
 3937SOL    HW212256   1.204   1.253   4.469  1.2448  0.3146  0.1235
 3938SOL     OW12257   0.942   1.712   4.727 -0.5990 -0.4415 -0.5456
 3938SOL    HW112258   0.889   1.762   4.665 -0.5879 -2.3720 -2.2147
 3938SOL    HW212259   0.948   1.625   4.688  2.6480 -0.6984  0.2432
 3939SOL     OW12260   0.381   1.772   5.027 -0.1292 -0.4093 -0.5815
 3939SOL    HW112261   0.324   1.849   5.019 -1.5381 -1.4873 -1.4001
 3939SOL    HW212262   0.469   1.806   5.009 -0.4801  1.2896  0.6516
 3940SOL     OW12263   2.269   1.894   0.005 -0.5598 -0.1194 -0.2907
 3940SOL    HW112264   2.327   1.961  -0.032 -0.1444 -0.7227 -0.7441
 3940SOL    HW212265   2.313   1.811  -0.013 -1.9004 -0.6462 -1.2823
 3941SOL     OW12266   3.014   3.947   2.617  0.3170  0.3130 -0.1363
 3941SOL    HW112267   3.100   3.911   2.638 -0.7527 -1.4625  1.5571
 3941SOL    HW212268   3.002   3.929   2.523  2.6967  2.7833 -1.0269
 3942SOL     OW12269   4.199   6.072   2.215 -0.7895 -0.0430 -0.0417
 3942SOL    HW112270   4.243   5.999   2.258  0.7126  0.0982 -1.2575
 3942SOL    HW212271   4.140   6.031   2.151 -0.6341 -0.2026 -0.0825
 3943SOL     OW12272   3.273   2.306   6.119  0.3344 -0.0081 -0.0508
 3943SOL    HW112273   3.361   2.303   6.080 -0.3036 -0.5783 -1.5285
 3943SOL    HW212274   3.288   2.299   6.213  1.8154 -1.3308 -0.3464
 3944SOL     OW12275   4.796   1.634   2.205  0.5311 -0.1513 -0.2173
 3944SOL    HW112276   4.788   1.674   2.118  0.4754  0.3368  0.0083
 3944SOL    HW212277   4.811   1.541   2.187  0.0289 -0.1399 -0.7426
 3945SOL     OW12278   5.504   5.594   0.153 -0.8053  0.1454 -0.2767
 3945SOL    HW112279   5.547   5.517   0.117 -1.4221 -0.2326 -0.2212
 3945SOL    HW212280   5.435   5.615   0.089  0.4356  1.6819 -1.1702
 3946SOL     OW12281   1.525   0.692   5.729 -0.7401  0.2820  0.3279
 3946SOL    HW112282   1.612   0.651   5.721 -0.7537  0.4409 -0.7226
 3946SOL    HW212283   1.466   0.619   5.747 -0.6027 -0.0292 -0.4445
 3947SOL     OW12284   4.945   1.861   1.737  0.0995 -0.1384 -0.6329
 3947SOL    HW112285   5.012   1.803   1.771 -0.7105 -1.0313 -0.5084
 3947SOL    HW212286   4.954   1.854   1.642  0.6120  0.2621 -0.6144
 3948SOL     OW12287   1.606   1.710   1.217  0.5096  0.0743 -0.6288
 3948SOL    HW112288   1.657   1.790   1.234  0.7832 -0.4578  1.4098
 3948SOL    HW212289   1.521   1.741   1.186 -1.0305  1.5868  4.1326
 3949SOL     OW12290   5.971   5.625   5.423  0.0799 -0.0267 -0.4795
 3949SOL    HW112291   6.002   5.539   5.394 -0.9320 -1.2525  1.7846
 3949SOL    HW212292   5.876   5.622   5.408  0.1747  1.2097 -1.4868
 3950SOL     OW12293   1.636   1.967   0.911  0.4032  0.3131 -0.0339
 3950SOL    HW112294   1.633   2.051   0.866  1.6876 -0.3035 -1.3782
 3950SOL    HW212295   1.730   1.947   0.918  0.3221  0.6623  3.6074
 3951SOL     OW12296   0.167   2.849   2.604  0.2699 -0.0164 -0.1668
 3951SOL    HW112297   0.261   2.864   2.592  0.4422 -0.7911  0.1098
 3951SOL    HW212298   0.144   2.902   2.679  0.8599 -1.0879  0.8054
 3952SOL     OW12299   4.315   4.788   2.917 -0.2558 -0.6204  0.6976
 3952SOL    HW112300   4.315   4.866   2.973 -0.1795 -0.3096  0.2700
 3952SOL    HW212301   4.405   4.778   2.889 -0.3482 -0.6142  0.4016
 3953SOL     OW12302   5.848   4.006   0.045  0.0793 -0.2314  0.3153
 3953SOL    HW112303   5.943   4.002   0.043  0.2589  1.5115  2.2869
 3953SOL    HW212304   5.821   3.933   0.100  0.3332 -0.2184  0.4549
 3954SOL     OW12305   5.815   0.069   4.731 -0.1534 -0.3494  0.3264
 3954SOL    HW112306   5.903   0.106   4.739 -0.1262 -0.3438  0.0183
 3954SOL    HW212307   5.823  -0.020   4.765  0.4416 -1.0393 -1.4600
 3955SOL     OW12308   2.836   2.650   1.549  0.5590 -0.2100  0.1018
 3955SOL    HW112309   2.761   2.594   1.570  0.1380  0.2174 -0.2522
 3955SOL    HW212310   2.903   2.625   1.613  0.8250 -1.9981 -0.8119
 3956SOL     OW12311   4.435   5.609   0.443  0.3298  0.0297 -0.6175
 3956SOL    HW112312   4.425   5.686   0.499  0.9537 -0.4504  0.1646
 3956SOL    HW212313   4.390   5.633   0.362 -0.1332  0.9296 -0.1094
 3957SOL     OW12314   0.699   4.184   2.658 -0.0477  0.1858  0.1988
 3957SOL    HW112315   0.615   4.230   2.659 -1.1486 -1.6369  2.6906
 3957SOL    HW212316   0.679   4.099   2.618 -0.4298 -1.6756  3.9065
 3958SOL     OW12317   1.516   1.635   2.646 -0.6667 -0.5879 -0.2644
 3958SOL    HW112318   1.489   1.553   2.687  1.2776 -1.2262 -0.1453
 3958SOL    HW212319   1.611   1.626   2.634 -0.2313  1.9929  0.5602
 3959SOL     OW12320   2.446   1.514   5.417  0.3145 -0.5515 -0.1216
 3959SOL    HW112321   2.466   1.477   5.504  0.2321  3.6965  1.9381
 3959SOL    HW212322   2.529   1.512   5.371  1.5681  1.1911  1.8654
 3960SOL     OW12323   3.883   4.926   3.443 -0.4176  0.1449 -0.2053
 3960SOL    HW112324   3.793   4.922   3.476 -0.7995  1.0397 -1.0559
 3960SOL    HW212325   3.872   4.929   3.347  0.4692  1.0384 -0.2911
 3961SOL     OW12326   6.070   2.505   0.622  0.3831 -0.3524  0.2443
 3961SOL    HW112327   6.145   2.444   0.625  1.9641  1.4651 -0.3064
 3961SOL    HW212328   6.091   2.565   0.551 -0.1329  2.0362  1.9736
 3962SOL     OW12329   1.885   1.911   0.951 -0.1799  0.5357 -0.5798
 3962SOL    HW112330   1.885   1.831   0.899  0.0641  0.9828 -1.2855
 3962SOL    HW212331   1.936   1.889   1.029 -0.0224  0.0345 -0.8209
 3963SOL     OW12332   2.994   4.855   1.305 -0.1885  0.4737 -0.4879
 3963SOL    HW112333   2.987   4.923   1.238  1.1665 -0.5582 -1.7239
 3963SOL    HW212334   2.960   4.897   1.385 -1.5168  1.8374 -1.6999
 3964SOL     OW12335   4.195   3.244   6.071  0.1289  0.0521 -0.4643
 3964SOL    HW112336   4.213   3.198   6.153 -2.5881 -1.1213 -0.4288
 3964SOL    HW212337   4.175   3.174   6.008 -3.3105  1.0242 -0.6378
 3965SOL     OW12338   0.399   4.962   6.074  0.5049  0.0227 -0.1192
 3965SOL    HW112339   0.381   4.892   6.136  0.3890  0.0701 -0.0999
 3965SOL    HW212340   0.493   4.979   6.084  0.5086 -0.0462 -0.0372
 3966SOL     OW12341   6.026   5.088   0.501  0.7525 -0.1399  0.7070
 3966SOL    HW112342   5.944   5.077   0.452 -1.4803  1.2082  3.7662
 3966SOL    HW212343   6.082   5.139   0.442 -1.4436  0.7614 -0.7498
 3967SOL     OW12344   4.504   3.470   0.112 -0.0776 -0.3417  0.2574
 3967SOL    HW112345   4.495   3.421   0.031 -0.1604 -1.7298  1.0757
 3967SOL    HW212346   4.421   3.517   0.121  0.2606  0.5229 -0.8751
 3968SOL     OW12347   5.057   1.492   4.207  0.7197  0.0990  0.0535
 3968SOL    HW112348   5.086   1.582   4.221  0.1642  0.1680  0.8775
 3968SOL    HW212349   5.123   1.439   4.252  0.2972  0.1839  0.7954
 3969SOL     OW12350   3.179   5.109   1.544 -0.3404 -0.4215  0.0362
 3969SOL    HW112351   3.123   5.034   1.563 -1.5891  0.3509 -0.4382
 3969SOL    HW212352   3.154   5.175   1.608  3.1385 -1.4306  2.7732
 3970SOL     OW12353   3.156   1.649   3.785 -0.2617  0.0215 -0.0954
 3970SOL    HW112354   3.163   1.664   3.879  1.3738  0.8343 -0.3179
 3970SOL    HW212355   3.119   1.561   3.777 -0.4471 -0.0440  1.2970
 3971SOL     OW12356   4.820   0.801   5.235 -0.0684  0.2559 -0.7172
 3971SOL    HW112357   4.777   0.885   5.218 -1.7856 -0.0263  1.7194
 3971SOL    HW212358   4.779   0.740   5.173 -0.8826  0.6464 -0.5810
 3972SOL     OW12359   2.075   2.640   4.484 -0.0201 -0.1690  0.2313
 3972SOL    HW112360   2.085   2.718   4.539  0.2206 -0.1858  0.2101
 3972SOL    HW212361   1.985   2.645   4.453  0.2604  0.5721 -0.4805
 3973SOL     OW12362   1.104   2.974   3.116 -0.5029  0.1170 -0.1499
 3973SOL    HW112363   1.170   2.904   3.122  0.6640  1.2687  1.0120
 3973SOL    HW212364   1.141   3.037   3.055 -0.1893  1.0837  1.0016
 3974SOL     OW12365   2.408   5.439   4.632 -0.1524  0.0689 -0.2055
 3974SOL    HW112366   2.438   5.469   4.546 -0.0367 -0.2708 -0.2829
 3974SOL    HW212367   2.319   5.406   4.616  0.4905 -1.5953 -0.5404
 3975SOL     OW12368   0.935   5.341   2.892 -0.5478 -0.2294  0.0709
 3975SOL    HW112369   0.865   5.316   2.830  0.2535  0.3906 -1.1252
 3975SOL    HW212370   1.015   5.314   2.848  0.0393  0.1557  0.9007
 3976SOL     OW12371   0.474   5.670   4.671 -0.1613 -0.2643  0.3714
 3976SOL    HW112372   0.531   5.662   4.747  0.6927 -1.3679 -0.3539
 3976SOL    HW212373   0.406   5.604   4.685 -0.1142 -0.3354  0.2625
 3977SOL     OW12374   0.056   2.806   2.284 -0.2031  0.5166 -0.0981
 3977SOL    HW112375  -0.002   2.792   2.209  0.2794  1.3588 -0.6504
 3977SOL    HW212376   0.116   2.731   2.281 -1.2926 -0.4111  0.5391
 3978SOL     OW12377   2.486   4.128   3.821  0.1933  0.3950  0.5629
 3978SOL    HW112378   2.540   4.068   3.769  0.5599  2.0520 -1.0898
 3978SOL    HW212379   2.546   4.162   3.888  1.0232  1.5297 -0.6938
 3979SOL     OW12380   4.192   2.537   5.841  0.1303 -0.0531  0.3174
 3979SOL    HW112381   4.256   2.468   5.859 -0.1739 -0.4018  0.0641
 3979SOL    HW212382   4.145   2.507   5.763  1.7129  1.6144 -1.4074
 3980SOL     OW12383   2.697   1.058   2.789  0.0878 -0.2412  0.0647
 3980SOL    HW112384   2.684   1.129   2.727 -1.3298 -0.2876  0.2910
 3980SOL    HW212385   2.760   1.094   2.853 -1.1334  1.0807  0.5691
 3981SOL     OW12386   2.605   3.610   4.197 -0.0320 -0.5991 -0.3710
 3981SOL    HW112387   2.545   3.630   4.269 -0.3748  1.7715 -1.1920
 3981SOL    HW212388   2.554   3.630   4.118  0.4463 -2.7841 -1.2884
 3982SOL     OW12389   0.086   1.361   0.329 -0.4908  0.7361 -0.4479
 3982SOL    HW112390   0.158   1.419   0.305  0.6106  0.0480  0.9782
 3982SOL    HW212391   0.050   1.331   0.246  3.6693 -2.2550 -1.4969
 3983SOL     OW12392   3.372   4.686   4.524 -0.6543 -0.3142 -0.3177
 3983SOL    HW112393   3.438   4.753   4.509  1.6245 -1.4288  3.4608
 3983SOL    HW212394   3.311   4.725   4.586 -1.3981 -0.5711 -0.8703
 3984SOL     OW12395   5.619   4.295   1.826  0.4154 -0.4225  0.3015
 3984SOL    HW112396   5.664   4.378   1.840 -0.1048 -0.0275 -0.3015
 3984SOL    HW212397   5.538   4.319   1.780  0.1241 -1.2316  0.3788
 3985SOL     OW12398   0.537   0.189   2.265  0.3942 -0.3269 -0.3936
 3985SOL    HW112399   0.520   0.112   2.210  0.2642 -0.0823 -0.6965
 3985SOL    HW212400   0.540   0.154   2.354  1.5829 -0.8823 -0.6369
 3986SOL     OW12401   4.405   2.012   0.264  0.6574 -0.0871  0.3849
 3986SOL    HW112402   4.467   2.057   0.208  0.4382 -1.5835 -1.1621
 3986SOL    HW212403   4.330   2.071   0.270  1.3178  0.7574  0.4051
 3987SOL     OW12404   1.000   1.332   1.890  0.2817  0.0871 -0.0805
 3987SOL    HW112405   0.935   1.402   1.891 -1.3362 -1.3435  1.0702
 3987SOL    HW212406   0.978   1.278   1.966  2.7941 -0.5122  0.2999
 3988SOL     OW12407   4.126   5.229   3.013 -0.0392 -0.1463 -0.6812
 3988SOL    HW112408   4.064   5.240   2.940  1.0999 -0.7267 -1.7811
 3988SOL    HW212409   4.205   5.275   2.984  0.0634  0.5785  0.6950
 3989SOL     OW12410   4.624   2.373   4.448  0.6750  0.2058 -0.2217
 3989SOL    HW112411   4.541   2.340   4.484  1.1012  0.5027  1.0679
 3989SOL    HW212412   4.640   2.318   4.371 -1.6832  1.3720 -1.6480
 3990SOL     OW12413   3.115   1.100   1.964  0.1832 -0.6346 -0.2376
 3990SOL    HW112414   3.036   1.142   2.000 -0.0060 -2.8679  2.2732
 3990SOL    HW212415   3.091   1.074   1.876 -2.1018 -1.6146  0.5970
 3991SOL     OW12416   5.885   3.388   2.214 -0.0159  0.4773 -0.3534
 3991SOL    HW112417   5.807   3.359   2.167  0.5384 -0.5739 -0.6607
 3991SOL    HW212418   5.865   3.478   2.241 -1.1100  0.4135 -0.8956
 3992SOL     OW12419   5.928   2.699   5.328 -0.5729  0.4632 -0.3642
 3992SOL    HW112420   5.974   2.739   5.402  0.8068 -0.1003 -0.8863
 3992SOL    HW212421   5.906   2.773   5.271  0.5528  0.6569 -0.5640
 3993SOL     OW12422   4.877   5.635   0.735 -0.1736  0.2570 -0.5247
 3993SOL    HW112423   4.799   5.580   0.737  1.2579 -1.9319  1.1908
 3993SOL    HW212424   4.934   5.592   0.670  0.9754 -0.3629  0.8484
 3994SOL     OW12425   5.101   5.884   1.949 -0.4252 -0.0216 -0.3554
 3994SOL    HW112426   5.059   5.845   2.026  0.1041 -0.8133 -0.4545
 3994SOL    HW212427   5.172   5.824   1.927  0.1579  0.7946 -0.7736
 3995SOL     OW12428   2.690   4.762   5.489 -0.2823 -0.1673  0.4920
 3995SOL    HW112429   2.710   4.694   5.554 -2.5244  0.5463  2.0500
 3995SOL    HW212430   2.643   4.829   5.539  1.5654  2.4496 -1.0292
 3996SOL     OW12431   5.983   2.409   2.773  0.2937 -0.2904  0.3442
 3996SOL    HW112432   6.059   2.351   2.764 -0.6922 -1.3325 -3.2549
 3996SOL    HW212433   5.930   2.369   2.842  1.7866 -0.9833  1.1358
 3997SOL     OW12434   5.138   2.911   5.592 -0.7675 -0.1358  0.2633
 3997SOL    HW112435   5.138   2.838   5.654 -0.6951  0.0984  0.5415
 3997SOL    HW212436   5.227   2.946   5.596 -0.1401 -1.4057 -1.5207
 3998SOL     OW12437   3.363   0.419   3.741 -0.2632  0.0870  0.2133
 3998SOL    HW112438   3.330   0.408   3.830  1.3866  1.3345  1.0459
 3998SOL    HW212439   3.441   0.364   3.737 -0.4885 -0.1887 -0.5749
 3999SOL     OW12440   4.169   5.034   0.089 -0.4576 -0.1119 -0.3254
 3999SOL    HW112441   4.175   5.128   0.105 -1.6837 -0.0579 -0.0973
 3999SOL    HW212442   4.258   5.009   0.064  0.5725  0.5763  2.3365
 4000SOL     OW12443   3.107   3.625   4.875  0.1244  0.1743  0.5873
 4000SOL    HW112444   3.198   3.636   4.845  0.3075  0.3407  1.1811
 4000SOL    HW212445   3.054   3.662   4.805  0.6116  2.0658  1.1431
 4001SOL     OW12446   3.318   5.495   0.645  0.0340  0.7787  0.1355
 4001SOL    HW112447   3.413   5.500   0.657  0.0174 -0.2831  0.9204
 4001SOL    HW212448   3.306   5.476   0.552  0.6197  0.4938  0.1151
 4002SOL     OW12449   1.282   4.205   1.826 -1.1496 -0.0802  0.9390
 4002SOL    HW112450   1.239   4.277   1.871 -1.3037 -0.5562  1.5722
 4002SOL    HW212451   1.354   4.245   1.778 -2.0642  0.6840  0.1551
 4003SOL     OW12452   6.096   2.851   4.995  0.5090  0.6907  0.6714
 4003SOL    HW112453   6.029   2.784   5.013  0.2399  0.7175 -0.1716
 4003SOL    HW212454   6.103   2.900   5.076 -0.0727  0.3108  0.9618
 4004SOL     OW12455   2.862   2.327   4.184 -0.5728 -0.2517 -0.2343
 4004SOL    HW112456   2.918   2.370   4.248  0.2621 -1.6676  0.0305
 4004SOL    HW212457   2.789   2.293   4.235 -0.1082 -1.0376 -0.0791
 4005SOL     OW12458   0.554   0.543   0.933  0.1612  0.1628 -0.4901
 4005SOL    HW112459   0.485   0.609   0.932  0.0790  0.1271  0.7541
 4005SOL    HW212460   0.527   0.482   1.002  2.0081  0.7818  0.8494
 4006SOL     OW12461   4.379   2.693   4.565 -0.2065  0.0633 -0.0975
 4006SOL    HW112462   4.419   2.654   4.643 -0.0391  1.4888  0.5683
 4006SOL    HW212463   4.335   2.620   4.522  1.8729 -1.2829 -0.0950
 4007SOL     OW12464   2.903   2.610   3.254  0.4128  0.6975 -0.0474
 4007SOL    HW112465   2.841   2.565   3.312 -0.2223  0.6878 -0.7192
 4007SOL    HW212466   2.850   2.674   3.207  0.8480  0.4609 -0.8723
 4008SOL     OW12467   4.698   3.091   1.682 -0.7481 -0.4107 -0.1253
 4008SOL    HW112468   4.757   3.163   1.661 -1.5588  0.1817 -0.4318
 4008SOL    HW212469   4.726   3.019   1.625 -1.0449  0.2307 -1.0970
 4009SOL     OW12470   0.898   0.514   1.204 -0.3565  0.3962  0.4193
 4009SOL    HW112471   0.965   0.526   1.271 -0.0769 -0.0151  0.2190
 4009SOL    HW212472   0.944   0.525   1.121 -0.5530  0.2098  0.2831
 4010SOL     OW12473   5.614   0.374   3.383  0.4385  0.6025 -0.2807
 4010SOL    HW112474   5.585   0.377   3.292  1.1034 -1.0542 -0.5840
 4010SOL    HW212475   5.533   0.377   3.434 -0.4439 -3.2627 -1.0946
 4011SOL     OW12476   3.132   4.229   0.897 -0.1382 -0.0499  0.0237
 4011SOL    HW112477   3.204   4.292   0.904 -0.4108  0.2578  0.1113
 4011SOL    HW212478   3.116   4.222   0.803 -0.2136  0.1379  0.0212
 4012SOL     OW12479   4.483   0.371   4.532  0.0783 -0.2661  0.6331
 4012SOL    HW112480   4.577   0.390   4.523 -0.4065  1.3103 -2.0523
 4012SOL    HW212481   4.446   0.451   4.568 -0.4256 -0.4804  0.5940
 4013SOL     OW12482   3.339   4.876   3.134  0.1806 -0.3761  0.3137
 4013SOL    HW112483   3.340   4.886   3.039 -1.4499  2.0572  0.4538
 4013SOL    HW212484   3.410   4.933   3.164  1.2338 -1.7651  0.5863
 4014SOL     OW12485   5.783   4.194   0.700  0.1319 -0.2131  0.3145
 4014SOL    HW112486   5.761   4.266   0.641  2.1088  0.6721  0.6012
 4014SOL    HW212487   5.700   4.171   0.742 -0.8579  0.7016 -1.0729
 4015SOL     OW12488   1.028   5.611   2.416  0.0911 -0.2023 -0.0900
 4015SOL    HW112489   0.974   5.540   2.380 -0.6550  0.6194 -0.6478
 4015SOL    HW212490   1.061   5.658   2.340 -0.4151  0.7652  0.2611
 4016SOL     OW12491   1.333   4.426   2.817  0.2572  0.0640  0.0399
 4016SOL    HW112492   1.399   4.495   2.817 -0.2313  0.5718 -1.4280
 4016SOL    HW212493   1.292   4.431   2.903  1.1584  0.6991  0.4362
 4017SOL     OW12494   3.481   3.407   3.664  0.3648  0.3688 -0.7147
 4017SOL    HW112495   3.556   3.349   3.661 -1.2346 -1.8414 -0.3849
 4017SOL    HW212496   3.493   3.459   3.743  1.2026 -0.4346 -0.3007
 4018SOL     OW12497   2.344   1.031   4.114  0.2164  0.1546 -0.1248
 4018SOL    HW112498   2.384   0.948   4.087 -0.4861  0.1857 -1.3093
 4018SOL    HW212499   2.373   1.043   4.205 -0.5178 -1.9108  0.4204
 4019SOL     OW12500   4.560   0.069   1.778 -0.0179  0.0416  0.2198
 4019SOL    HW112501   4.644   0.111   1.759 -0.3643  0.5221 -0.2938
 4019SOL    HW212502   4.544   0.013   1.703  0.4997 -1.1401  0.9581
 4020SOL     OW12503   5.570   5.042   0.096  0.0995  0.2222  0.1517
 4020SOL    HW112504   5.664   5.044   0.116 -0.2709 -0.8857  2.3895
 4020SOL    HW212505   5.540   5.131   0.115  0.0251 -0.4216  3.8778
 4021SOL     OW12506   0.465   4.482   0.181  0.0418  0.2263 -0.0924
 4021SOL    HW112507   0.480   4.534   0.260  1.9338 -0.4096  0.0197
 4021SOL    HW212508   0.548   4.485   0.134 -0.9569  0.3298 -1.9232
 4022SOL     OW12509   2.275   1.851   4.751  0.1311 -0.2177 -0.0314
 4022SOL    HW112510   2.342   1.793   4.789  0.7329  0.1193 -0.5651
 4022SOL    HW212511   2.252   1.911   4.823  0.2014 -0.5086  0.2370
 4023SOL     OW12512   3.459   2.628   6.004  0.7903 -0.5710 -0.2911
 4023SOL    HW112513   3.476   2.536   5.983  2.0419 -0.3819 -0.1865
 4023SOL    HW212514   3.544   2.671   5.993  0.9003  0.0543  2.4051
 4024SOL     OW12515   4.184   0.720   0.534  0.6623 -0.1207  0.2474
 4024SOL    HW112516   4.139   0.649   0.488 -0.0239  0.0973  0.5656
 4024SOL    HW212517   4.168   0.702   0.627  0.6857  0.3134  0.3385
 4025SOL     OW12518   5.015   4.732   2.030  0.1323 -0.2454  0.2230
 4025SOL    HW112519   5.039   4.706   2.119  0.6901 -1.1922 -0.1945
 4025SOL    HW212520   4.920   4.727   2.029  0.1302 -0.3974  0.7160
 4026SOL     OW12521   5.394   2.303   0.093  0.4398  0.2504  0.2439
 4026SOL    HW112522   5.475   2.253   0.088 -0.1094 -0.6436  0.2085
 4026SOL    HW212523   5.388   2.330   0.185  0.6098  0.0374  0.3172
 4027SOL     OW12524   0.094   2.407   4.112 -0.1371 -0.2782  0.4416
 4027SOL    HW112525   0.102   2.395   4.018  0.9575 -1.2715  0.6344
 4027SOL    HW212526   0.049   2.329   4.143  0.3583 -0.4102  0.8499
 4028SOL     OW12527   3.757   1.884   3.263  0.1197 -0.3605 -0.0951
 4028SOL    HW112528   3.826   1.867   3.327  0.4883  1.6931  0.1415
 4028SOL    HW212529   3.684   1.919   3.315 -0.8211 -1.7404 -0.4408
 4029SOL     OW12530   1.111   6.098   1.393 -0.1400 -0.0709 -0.9004
 4029SOL    HW112531   1.081   6.180   1.431  0.2680 -1.3057  2.4056
 4029SOL    HW212532   1.207   6.100   1.404 -0.1119 -0.9138 -0.9212
 4030SOL     OW12533   1.140   4.043   4.135  0.0944 -0.0264 -0.6812
 4030SOL    HW112534   1.198   3.986   4.186  0.0253 -1.2401 -1.9051
 4030SOL    HW212535   1.059   4.047   4.186  0.3910 -0.3549 -0.1813
 4031SOL     OW12536   6.087   0.888   1.624  0.1695 -0.3962  0.0495
 4031SOL    HW112537   6.062   0.801   1.592 -0.8055 -0.5088  1.0607
 4031SOL    HW212538   6.040   0.949   1.568  0.8880 -0.5072 -0.6915
 4032SOL     OW12539   0.763   0.289   4.363 -0.5930 -0.3452 -0.9042
 4032SOL    HW112540   0.807   0.267   4.445 -1.9373 -1.3412 -0.4158
 4032SOL    HW212541   0.812   0.243   4.296 -0.0415 -0.2755 -0.5609
 4033SOL     OW12542   0.792   0.975   3.272  0.7399  0.2492  0.0081
 4033SOL    HW112543   0.838   0.937   3.197 -0.3017  0.9094 -0.9890
 4033SOL    HW212544   0.700   0.954   3.257  0.4332  1.0212  0.7208
 4034SOL     OW12545   4.983   5.005   2.956  0.0187 -0.4148  0.5843
 4034SOL    HW112546   4.955   5.069   2.891  0.1891 -0.4226  0.5024
 4034SOL    HW212547   5.075   4.988   2.935 -0.5646 -2.2738 -0.7304
 4035SOL     OW12548   2.193   5.505   4.932 -0.0454  0.2528  0.0059
 4035SOL    HW112549   2.182   5.415   4.902  0.0815 -0.0911  0.9491
 4035SOL    HW212550   2.119   5.552   4.893  0.4912 -0.0041 -1.3841
 4036SOL     OW12551   1.561   3.844   2.495 -0.8715  0.4094  0.6174
 4036SOL    HW112552   1.499   3.774   2.477 -0.5044  0.0366  0.7853
 4036SOL    HW212553   1.523   3.921   2.454  0.0809 -0.4705 -2.1388
 4037SOL     OW12554   1.717   1.423   0.311 -0.2058  0.3522 -0.4428
 4037SOL    HW112555   1.666   1.448   0.233  0.3177  1.0246 -0.5732
 4037SOL    HW212556   1.665   1.353   0.351  0.5169 -1.4765 -2.5064
 4038SOL     OW12557   2.384   4.923   5.881  0.1473 -0.0280  0.6371
 4038SOL    HW112558   2.319   4.855   5.898 -0.9469  0.3682 -1.5836
 4038SOL    HW212559   2.333   5.003   5.868  1.2636  0.7884  1.1459
 4039SOL     OW12560   3.283   4.459   4.706  0.8674 -0.4644 -0.2350
 4039SOL    HW112561   3.268   4.417   4.621  1.0312  0.7179 -0.8777
 4039SOL    HW212562   3.320   4.545   4.684  0.5425  0.0243  1.0269
 4040SOL     OW12563   3.653   3.591   4.612  0.1088  0.8399 -0.1493
 4040SOL    HW112564   3.645   3.655   4.542  0.8989  0.0232 -1.0103
 4040SOL    HW212565   3.729   3.538   4.588  0.5445  0.6916  1.4502
 4041SOL     OW12566   3.174   5.264   4.056  0.4855  0.4364 -0.3210
 4041SOL    HW112567   3.181   5.322   3.980  0.3043  1.2153  0.2485
 4041SOL    HW212568   3.105   5.202   4.032  0.2469  0.8364 -0.6820
 4042SOL     OW12569   5.556   3.022   5.350 -0.5032 -0.5484 -0.6183
 4042SOL    HW112570   5.500   3.067   5.287  0.3501  1.0630 -0.2758
 4042SOL    HW212571   5.561   2.932   5.317 -0.0781  0.2273 -2.8866
 4043SOL     OW12572   2.292   0.532   5.980  0.1622 -0.1242 -0.5945
 4043SOL    HW112573   2.296   0.478   5.901  1.4787 -1.8608  0.5888
 4043SOL    HW212574   2.350   0.488   6.042 -1.7295  0.5145  1.7642
 4044SOL     OW12575   2.463   5.735   1.246  0.1007 -0.2440  0.2675
 4044SOL    HW112576   2.541   5.680   1.241  0.9208  0.8354  0.6658
 4044SOL    HW212577   2.400   5.693   1.187  1.6853 -0.0474 -1.6766
 4045SOL     OW12578   2.893   6.008   0.442  0.8030 -0.0957 -0.4400
 4045SOL    HW112579   2.873   5.915   0.436 -0.9898  0.3234 -1.7946
 4045SOL    HW212580   2.929   6.019   0.530 -0.1765 -1.8475  0.2315
 4046SOL     OW12581   3.991   1.820   4.069  0.1290  0.7317 -0.3474
 4046SOL    HW112582   3.912   1.773   4.044  0.2785  0.7107 -0.7829
 4046SOL    HW212583   3.963   1.876   4.141  0.1380 -0.6604  0.7994
 4047SOL     OW12584   4.221   5.564   0.867 -0.1228 -0.2587  0.5851
 4047SOL    HW112585   4.257   5.653   0.866  0.0428 -0.3254  0.7566
 4047SOL    HW212586   4.268   5.519   0.937  0.9472 -0.9620 -0.5428
 4048SOL     OW12587   1.870   4.689   4.473  0.0901 -0.5858 -0.6903
 4048SOL    HW112588   1.854   4.780   4.451  0.6845 -0.1484  0.5720
 4048SOL    HW212589   1.965   4.679   4.467  0.0836 -0.9581 -0.2348
 4049SOL     OW12590   3.888   2.762   0.125  0.4079  0.6337  0.0532
 4049SOL    HW112591   3.826   2.709   0.075  0.9643 -1.5049  1.5245
 4049SOL    HW212592   3.949   2.699   0.163  0.7838  2.2667  2.3397
 4050SOL     OW12593   5.352   2.464   3.723  0.0907 -0.4490 -0.3154
 4050SOL    HW112594   5.387   2.396   3.664  0.8643 -1.5745  1.3632
 4050SOL    HW212595   5.312   2.415   3.795  1.5985  0.8160  1.4852
 4051SOL     OW12596   3.860   5.093   1.326 -0.3353  0.3612  0.3021
 4051SOL    HW112597   3.903   5.067   1.245  0.7029  1.3531  0.5079
 4051SOL    HW212598   3.931   5.094   1.391 -1.5169 -2.6665  1.8052
 4052SOL     OW12599   2.356   2.320   2.921 -0.5285 -0.6142 -0.3914
 4052SOL    HW112600   2.427   2.380   2.901 -0.6615  0.1872  1.3586
 4052SOL    HW212601   2.385   2.272   2.998 -0.9033 -2.0293 -1.0891
 4053SOL     OW12602   2.673   3.293   2.602  0.4669  0.4244 -1.1476
 4053SOL    HW112603   2.640   3.205   2.622  0.6681  0.5492 -0.2214
 4053SOL    HW212604   2.768   3.285   2.613  0.3197  1.2833  1.1288
 4054SOL     OW12605   5.756   3.000   1.731  0.0656 -0.1540  0.2620
 4054SOL    HW112606   5.773   3.088   1.697  2.1288  0.2250  2.0633
 4054SOL    HW212607   5.777   3.005   1.824 -1.1830 -2.2161  0.7246
 4055SOL     OW12608   3.617   1.223   5.826 -0.1149  0.0691 -0.1625
 4055SOL    HW112609   3.711   1.231   5.808  0.0392  0.4667  0.7633
 4055SOL    HW212610   3.576   1.284   5.765  0.2139 -0.2382 -0.6964
 4056SOL     OW12611   5.674   2.921   1.473  0.3908  0.1108 -0.4839
 4056SOL    HW112612   5.738   2.954   1.536 -0.5499  0.6104  0.2517
 4056SOL    HW212613   5.710   2.838   1.443  1.2141  0.2207  0.1656
 4057SOL     OW12614   2.701   3.846   3.392  0.3733 -0.1203 -0.2916
 4057SOL    HW112615   2.681   3.773   3.333  0.1917 -2.0442  1.9736
 4057SOL    HW212616   2.796   3.857   3.385  0.4198 -0.6682 -0.5802
 4058SOL     OW12617   4.816   1.778   4.142 -0.6294  0.4748 -0.1335
 4058SOL    HW112618   4.819   1.742   4.054  1.5217  1.5206 -0.5503
 4058SOL    HW212619   4.722   1.787   4.161 -1.1739 -1.7218 -1.4467
 4059SOL     OW12620   1.133   4.923   0.594 -0.3345 -0.0388  0.3847
 4059SOL    HW112621   1.054   4.894   0.639  0.7413 -0.9496  1.7410
 4059SOL    HW212622   1.203   4.916   0.659  0.9188  0.5382 -0.8359
 4060SOL     OW12623   2.340   2.942   2.535  0.2716  0.5418 -0.3164
 4060SOL    HW112624   2.304   2.853   2.527 -1.9797  1.3815 -0.3182
 4060SOL    HW212625   2.429   2.929   2.567 -0.2665 -1.7014  0.4688
 4061SOL     OW12626   3.467   1.594   5.213 -0.1783  0.0204  0.5412
 4061SOL    HW112627   3.411   1.657   5.167  0.4383  1.4106  1.6196
 4061SOL    HW212628   3.556   1.627   5.199  0.1969 -0.9272  0.6747
 4062SOL     OW12629   3.220   2.694   5.721 -0.0076  0.0857  0.5103
 4062SOL    HW112630   3.192   2.628   5.658  0.1452 -0.4408  0.9840
 4062SOL    HW212631   3.283   2.648   5.777  1.7632  1.2097 -0.4756
 4063SOL     OW12632   1.515   3.086   0.015  0.3617 -0.0681 -0.0196
 4063SOL    HW112633   1.569   3.014   0.048  1.3738  0.3871 -0.6668
 4063SOL    HW212634   1.568   3.164   0.027 -0.7279  0.6057  0.6722
 4064SOL     OW12635   3.767   5.677   2.263  0.8084  0.0515  0.3775
 4064SOL    HW112636   3.744   5.768   2.282  2.8907  0.2536  2.4355
 4064SOL    HW212637   3.811   5.681   2.178 -0.0072  0.7890 -0.0300
 4065SOL     OW12638   4.224   4.386   2.504 -0.0465 -0.0268 -0.0630
 4065SOL    HW112639   4.152   4.408   2.445 -0.3573 -0.1749  0.2580
 4065SOL    HW212640   4.235   4.464   2.558 -0.5829 -0.3390  0.5055
 4066SOL     OW12641   3.992   4.117   1.255  0.2010 -0.4474  0.4058
 4066SOL    HW112642   4.034   4.199   1.281 -0.0092 -0.0342 -0.4996
 4066SOL    HW212643   4.004   4.058   1.330  0.8639  0.2214  0.8364
 4067SOL     OW12644   3.692   6.094   0.730  0.0434  0.6635 -0.4432
 4067SOL    HW112645   3.701   6.019   0.789  0.1348  0.1285 -1.1262
 4067SOL    HW212646   3.751   6.074   0.657 -0.8535  0.8271 -1.2201
 4068SOL     OW12647   2.694   0.289   3.722  0.3416  0.3254  0.2693
 4068SOL    HW112648   2.735   0.321   3.642  0.5350 -0.7802 -0.0976
 4068SOL    HW212649   2.749   0.321   3.793  1.3713 -0.4237 -0.1694
 4069SOL     OW12650   1.921   5.591   2.728  0.0273  0.6624  0.5953
 4069SOL    HW112651   1.857   5.651   2.688 -1.3015  0.1946  1.9137
 4069SOL    HW212652   1.877   5.558   2.806  0.9189 -1.6078  0.2286
 4070SOL     OW12653   0.591   1.193   0.166  0.0696  0.0453  0.0589
 4070SOL    HW112654   0.623   1.191   0.075 -0.3864 -1.9882 -0.1027
 4070SOL    HW212655   0.554   1.281   0.176  2.2277  1.1498 -0.9528
 4071SOL     OW12656   3.381   1.102   0.193  0.1467 -0.3254 -0.3612
 4071SOL    HW112657   3.457   1.066   0.147 -1.1134 -3.3789 -0.2855
 4071SOL    HW212658   3.306   1.075   0.139 -0.9557  2.7887 -0.5604
 4072SOL     OW12659   2.824   1.060   5.601  0.0808 -0.0092 -0.5341
 4072SOL    HW112660   2.780   0.986   5.642  1.3697 -0.5476 -0.0496
 4072SOL    HW212661   2.897   1.080   5.661  1.0011  0.2822 -1.7147
 4073SOL     OW12662   2.153   4.667   1.684 -0.1686  0.5980  0.0995
 4073SOL    HW112663   2.197   4.749   1.663 -1.6672  1.5253  0.3407
 4073SOL    HW212664   2.221   4.611   1.719  1.9514 -0.1216 -4.5132
 4074SOL     OW12665   4.532   6.086   4.297  0.6806  0.0227  0.0811
 4074SOL    HW112666   4.558   6.160   4.242  2.4182 -0.7316 -0.1443
 4074SOL    HW212667   4.538   6.120   4.387  1.6529  0.1238 -0.0107
 4075SOL     OW12668   5.303   1.862   0.482 -0.0243  0.1129 -0.0698
 4075SOL    HW112669   5.331   1.776   0.451  1.7718  0.4947  0.3690
 4075SOL    HW212670   5.359   1.879   0.558 -2.3397  0.4280  1.6636
 4076SOL     OW12671   4.884   3.237   3.427 -0.2039 -0.3230  0.0486
 4076SOL    HW112672   4.808   3.220   3.372 -0.7922 -0.0956  0.7758
 4076SOL    HW212673   4.851   3.295   3.496  1.1915  1.9096 -1.0513
 4077SOL     OW12674   3.424   0.680   3.863  0.1462 -0.9080  0.4629
 4077SOL    HW112675   3.517   0.660   3.873  0.6067 -0.1167 -1.6417
 4077SOL    HW212676   3.399   0.633   3.784 -1.0013 -0.3258  0.4673
 4078SOL     OW12677   1.258   1.458   2.449 -0.0410  0.7635 -0.2164
 4078SOL    HW112678   1.233   1.501   2.530 -0.1527 -0.2713  0.3057
 4078SOL    HW212679   1.200   1.495   2.383 -1.5122 -0.0353  0.5882
 4079SOL     OW12680   1.557   2.046   3.416  0.3965  0.4873  0.5939
 4079SOL    HW112681   1.640   2.014   3.380  0.9142  1.4362  0.9150
 4079SOL    HW212682   1.581   2.121   3.470 -0.5623  0.1549  1.5244
 4080SOL     OW12683   4.742   1.116   1.098 -0.2880  0.4400  0.1867
 4080SOL    HW112684   4.678   1.104   1.168  0.9671 -1.3358  1.1312
 4080SOL    HW212685   4.691   1.112   1.018 -1.4056 -0.7416  0.9123
 4081SOL     OW12686   1.603   1.871   0.185  0.3878 -0.1723  0.4955
 4081SOL    HW112687   1.529   1.812   0.168  0.1426  0.5025 -0.9228
 4081SOL    HW212688   1.614   1.919   0.103  2.1059  0.0791  0.8469
 4082SOL     OW12689   3.100   0.996   5.110 -0.1601 -0.2249  0.8572
 4082SOL    HW112690   3.162   1.021   5.041 -0.7781 -0.3071  0.2665
 4082SOL    HW212691   3.143   0.923   5.155  0.1241 -0.3520  0.3858
 4083SOL     OW12692   0.784   3.041   3.002  0.0626  0.1240 -0.3563
 4083SOL    HW112693   0.771   3.128   2.964 -0.1529 -0.3397 -1.3993
 4083SOL    HW212694   0.856   3.051   3.063  0.2074  0.9841 -0.6566
 4084SOL     OW12695   3.342   3.008   6.005  0.1555  0.5118 -0.1185
 4084SOL    HW112696   3.297   3.082   6.046  1.7489  2.1671 -1.2111
 4084SOL    HW212697   3.274   2.961   5.958 -0.9829  0.9621  1.0248
 4085SOL     OW12698   2.809   4.674   4.658 -0.3473  0.2056  0.2200
 4085SOL    HW112699   2.846   4.743   4.602 -0.4435 -0.1901 -0.3476
 4085SOL    HW212700   2.879   4.651   4.718  0.7554 -1.2787 -1.5261
 4086SOL     OW12701   1.436   0.559   1.139  0.2204 -0.0625  0.1290
 4086SOL    HW112702   1.416   0.576   1.046  1.2817  1.7836  0.1880
 4086SOL    HW212703   1.521   0.516   1.138 -0.9860 -2.6565  0.1718
 4087SOL     OW12704   3.834   2.531   4.922  0.1862  0.3529 -1.0734
 4087SOL    HW112705   3.858   2.502   4.834 -0.8427 -0.8546 -0.9980
 4087SOL    HW212706   3.917   2.544   4.967  0.7126 -0.1686 -1.8762
 4088SOL     OW12707   3.726   5.055   0.277 -0.0125  0.5541  0.3714
 4088SOL    HW112708   3.645   5.004   0.282 -0.0286  0.6786  2.4908
 4088SOL    HW212709   3.739   5.070   0.184 -0.6870 -2.2424 -0.2804
 4089SOL     OW12710   3.641   0.234   0.864 -0.1896  0.2948 -0.1642
 4089SOL    HW112711   3.666   0.142   0.851 -1.3938  0.2185 -2.4554
 4089SOL    HW212712   3.597   0.235   0.949 -1.3134 -1.5322 -0.6757
 4090SOL     OW12713   5.509   4.926   3.590  0.4908  0.2521 -0.6606
 4090SOL    HW112714   5.534   4.877   3.669 -2.0723 -0.9619 -0.5090
 4090SOL    HW212715   5.565   5.003   3.592  1.3513 -0.3265  1.7084
 4091SOL     OW12716   4.250   5.017   0.950  0.0324 -0.1098 -0.3529
 4091SOL    HW112717   4.263   4.928   0.985  1.3807 -0.5755 -1.9162
 4091SOL    HW212718   4.190   5.005   0.876  0.9826  0.1203 -1.1745
 4092SOL     OW12719   5.911   1.477   3.113 -0.9300 -0.4310 -0.1268
 4092SOL    HW112720   5.917   1.451   3.021  2.2978 -1.1453  0.1761
 4092SOL    HW212721   5.996   1.453   3.150 -1.8981  0.4537  2.9054
 4093SOL     OW12722   5.822   2.873   2.976 -0.0001 -0.3216  0.4227
 4093SOL    HW112723   5.859   2.802   3.028 -0.7766 -0.7396  0.4033
 4093SOL    HW212724   5.841   2.850   2.885 -1.7744 -1.4218  0.2803
 4094SOL     OW12725   3.837   3.834   5.163  0.4765  0.2039  0.3207
 4094SOL    HW112726   3.826   3.909   5.220  1.5047  0.3643  0.3169
 4094SOL    HW212727   3.863   3.871   5.079 -0.3855 -0.0735 -0.0867
 4095SOL     OW12728   5.710   4.849   6.019 -0.0368  0.6192  0.0955
 4095SOL    HW112729   5.750   4.765   6.044  0.1553  0.8720  0.6425
 4095SOL    HW212730   5.615   4.832   6.023 -0.0094  0.6210  0.8973
 4096SOL     OW12731   5.222   4.535   1.119 -0.1742 -0.1145  0.0454
 4096SOL    HW112732   5.260   4.563   1.203 -4.1130  0.3164  1.8959
 4096SOL    HW212733   5.225   4.440   1.122 -2.1435 -0.1949  1.7780
 4097SOL     OW12734   2.211   0.809   5.116  0.1705  0.0886 -0.4385
 4097SOL    HW112735   2.265   0.816   5.038  0.2655  2.6689 -0.2028
 4097SOL    HW212736   2.167   0.724   5.107  1.7850 -0.6381 -2.1947
 4098SOL     OW12737   3.067   1.495   1.112  0.7248 -0.1731  0.3941
 4098SOL    HW112738   3.119   1.444   1.049  0.5028 -1.6165  1.3196
 4098SOL    HW212739   3.098   1.465   1.197  0.8687  1.5905  0.9984
 4099SOL     OW12740   5.260   3.036   1.397  0.3980 -0.0779  0.2192
 4099SOL    HW112741   5.348   3.056   1.428  0.1088  1.5335  0.0912
 4099SOL    HW212742   5.204   3.101   1.439 -0.3166  0.7821 -1.8806
 4100SOL     OW12743   3.550   3.186   2.011 -0.2871  0.3194  0.3178
 4100SOL    HW112744   3.516   3.117   2.068  1.1151 -2.4230 -1.9097
 4100SOL    HW212745   3.488   3.189   1.937 -0.2011  1.3429  0.2630
 4101SOL     OW12746   2.488   3.170   1.831  0.4127 -0.0238  0.5350
 4101SOL    HW112747   2.509   3.134   1.746  1.9355  0.3003  0.7383
 4101SOL    HW212748   2.565   3.222   1.855 -0.9775  1.9272  1.0115
 4102SOL     OW12749   4.048   0.947   0.635  0.5959 -0.1632  0.2893
 4102SOL    HW112750   4.096   0.873   0.599  1.2510 -0.1977  1.2105
 4102SOL    HW212751   4.113   1.017   0.642 -0.3370  1.0368 -2.0033
 4103SOL     OW12752   2.512   3.306   3.283  0.1107 -0.0599  0.1778
 4103SOL    HW112753   2.456   3.379   3.256 -0.8558 -0.9318 -0.2408
 4103SOL    HW212754   2.487   3.289   3.374  2.3381  1.9258  1.2636
 4104SOL     OW12755   3.387   2.331   2.829 -0.0767  0.5466  0.2311
 4104SOL    HW112756   3.480   2.353   2.835  0.1472 -0.1754 -0.3463
 4104SOL    HW212757   3.386   2.245   2.787 -0.9030 -0.4685  2.1917
 4105SOL     OW12758   1.377   3.039   3.397  0.0255 -0.0187  0.0266
 4105SOL    HW112759   1.397   2.947   3.382  0.0117 -0.1977  1.0223
 4105SOL    HW212760   1.404   3.083   3.317  1.2926 -0.7018  0.0621
 4106SOL     OW12761   3.997   3.321   0.868 -0.0308  0.6623  0.0359
 4106SOL    HW112762   4.052   3.366   0.804 -1.4406  1.8066 -0.4425
 4106SOL    HW212763   4.036   3.345   0.953 -0.2610  2.1642 -0.2494
 4107SOL     OW12764   5.816   0.131   1.430  0.2133  0.4095 -0.4150
 4107SOL    HW112765   5.739   0.179   1.460  0.3255  0.0086  0.5711
 4107SOL    HW212766   5.881   0.145   1.499  0.3387 -0.9158 -0.2388
 4108SOL     OW12767   0.166   1.497   2.306  0.1360  0.6595  0.1504
 4108SOL    HW112768   0.153   1.405   2.281  0.0366  1.0424 -1.2844
 4108SOL    HW212769   0.124   1.504   2.392 -0.2692 -0.5301  0.0735
 4109SOL     OW12770   1.581   4.747   4.278 -0.2397 -0.6631 -0.0274
 4109SOL    HW112771   1.487   4.748   4.296 -0.0848  0.0344  0.8038
 4109SOL    HW212772   1.587   4.750   4.183 -1.0684 -2.2471 -0.1603
 4110SOL     OW12773   2.458   1.120   1.191 -0.5366 -0.1695 -0.1700
 4110SOL    HW112774   2.398   1.048   1.173  0.6467 -1.2640  0.1474
 4110SOL    HW212775   2.441   1.143   1.282  0.1842 -1.1263  0.2141
 4111SOL     OW12776   1.725   1.881   5.581  0.5952  0.0663  0.3263
 4111SOL    HW112777   1.757   1.838   5.661 -0.8221 -0.0119  0.8821
 4111SOL    HW212778   1.715   1.973   5.606  1.1268  0.2305 -0.0700
 4112SOL     OW12779   5.312   3.337   3.414 -0.1880 -0.2423  0.5773
 4112SOL    HW112780   5.353   3.421   3.394 -0.2231  0.1203  1.8885
 4112SOL    HW212781   5.384   3.274   3.410 -0.4372 -0.4442 -1.9282
 4113SOL     OW12782   1.249   2.884   1.617  0.0289  0.2669 -0.0581
 4113SOL    HW112783   1.180   2.947   1.596 -0.9103 -0.7677 -0.1395
 4113SOL    HW212784   1.331   2.928   1.592 -0.4377  2.1591  1.5052
 4114SOL     OW12785   4.424   1.324   4.973 -0.5391 -0.3477 -0.2144
 4114SOL    HW112786   4.488   1.286   4.913 -0.7406 -2.5281  0.8403
 4114SOL    HW212787   4.455   1.413   4.990  1.6747 -1.0309 -0.4628
 4115SOL     OW12788   2.049   3.384   1.782  0.0307  0.2359  0.1222
 4115SOL    HW112789   2.133   3.413   1.818 -0.3358  0.7659  0.5686
 4115SOL    HW212790   2.008   3.336   1.855 -0.0162 -0.0970 -0.1227
 4116SOL     OW12791   3.181   1.848   5.451  0.2483 -0.3029  0.4789
 4116SOL    HW112792   3.176   1.937   5.417  0.6226  0.0120  1.2405
 4116SOL    HW212793   3.105   1.839   5.508 -0.2144 -0.7341 -0.1880
 4117SOL     OW12794   4.889   5.406   4.755  0.5050  0.4857 -0.1913
 4117SOL    HW112795   4.895   5.355   4.674 -0.6070  0.4788 -0.2753
 4117SOL    HW212796   4.917   5.345   4.824 -0.4418 -0.1268 -0.3367
 4118SOL     OW12797   0.141   5.729   5.242 -0.0271 -0.3309  0.0510
 4118SOL    HW112798   0.155   5.691   5.156 -1.0851 -0.9219  0.1262
 4118SOL    HW212799   0.212   5.693   5.296  0.4060 -0.2629 -0.4730
 4119SOL     OW12800   3.635   4.012   3.514  0.7049 -0.3669 -0.1502
 4119SOL    HW112801   3.692   4.079   3.550  2.6060 -1.0735 -1.6690
 4119SOL    HW212802   3.596   4.053   3.436 -1.1990  0.2223  1.0496
 4120SOL     OW12803   5.604   4.422   5.519  0.7412  0.1361 -0.0022
 4120SOL    HW112804   5.680   4.451   5.468  0.5846  0.3645 -0.1052
 4120SOL    HW212805   5.630   4.436   5.611  2.0093 -2.5727  0.1581
 4121SOL     OW12806   0.674   3.215   3.420 -0.1364 -0.7134  0.3903
 4121SOL    HW112807   0.755   3.165   3.410  0.1177 -0.8746  2.6458
 4121SOL    HW212808   0.621   3.190   3.345  2.2439  0.1619 -1.7480
 4122SOL     OW12809   3.713   0.922   5.597 -0.0229 -0.6204 -0.0674
 4122SOL    HW112810   3.793   0.971   5.580 -0.5180 -0.2914 -1.6210
 4122SOL    HW212811   3.695   0.935   5.690  2.0835 -1.2785  0.4826
 4123SOL     OW12812   4.994   3.057   4.933 -0.0403  0.0045  0.2596
 4123SOL    HW112813   4.972   3.066   5.026 -0.9765  1.3664 -0.0736
 4123SOL    HW212814   4.991   2.962   4.918 -1.1534 -0.1611  1.3230
 4124SOL     OW12815   6.056   4.097   0.976  0.1120  0.1473  1.2508
 4124SOL    HW112816   5.966   4.101   1.008 -0.5342 -1.4928 -0.2497
 4124SOL    HW212817   6.049   4.112   0.882  1.7257  2.5915  1.4308
 4125SOL     OW12818   4.498   4.682   0.875 -0.5335  0.0019 -0.8673
 4125SOL    HW112819   4.459   4.699   0.789 -0.5087  0.7403 -0.7394
 4125SOL    HW212820   4.536   4.767   0.901  2.3439 -0.9447 -1.6054
 4126SOL     OW12821   1.773   0.663   3.041 -0.0878 -0.3580 -0.0027
 4126SOL    HW112822   1.742   0.752   3.058 -0.7478 -0.6535  0.3780
 4126SOL    HW212823   1.864   0.674   3.014 -0.6681  0.5851 -1.7185
 4127SOL     OW12824   1.767   2.332   2.482  0.2768 -0.5504 -0.6330
 4127SOL    HW112825   1.685   2.375   2.458  1.7497  1.6542 -2.1113
 4127SOL    HW212826   1.784   2.362   2.571  0.3108  0.4421 -0.9530
 4128SOL     OW12827   0.248   4.820   0.286 -0.0211 -1.0242  0.1172
 4128SOL    HW112828   0.274   4.755   0.221  1.1997 -0.2761 -0.1796
 4128SOL    HW212829   0.167   4.858   0.250  0.1578 -1.2387 -0.5281
 4129SOL     OW12830   4.963   0.826   0.491  0.0907 -0.3924  0.0601
 4129SOL    HW112831   4.925   0.888   0.553 -1.1743 -1.0389 -0.0253
 4129SOL    HW212832   5.040   0.791   0.535  0.7393  1.0973  0.1712
 4130SOL     OW12833   0.416   0.687   0.325 -0.7366  0.1829  0.2607
 4130SOL    HW112834   0.435   0.779   0.303  1.0968 -0.0698  0.6367
 4130SOL    HW212835   0.426   0.683   0.421 -4.5962  0.3711  0.8330
 4131SOL     OW12836   2.695   5.103   3.543 -0.3890  0.1505  0.0077
 4131SOL    HW112837   2.645   5.176   3.508 -1.2111 -0.1764  0.4728
 4131SOL    HW212838   2.705   5.123   3.636  0.3890  0.2249 -0.0805
 4132SOL     OW12839   1.618   2.642   0.672  0.0221 -0.3826 -0.5794
 4132SOL    HW112840   1.634   2.547   0.679 -1.3513 -0.7109 -1.4775
 4132SOL    HW212841   1.632   2.662   0.580  0.3356  0.3117 -0.3859
 4133SOL     OW12842   0.223   0.581   0.133 -0.9084 -0.2410 -0.5804
 4133SOL    HW112843   0.147   0.584   0.191  0.9130 -0.0201  1.9464
 4133SOL    HW212844   0.291   0.628   0.180  0.9928 -0.9548 -2.4704
 4134SOL     OW12845   1.016   4.261   2.293  0.2239  0.2556  0.2326
 4134SOL    HW112846   1.017   4.247   2.388 -0.8538 -0.1484  0.1966
 4134SOL    HW212847   1.053   4.348   2.281 -2.0909  1.4536  1.2424
 4135SOL     OW12848   1.877   5.638   5.308 -0.2538  0.3684  0.2336
 4135SOL    HW112849   1.921   5.701   5.251  1.2879  0.2131  1.1845
 4135SOL    HW212850   1.820   5.691   5.363 -2.9465  0.3997 -2.3326
 4136SOL     OW12851   3.888   5.117   1.706  0.2777  0.2591  0.3851
 4136SOL    HW112852   3.800   5.125   1.670  0.5476  0.5534 -0.2269
 4136SOL    HW212853   3.930   5.201   1.686  0.3998  0.4832  1.5031
 4137SOL     OW12854   1.405   5.461   0.703  0.7394  0.3448  0.0749
 4137SOL    HW112855   1.371   5.546   0.675 -0.2832  0.2529  0.9829
 4137SOL    HW212856   1.343   5.431   0.769 -0.0606 -2.0266 -1.5974
 4138SOL     OW12857   2.446   0.891   3.718 -0.1038 -0.1092 -0.2322
 4138SOL    HW112858   2.354   0.870   3.701  0.3382 -1.9537 -0.5468
 4138SOL    HW212859   2.481   0.812   3.761  1.0536  1.0099  0.9832
 4139SOL     OW12860   0.251   4.277   0.054 -0.3502  0.1109 -0.0743
 4139SOL    HW112861   0.208   4.347   0.004 -0.4731  0.9958  1.2363
 4139SOL    HW212862   0.218   4.287   0.143  0.2355 -1.1379  0.3071
 4140SOL     OW12863   2.963   0.163   0.313  0.0787  0.2432  0.0607
 4140SOL    HW112864   2.987   0.236   0.256  1.2763  0.1794  0.4593
 4140SOL    HW212865   2.908   0.107   0.259 -0.2578  1.0772 -0.4760
 4141SOL     OW12866   4.130   0.352   4.185  0.0550 -0.6199 -0.2702
 4141SOL    HW112867   4.089   0.427   4.227  1.5586  0.4578 -0.6501
 4141SOL    HW212868   4.162   0.298   4.258 -2.8918 -2.1003  0.0939
 4142SOL     OW12869   1.789   0.604   2.692  0.0651 -0.4034  0.7143
 4142SOL    HW112870   1.693   0.606   2.695  0.0989  0.9291  2.8997
 4142SOL    HW212871   1.815   0.565   2.775  1.3846  3.3190  2.2824
 4143SOL     OW12872   1.593   5.245   0.082 -0.0613  0.0970  0.3043
 4143SOL    HW112873   1.576   5.330   0.122  0.4285 -0.6014  2.0965
 4143SOL    HW212874   1.506   5.209   0.064 -0.2772  1.2579 -1.2196
 4144SOL     OW12875   3.999   5.471   3.199  0.6609 -0.1522 -0.1421
 4144SOL    HW112876   3.975   5.529   3.271 -0.0588  1.4243 -1.5843
 4144SOL    HW212877   4.073   5.514   3.157  1.7140 -1.5570  0.2000
 4145SOL     OW12878   0.533   5.222   1.205 -0.0138 -0.1544  0.2856
 4145SOL    HW112879   0.614   5.274   1.206  0.5298 -0.9882  1.3223
 4145SOL    HW212880   0.563   5.132   1.190 -0.1782 -1.2646  5.0783
 4146SOL     OW12881   0.746   2.068   2.315 -0.5010  0.0335  0.0008
 4146SOL    HW112882   0.780   2.044   2.229  3.1646 -1.6507  1.7122
 4146SOL    HW212883   0.760   2.163   2.321  2.6156 -0.3421 -0.0242
 4147SOL     OW12884   4.739   0.033   5.043 -0.3302 -0.0509  0.2838
 4147SOL    HW112885   4.659   0.004   4.999 -0.2513  0.1122  0.0349
 4147SOL    HW212886   4.809  -0.000   4.988 -0.2161 -0.6023  0.7517
 4148SOL     OW12887   4.339   4.469   0.621 -0.2684 -0.5687 -0.3960
 4148SOL    HW112888   4.419   4.418   0.609  0.0985 -0.7714  2.2587
 4148SOL    HW212889   4.331   4.521   0.541  2.5966 -0.4340 -0.6972
 4149SOL     OW12890   2.813   0.080   3.379 -0.1301 -0.3219 -0.3380
 4149SOL    HW112891   2.811   0.164   3.425 -3.2035  0.5567 -1.8068
 4149SOL    HW212892   2.855   0.099   3.295  0.1386 -0.5205 -0.2505
 4150SOL     OW12893   5.936   4.707   2.527 -0.0699  0.8779 -0.3795
 4150SOL    HW112894   5.975   4.793   2.541 -1.0280  1.6384 -2.0923
 4150SOL    HW212895   5.866   4.722   2.463 -2.3373 -0.6319  1.5636
 4151SOL     OW12896   2.619   2.864   1.468  0.1483 -0.3948 -0.6153
 4151SOL    HW112897   2.551   2.798   1.482  0.6953 -0.7630  0.4138
 4151SOL    HW212898   2.701   2.818   1.489  0.5182  0.6416  0.2977
 4152SOL     OW12899   3.434   3.221   3.117  0.0886 -0.4939 -0.2583
 4152SOL    HW112900   3.344   3.198   3.142 -0.2118 -0.1630 -1.0052
 4152SOL    HW212901   3.487   3.196   3.193 -0.9561  1.8469  1.3662
 4153SOL     OW12902   4.070   2.287   4.476  0.0700  0.4042 -0.0703
 4153SOL    HW112903   4.010   2.312   4.546  0.5277  1.2231  0.0412
 4153SOL    HW212904   4.063   2.359   4.412 -1.4388 -1.0013 -1.5924
 4154SOL     OW12905   3.682   6.097   4.589 -0.4786  0.0160 -0.0988
 4154SOL    HW112906   3.636   6.160   4.534 -1.0407 -0.2944  0.0088
 4154SOL    HW212907   3.616   6.031   4.611 -0.2637  0.1112  0.9054
 4155SOL     OW12908   0.836   1.126   1.442  0.0916 -0.1096  0.0298
 4155SOL    HW112909   0.797   1.140   1.529  0.9183  1.0278  0.2386
 4155SOL    HW212910   0.924   1.165   1.449  0.3247 -0.3950 -1.1872
 4156SOL     OW12911   4.310   2.806   3.234 -0.3793  0.1898 -0.3456
 4156SOL    HW112912   4.327   2.727   3.182 -0.2277  1.8900 -3.0638
 4156SOL    HW212913   4.379   2.867   3.208 -1.7823  1.9853 -0.0494
 4157SOL     OW12914   4.501   3.228   1.258  0.3568 -0.1833 -0.4355
 4157SOL    HW112915   4.431   3.164   1.273 -0.0381  0.3229 -0.0883
 4157SOL    HW212916   4.569   3.178   1.214  0.1071 -0.8797 -0.0548
 4158SOL     OW12917   1.526   2.371   3.337  0.5652  0.4308  0.1151
 4158SOL    HW112918   1.434   2.372   3.362  0.3266  1.8268 -0.6838
 4158SOL    HW212919   1.572   2.335   3.413 -0.6121 -0.0819  0.5996
 4159SOL     OW12920   6.035   5.658   5.955 -0.2193 -0.1163 -0.0252
 4159SOL    HW112921   6.124   5.651   5.989  0.3785 -2.4334 -1.7926
 4159SOL    HW212922   5.981   5.608   6.017 -0.2764  1.0250  0.8747
 4160SOL     OW12923   3.247   1.151   5.431 -0.1701 -0.2523  0.0144
 4160SOL    HW112924   3.301   1.076   5.405  0.2949  0.3361 -0.7654
 4160SOL    HW212925   3.301   1.227   5.410  0.8825  0.3257  3.9661
 4161SOL     OW12926   2.530   5.014   0.676  0.5517 -0.4262  0.1964
 4161SOL    HW112927   2.584   5.046   0.604  0.8936  0.2099  0.7234
 4161SOL    HW212928   2.593   4.987   0.743  0.2437  0.6533  0.9598
 4162SOL     OW12929   0.329   4.462   5.310 -0.5879  0.0970  0.3813
 4162SOL    HW112930   0.365   4.540   5.350 -0.5272 -0.4738  1.4664
 4162SOL    HW212931   0.307   4.489   5.221 -0.8517  1.4248  0.8283
 4163SOL     OW12932   3.889   3.478   5.240 -0.9956  0.1053  0.1596
 4163SOL    HW112933   3.815   3.493   5.299 -1.6086 -0.2532 -0.4987
 4163SOL    HW212934   3.870   3.394   5.198 -0.2707  0.0662 -0.0996
 4164SOL     OW12935   5.462   2.649   1.419  0.0881 -0.4955  0.0364
 4164SOL    HW112936   5.420   2.712   1.360 -1.1018 -2.2800 -1.1242
 4164SOL    HW212937   5.556   2.658   1.401  0.0664  1.6686  0.7090
 4165SOL     OW12938   1.555   4.835   4.016  0.1496  0.0764  0.0211
 4165SOL    HW112939   1.641   4.816   3.978 -0.1702 -0.4668 -0.4550
 4165SOL    HW212940   1.511   4.888   3.950 -1.0701 -2.3352 -1.2568
 4166SOL     OW12941   4.280   3.490   5.691  0.2953 -0.2186  0.3486
 4166SOL    HW112942   4.273   3.492   5.786  1.8711  0.4479  0.4718
 4166SOL    HW212943   4.360   3.538   5.671  0.4400 -1.0456 -1.2693
 4167SOL     OW12944   1.670   2.626   6.092  0.4874 -0.5286 -0.4355
 4167SOL    HW112945   1.733   2.594   6.157  0.5893  0.8710  0.1787
 4167SOL    HW212946   1.606   2.555   6.085 -0.5356 -0.0431  2.5373
 4168SOL     OW12947   5.872   1.315   3.832 -0.2884  0.1064  0.6721
 4168SOL    HW112948   5.954   1.359   3.810  0.5639 -1.5465  0.3856
 4168SOL    HW212949   5.855   1.256   3.759 -1.0682 -0.4862  1.3056
 4169SOL     OW12950   0.707   6.003   4.655  0.1393 -0.0466 -0.1139
 4169SOL    HW112951   0.663   6.064   4.595  1.8470  1.4800  0.1195
 4169SOL    HW212952   0.765   6.058   4.708 -0.0777 -1.5769  1.8232
 4170SOL     OW12953   4.252   5.880   1.477 -0.3365  0.4934  0.1410
 4170SOL    HW112954   4.179   5.912   1.425 -0.8197  0.3791  0.7437
 4170SOL    HW212955   4.273   5.952   1.536 -0.5483  0.1923  0.5826
 4171SOL     OW12956   4.171   4.266   4.406  0.6862 -0.5363 -0.1695
 4171SOL    HW112957   4.122   4.264   4.488 -0.4919 -0.0123 -0.8474
 4171SOL    HW212958   4.141   4.189   4.358 -1.6466  1.2445 -1.7743
 4172SOL     OW12959   4.452   2.790   5.917  0.6793 -0.2587 -0.0871
 4172SOL    HW112960   4.356   2.782   5.920  0.4840  1.8364  1.4119
 4172SOL    HW212961   4.484   2.718   5.972  0.0574 -1.6647 -1.5062
 4173SOL     OW12962   4.294   0.978   2.108 -0.1357  0.1858 -0.9118
 4173SOL    HW112963   4.305   0.999   2.016  0.7626 -0.1810 -0.8968
 4173SOL    HW212964   4.334   1.051   2.155 -1.5268  0.9002 -0.7743
 4174SOL     OW12965   3.240   0.215   1.287 -0.2434 -0.2410 -0.8120
 4174SOL    HW112966   3.326   0.191   1.320 -0.8503 -0.7464  0.4584
 4174SOL    HW212967   3.206   0.278   1.350 -0.1501  1.2791 -2.2012
 4175SOL     OW12968   4.831   5.860   1.057  0.1737 -0.6257 -1.1227
 4175SOL    HW112969   4.799   5.775   1.085 -0.3835  0.1372  0.6997
 4175SOL    HW212970   4.917   5.842   1.019  0.5456 -1.8931  0.2111
 4176SOL     OW12971   5.397   4.976   5.133  0.2295 -0.5458  0.2270
 4176SOL    HW112972   5.462   5.000   5.198 -2.1452  0.2678  2.4858
 4176SOL    HW212973   5.418   4.886   5.109  1.5877 -0.6375  1.6340
 4177SOL     OW12974   5.510   1.696   3.951  0.2518  0.4681 -0.0974
 4177SOL    HW112975   5.415   1.705   3.942 -0.0550 -1.5861  0.4640
 4177SOL    HW212976   5.532   1.619   3.899  1.3383 -0.0275  1.0278
 4178SOL     OW12977   1.242   1.481   1.159 -0.2691 -0.1327 -0.0713
 4178SOL    HW112978   1.206   1.486   1.070 -0.9696  1.4791  0.2687
 4178SOL    HW212979   1.228   1.390   1.185  0.3272 -0.7454 -1.7522
 4179SOL     OW12980   5.545   1.004   5.294  0.7315 -0.1332 -0.5525
 4179SOL    HW112981   5.617   0.941   5.298  1.0838  0.1451 -1.8533
 4179SOL    HW212982   5.589   1.089   5.290  0.2631  0.2123  1.0588
 4180SOL     OW12983   3.277   2.967   4.300 -0.3134 -0.6951  0.2906
 4180SOL    HW112984   3.275   3.055   4.337  0.3272 -0.3158 -0.5283
 4180SOL    HW212985   3.347   2.922   4.347 -0.5762 -0.7369  0.6426
 4181SOL     OW12986   5.548   2.323   1.711 -0.0851  0.5432  0.0980
 4181SOL    HW112987   5.482   2.339   1.644  1.3206 -0.3232 -1.5724
 4181SOL    HW212988   5.574   2.410   1.742 -1.9953  0.8967  0.8394
 4182SOL     OW12989   4.691   2.276   1.278 -0.3371 -0.3395 -0.0594
 4182SOL    HW112990   4.686   2.308   1.188 -3.6867 -3.8726 -1.3798
 4182SOL    HW212991   4.780   2.243   1.287 -0.0222 -0.2283 -2.2299
 4183SOL     OW12992   4.157   5.238   4.208  0.3633  0.1357 -0.0680
 4183SOL    HW112993   4.128   5.228   4.117  1.8779 -2.5657 -0.3766
 4183SOL    HW212994   4.223   5.306   4.205  1.0430 -0.5404 -1.1948
 4184SOL     OW12995   5.535   1.996   3.998 -0.3756  0.4391 -0.1088
 4184SOL    HW112996   5.525   1.906   4.029 -0.5232  0.4799 -0.0392
 4184SOL    HW212997   5.539   2.049   4.078  1.7257  0.3014 -0.0630
 4185SOL     OW12998   1.382   2.638   5.167 -0.4158 -0.6455 -0.3971
 4185SOL    HW112999   1.384   2.660   5.260  0.4261 -0.8923 -0.3527
 4185SOL    HW213000   1.306   2.580   5.158  0.2427 -1.6623  0.3810
 4186SOL     OW13001   5.733   4.400   5.779  0.7808 -0.0983 -0.3412
 4186SOL    HW113002   5.694   4.321   5.817  1.0260 -0.5518 -0.9894
 4186SOL    HW213003   5.804   4.423   5.838  0.8825 -0.5325 -0.2905
 4187SOL     OW13004   3.529   0.739   4.417  0.3037  0.1138 -1.0138
 4187SOL    HW113005   3.439   0.717   4.393 -0.1798 -0.3607  1.0541
 4187SOL    HW213006   3.536   0.833   4.404 -1.3600  0.6278  1.2774
 4188SOL     OW13007   2.493   4.022   3.533 -0.0287 -0.5429  0.1455
 4188SOL    HW113008   2.515   4.115   3.522 -2.4972  0.1725  0.6023
 4188SOL    HW213009   2.576   3.980   3.557  1.5600  1.1589 -2.0174
 4189SOL     OW13010   5.630   3.369   3.541 -0.0304 -0.0850  0.4787
 4189SOL    HW113011   5.634   3.290   3.488  0.1027 -0.5152  1.1176
 4189SOL    HW213012   5.539   3.375   3.570 -0.4540  0.9384 -0.9498
 4190SOL     OW13013   3.051   0.435   2.159  0.3120  0.1333  0.4219
 4190SOL    HW113014   3.100   0.363   2.199  2.7957  0.5316 -1.6001
 4190SOL    HW213015   2.999   0.393   2.090 -0.5372 -0.0347  1.1522
 4191SOL     OW13016   2.756   1.973   3.864 -0.6840 -0.2605  0.1695
 4191SOL    HW113017   2.778   2.059   3.828 -1.2165  0.2126  0.9528
 4191SOL    HW213018   2.787   1.911   3.797 -0.2234  0.5252 -0.3697
 4192SOL     OW13019   1.438   1.645   5.543 -0.5582 -0.0886  0.6215
 4192SOL    HW113020   1.453   1.727   5.589  1.0239 -1.1293  2.0748
 4192SOL    HW213021   1.495   1.651   5.465  0.9970 -0.5167  1.6818
 4193SOL     OW13022   2.254   3.998   3.724  0.4513  0.3540  0.1384
 4193SOL    HW113023   2.333   4.016   3.774  0.5096 -0.2439  0.2669
 4193SOL    HW213024   2.267   4.045   3.641  1.1137 -0.0500  0.0028
 4194SOL     OW13025   4.100   0.689   1.692  0.3902 -0.2043 -0.1757
 4194SOL    HW113026   4.109   0.683   1.597  0.4384 -0.1272 -0.1758
 4194SOL    HW213027   4.118   0.600   1.723 -1.3767 -0.6558 -0.3705
 4195SOL     OW13028   2.297   0.237   2.902  0.2377 -0.3632 -0.5097
 4195SOL    HW113029   2.316   0.183   2.979 -0.6343 -0.9622 -0.7078
 4195SOL    HW213030   2.311   0.327   2.932  2.5947 -0.6985 -0.4152
 4196SOL     OW13031   4.339   5.845   4.352  0.1740 -0.4053 -0.4123
 4196SOL    HW113032   4.276   5.911   4.383 -0.2439 -0.0708 -1.8775
 4196SOL    HW213033   4.422   5.892   4.346  0.4530 -0.6987  0.9903
 4197SOL     OW13034   3.729   5.291   0.809 -0.0547  0.0912 -0.4323
 4197SOL    HW113035   3.700   5.280   0.899 -0.4780  0.8232 -0.4703
 4197SOL    HW213036   3.741   5.202   0.776 -2.1252 -0.2756 -0.3579
 4198SOL     OW13037   3.366   3.359   1.750 -0.3089  0.0310  0.1710
 4198SOL    HW113038   3.371   3.275   1.703 -2.7650 -1.0210  1.6052
 4198SOL    HW213039   3.282   3.396   1.723  0.1340  1.4075  0.6022
 4199SOL     OW13040   0.132   3.652   3.330  0.0608  0.0204  0.4584
 4199SOL    HW113041   0.121   3.675   3.423  1.0219  0.4123  0.4892
 4199SOL    HW213042   0.223   3.620   3.324 -0.5610 -1.7886 -0.0034
 4200SOL     OW13043   5.295   1.785   4.309  0.1094 -0.2689  0.3438
 4200SOL    HW113044   5.241   1.821   4.239  0.9210 -0.0023 -0.1544
 4200SOL    HW213045   5.341   1.711   4.269  1.8933  0.9211  0.0603
 4201SOL     OW13046   5.616   0.094   5.434 -0.6190 -0.2453  0.3967
 4201SOL    HW113047   5.533   0.109   5.480 -0.0980  0.6573  1.0909
 4201SOL    HW213048   5.654   0.018   5.477  0.0967  0.8922  1.8380
 4202SOL     OW13049   4.358   2.385   4.547 -0.0700  0.0891 -0.2038
 4202SOL    HW113050   4.393   2.419   4.629  0.6905 -1.8789  0.3257
 4202SOL    HW213051   4.280   2.335   4.572 -0.8227  0.8552 -0.9073
 4203SOL     OW13052   5.065   1.912   1.187  0.0839  0.0015  0.3682
 4203SOL    HW113053   5.069   1.936   1.094  2.1171  3.2191  1.1180
 4203SOL    HW213054   5.143   1.857   1.200 -0.4553 -0.8468  0.1448
 4204SOL     OW13055   3.952   1.827   5.817  0.1227 -0.0546  0.2638
 4204SOL    HW113056   4.017   1.770   5.859 -0.4469 -0.0424  1.1800
 4204SOL    HW213057   3.881   1.834   5.880  0.1994  1.7555  0.2022
 4205SOL     OW13058   4.935   0.251   1.812  0.3255  0.5265  0.1170
 4205SOL    HW113059   4.875   0.286   1.878  1.6146  0.9949  1.0685
 4205SOL    HW213060   4.964   0.167   1.847 -0.0028  0.1527 -0.4888
 4206SOL     OW13061   2.776   4.842   0.476  0.7427 -0.3977 -0.5141
 4206SOL    HW113062   2.729   4.923   0.454 -0.0512 -0.5216  0.6468
 4206SOL    HW213063   2.858   4.873   0.513  0.8887 -0.1475 -1.0286
 4207SOL     OW13064   2.221   2.425   4.561  0.4769 -0.1601 -0.4599
 4207SOL    HW113065   2.176   2.504   4.530  1.2523  0.8748  0.9302
 4207SOL    HW213066   2.305   2.456   4.593  0.9721 -1.6237 -0.2489
 4208SOL     OW13067   1.524   5.975   0.393 -0.2069 -0.0840  0.0878
 4208SOL    HW113068   1.563   6.063   0.398  0.0481 -0.2080  0.3720
 4208SOL    HW213069   1.475   5.975   0.311 -1.0772  0.6768  0.5886
 4209SOL     OW13070   3.109   5.204   6.000  0.3103 -0.2052  0.5371
 4209SOL    HW113071   3.063   5.155   5.932  1.4165  0.3412 -0.6488
 4209SOL    HW213072   3.082   5.295   5.987  2.8442  0.3931 -1.2389
 4210SOL     OW13073   0.733   3.280   6.003  0.0830 -0.2110 -0.2570
 4210SOL    HW113074   0.721   3.372   6.022  0.4321 -0.3222  0.5213
 4210SOL    HW213075   0.714   3.272   5.909 -0.4334  0.5534 -0.2200
 4211SOL     OW13076   3.628   3.752   1.838 -0.4353 -0.5141 -0.7236
 4211SOL    HW113077   3.546   3.774   1.794 -0.4665 -1.0165 -0.9233
 4211SOL    HW213078   3.630   3.657   1.838  0.1746 -0.5033 -0.7609
 4212SOL     OW13079   5.315   0.544   2.522 -0.2512 -0.5143  0.5476
 4212SOL    HW113080   5.371   0.580   2.454  0.1312 -0.4130  0.9145
 4212SOL    HW213081   5.227   0.574   2.499 -0.1389 -0.5547  0.0525
 4213SOL     OW13082   2.605   6.023   4.946 -0.0513  0.5248 -0.8229
 4213SOL    HW113083   2.656   6.075   4.884 -0.6510  0.0472 -1.7399
 4213SOL    HW213084   2.653   5.940   4.953  0.0799  0.6233 -0.5539
 4214SOL     OW13085   1.658   4.527   0.716  0.0976 -0.3540  0.4395
 4214SOL    HW113086   1.571   4.563   0.696 -0.3375 -2.2996 -1.6469
 4214SOL    HW213087   1.714   4.558   0.644  0.7753 -0.3466  0.9595
 4215SOL     OW13088   5.862   3.093   3.485  0.3082  0.7858 -0.3271
 4215SOL    HW113089   5.799   3.042   3.435  2.4621  0.0780 -2.4693
 4215SOL    HW213090   5.880   3.169   3.430  1.2237  1.0368  0.3008
 4216SOL     OW13091   5.698   4.040   2.573 -0.7382  0.1099 -0.0167
 4216SOL    HW113092   5.619   4.085   2.544 -0.0984  0.9419 -0.5277
 4216SOL    HW213093   5.675   3.948   2.571 -1.2873  0.2530 -1.4591
 4217SOL     OW13094   2.750   3.342   3.182 -0.3282 -0.1855 -0.5014
 4217SOL    HW113095   2.827   3.300   3.222 -0.9670 -0.7186  0.2098
 4217SOL    HW213096   2.676   3.304   3.229 -0.9988  0.7548 -0.7756
 4218SOL     OW13097   2.183   4.741   5.096 -0.1037  0.4956 -0.2996
 4218SOL    HW113098   2.272   4.733   5.131  0.0229 -0.2415 -0.7694
 4218SOL    HW213099   2.138   4.662   5.126  0.2169 -0.5399 -2.3304
 4219SOL     OW13100   5.645   3.410   3.213 -0.2031 -0.1029  0.4667
 4219SOL    HW113101   5.578   3.478   3.214 -2.5892 -2.3120  2.2637
 4219SOL    HW213102   5.649   3.381   3.121 -1.6950  0.1049  0.3198
 4220SOL     OW13103   5.043   1.756   2.214  0.5691 -0.6117 -0.2623
 4220SOL    HW113104   5.135   1.761   2.188  0.5219 -0.3382 -0.3793
 4220SOL    HW213105   4.997   1.808   2.148  0.6113  1.4126  1.1959
 4221SOL     OW13106   3.851   4.314   0.915 -0.1818 -0.4915 -0.0551
 4221SOL    HW113107   3.891   4.335   0.830 -1.7652  2.5243 -0.2086
 4221SOL    HW213108   3.756   4.319   0.898 -0.5681 -1.7909  1.5010
 4222SOL     OW13109   2.220   5.601   1.556  0.0390 -0.4173 -0.2564
 4222SOL    HW113110   2.226   5.519   1.604  1.1713  1.5449  3.2873
 4222SOL    HW213111   2.310   5.623   1.534 -0.3904 -0.9145 -2.9042
 4223SOL     OW13112   1.415   3.037   5.153 -0.2825 -0.1176  0.3077
 4223SOL    HW113113   1.415   3.040   5.057 -0.1314 -0.0127  0.3093
 4223SOL    HW213114   1.355   3.107   5.179  0.5453  0.6091  0.3022
 4224SOL     OW13115   1.587   1.667   4.002 -0.3189 -0.3660  0.3678
 4224SOL    HW113116   1.571   1.721   4.079 -0.9491 -0.1823  0.1169
 4224SOL    HW213117   1.655   1.606   4.028 -0.0992  0.0973  0.8760
 4225SOL     OW13118   4.102   4.115   5.427 -0.2108 -0.5622 -0.3498
 4225SOL    HW113119   4.163   4.165   5.481  0.6167 -1.6812 -0.1969
 4225SOL    HW213120   4.081   4.172   5.353 -0.4259  0.5350  0.5283
 4226SOL     OW13121   5.990   1.205   4.973 -0.3594  0.6354 -0.0076
 4226SOL    HW113122   6.056   1.198   5.042 -0.3254 -2.8332 -0.2215
 4226SOL    HW213123   5.913   1.243   5.017 -0.6401 -2.2761  2.3189
 4227SOL     OW13124   0.572   4.034   2.011 -0.3643 -0.2623  0.4307
 4227SOL    HW113125   0.609   3.975   1.946 -0.3538 -0.3048  0.4754
 4227SOL    HW213126   0.647   4.069   2.058 -0.3772 -0.3022  0.4811
 4228SOL     OW13127   3.473   1.786   4.562 -0.1453 -0.7351 -0.0480
 4228SOL    HW113128   3.385   1.823   4.556 -1.4692 -2.9861  2.8363
 4228SOL    HW213129   3.482   1.760   4.654  2.8997 -2.1186 -0.6060
 4229SOL     OW13130   5.828   2.862   3.894  0.0189 -0.6042  0.3345
 4229SOL    HW113131   5.733   2.865   3.877  0.1255  0.3342 -0.2244
 4229SOL    HW213132   5.861   2.797   3.832 -0.2503 -0.8576  0.4546
 4230SOL     OW13133   1.639   5.374   2.309 -0.1321  0.2895 -0.1838
 4230SOL    HW113134   1.595   5.372   2.394 -0.8642  0.9349 -0.5296
 4230SOL    HW213135   1.568   5.356   2.246 -0.0624  2.0516 -0.8110
 4231SOL     OW13136   2.541   5.009   4.181  0.1423  0.0797 -0.2384
 4231SOL    HW113137   2.601   5.081   4.201 -0.6403  0.6604  0.0635
 4231SOL    HW213138   2.543   5.002   4.086 -2.2944  2.7679 -0.6081
 4232SOL     OW13139   0.953   4.644   4.111 -0.1006  0.1361 -0.1300
 4232SOL    HW113140   0.896   4.567   4.118 -0.1991 -0.0877 -2.4026
 4232SOL    HW213141   0.912   4.698   4.043  2.0281  0.2559 -1.4125
 4233SOL     OW13142   4.803   5.452   1.571 -0.5616  0.1816  0.4839
 4233SOL    HW113143   4.827   5.371   1.527  0.0198  0.1450  0.8566
 4233SOL    HW213144   4.723   5.481   1.528 -0.5142 -0.3485  0.0428
 4234SOL     OW13145   1.985   0.963   5.284  0.5774  0.5328 -0.3498
 4234SOL    HW113146   1.971   0.894   5.349  1.0002  0.7328 -0.0382
 4234SOL    HW213147   2.080   0.979   5.287  0.6791  0.1931 -1.3780
 4235SOL     OW13148   2.091   4.437   1.992  0.2626  0.1569 -0.0402
 4235SOL    HW113149   2.166   4.382   2.013  0.8361  0.9459  0.0103
 4235SOL    HW213150   2.044   4.448   2.075  0.8735  0.8084  0.2312
 4236SOL     OW13151   6.041   5.560   3.713  0.2751 -0.7714  0.1155
 4236SOL    HW113152   5.984   5.544   3.788 -0.6717  0.8569 -0.2022
 4236SOL    HW213153   6.122   5.595   3.751 -0.0451 -0.3398  0.4080
 4237SOL     OW13154   4.290   4.686   2.244  0.6422 -0.3882  0.1188
 4237SOL    HW113155   4.345   4.741   2.189  1.1724 -2.2448 -1.3055
 4237SOL    HW213156   4.282   4.734   2.327  1.6710  1.4320 -0.7914
 4238SOL     OW13157   5.197   3.892   5.559 -0.8013  0.0575  1.1623
 4238SOL    HW113158   5.120   3.864   5.509  0.3891 -1.1115 -0.1035
 4238SOL    HW213159   5.266   3.830   5.534  0.7328  1.4390  1.7763
 4239SOL     OW13160   4.985   2.155   0.262 -0.2144 -0.4392 -0.4534
 4239SOL    HW113161   5.076   2.138   0.239 -0.6152 -2.8695 -0.5547
 4239SOL    HW213162   4.934   2.111   0.194 -1.4236 -1.0723  0.7924
 4240SOL     OW13163   2.364   3.385   4.608  0.4553 -0.6063 -0.9973
 4240SOL    HW113164   2.425   3.354   4.676 -0.5072  1.0365  0.7230
 4240SOL    HW213165   2.292   3.322   4.610  0.2448 -0.3588 -0.1664
 4241SOL     OW13166   5.734   4.223   0.182 -0.1661 -0.0925  0.0438
 4241SOL    HW113167   5.733   4.131   0.157  0.5694  0.2240 -1.2039
 4241SOL    HW213168   5.804   4.229   0.248 -0.2963 -0.4352  0.2166
 4242SOL     OW13169   4.706   4.132   4.476  0.0894 -0.6630 -0.6011
 4242SOL    HW113170   4.723   4.053   4.424 -0.8591 -1.9460  0.9427
 4242SOL    HW213171   4.792   4.160   4.507  0.3042 -2.0355  0.1161
 4243SOL     OW13172   4.216   0.050   4.568 -0.0099  0.4439 -0.0072
 4243SOL    HW113173   4.125   0.073   4.585 -1.0436 -1.9008 -1.7853
 4243SOL    HW213174   4.239   0.100   4.490  0.2643  1.0443  0.4479
 4244SOL     OW13175   1.990   1.340   2.494  0.2129 -0.3105 -0.3800
 4244SOL    HW113176   2.083   1.333   2.516 -0.2089  0.5730  1.9641
 4244SOL    HW213177   1.961   1.249   2.484  0.9268 -0.6908  0.7785
 4245SOL     OW13178   6.028   0.622   2.777  0.1082 -0.3498 -0.2148
 4245SOL    HW113179   6.069   0.679   2.841 -1.6481  2.6686 -1.5534
 4245SOL    HW213180   5.987   0.553   2.829  1.1479  0.3557  1.6335
 4246SOL     OW13181   0.501   1.488   0.225 -0.5509  0.2657 -0.2823
 4246SOL    HW113182   0.575   1.530   0.182  0.6386 -0.4851  0.9491
 4246SOL    HW213183   0.427   1.546   0.208  1.1441  3.3229  1.9607
 4247SOL     OW13184   3.819   3.405   4.470  0.7131 -0.2877 -0.0981
 4247SOL    HW113185   3.735   3.391   4.425  0.0099  1.2179  0.7007
 4247SOL    HW213186   3.880   3.349   4.422 -0.7700 -1.5755 -0.5881
 4248SOL     OW13187   4.821   3.770   2.646  0.2682 -0.1756  0.1229
 4248SOL    HW113188   4.765   3.728   2.711 -0.6960  0.7103 -0.1194
 4248SOL    HW213189   4.910   3.756   2.679 -0.0726 -1.5540  0.5372
 4249SOL     OW13190   0.055   1.940   1.864 -0.3795 -0.1582 -0.7022
 4249SOL    HW113191   0.084   1.933   1.773 -0.4279 -1.0271 -0.6566
 4249SOL    HW213192   0.086   1.859   1.905 -0.7232  0.0370 -0.0523
 4250SOL     OW13193   0.612   2.284   3.416 -0.4563 -0.0626  0.0244
 4250SOL    HW113194   0.531   2.323   3.382  0.0136  0.1490 -0.9011
 4250SOL    HW213195   0.639   2.223   3.347  0.1343 -0.1785  0.3552
 4251SOL     OW13196   6.110   3.824   1.491  0.3311 -0.4336  0.3922
 4251SOL    HW113197   6.066   3.757   1.439 -1.2412 -1.2248  2.5534
 4251SOL    HW213198   6.053   3.900   1.485  0.6648 -0.1995  0.1688
 4252SOL     OW13199   3.832   2.125   1.107  0.3732  0.5420 -0.3012
 4252SOL    HW113200   3.896   2.135   1.036 -0.2818 -1.3481 -1.2301
 4252SOL    HW213201   3.750   2.157   1.070  0.5025  1.8519  0.4854
 4253SOL     OW13202   6.128   5.218   0.921 -0.2021 -0.4202  0.1509
 4253SOL    HW113203   6.177   5.226   0.839  0.8947 -0.9523  0.7264
 4253SOL    HW213204   6.141   5.301   0.965 -0.2124 -0.3899  0.0960
 4254SOL     OW13205   2.513   0.186   0.932  0.2231  0.3026 -0.1722
 4254SOL    HW113206   2.418   0.185   0.922  0.2347 -2.4744 -0.9683
 4254SOL    HW213207   2.540   0.272   0.900 -1.8536  0.3056 -2.1781
 4255SOL     OW13208   6.051   2.593   0.075 -0.1572 -0.0474 -0.1404
 4255SOL    HW113209   6.073   2.686   0.086  0.8399 -0.2654 -0.2075
 4255SOL    HW213210   5.968   2.594   0.026 -0.2306  0.8046 -0.0149
 4256SOL     OW13211   0.442   4.316   2.630 -0.5878 -0.0200  0.2179
 4256SOL    HW113212   0.351   4.341   2.616 -0.6449 -0.2846  0.1042
 4256SOL    HW213213   0.489   4.353   2.556 -0.7348 -0.5779 -0.1628
 4257SOL     OW13214   5.667   0.763   0.861  0.0678  0.6862 -0.1742
 4257SOL    HW113215   5.716   0.763   0.943 -1.1734 -0.5413  0.6006
 4257SOL    HW213216   5.734   0.757   0.793  1.1793  2.6060  0.6556
 4258SOL     OW13217   1.772   0.056   5.794 -0.0815 -0.0473 -0.0126
 4258SOL    HW113218   1.701   0.019   5.847  0.0276 -2.1281 -1.1989
 4258SOL    HW213219   1.796  -0.015   5.734  2.7293  0.7295  0.0748
 4259SOL     OW13220   3.764   3.454   1.560 -0.2283  0.3218 -0.2332
 4259SOL    HW113221   3.807   3.371   1.580 -1.4753 -0.3082 -0.0379
 4259SOL    HW213222   3.764   3.502   1.643  1.1331  0.8596 -0.5082
 4260SOL     OW13223   0.258   5.008   3.449 -1.0206 -0.1788  0.2074
 4260SOL    HW113224   0.168   5.029   3.426 -1.7238 -2.0862  0.9732
 4260SOL    HW213225   0.272   4.920   3.412 -0.0425 -0.6009  1.5058
 4261SOL     OW13226   2.057   1.900   4.945  0.8868 -0.2286 -0.0518
 4261SOL    HW113227   2.021   1.981   4.979  1.5928 -0.0827  0.3706
 4261SOL    HW213228   2.030   1.833   5.007 -0.6846 -0.5404 -1.0029
 4262SOL     OW13229   3.775   4.212   0.003 -0.3642  0.0004  0.7774
 4262SOL    HW113230   3.866   4.212   0.034 -1.1342 -1.3344  3.3240
 4262SOL    HW213231   3.782   4.201  -0.092  2.1119 -0.3618  0.9239
 4263SOL     OW13232   4.767   0.013   1.083 -0.0565 -0.3491  0.5493
 4263SOL    HW113233   4.805  -0.073   1.098 -1.2601 -0.5945  2.4374
 4263SOL    HW213234   4.833   0.075   1.116 -0.0189 -0.6204  0.9794
 4264SOL     OW13235   2.266   2.109   5.852 -0.4595 -0.1585  0.2074
 4264SOL    HW113236   2.249   2.190   5.900 -1.3656 -0.2734  0.0917
 4264SOL    HW213237   2.301   2.139   5.767  0.7841  0.0515  0.7624
 4265SOL     OW13238   2.007   1.790   1.789  0.5985  0.2406  0.2728
 4265SOL    HW113239   1.915   1.815   1.798  0.6781  0.9555 -0.7517
 4265SOL    HW213240   2.030   1.814   1.700  1.5538 -0.7285  0.2350
 4266SOL     OW13241   3.870   3.981   0.161  0.1091  0.0179 -0.0698
 4266SOL    HW113242   3.802   4.035   0.121  1.1218  0.1202 -1.7818
 4266SOL    HW213243   3.936   3.971   0.092  0.6870 -2.1036  0.6978
 4267SOL     OW13244   1.268   2.089   5.642  0.3973 -0.5204  0.3873
 4267SOL    HW113245   1.330   2.159   5.664 -1.3049  0.9788  0.6445
 4267SOL    HW213246   1.292   2.016   5.700  1.5773  0.1935  0.8301
 4268SOL     OW13247   0.905   0.155   2.595  0.0220  0.1395  0.1871
 4268SOL    HW113248   0.881   0.080   2.650  0.4327  0.3137  0.6078
 4268SOL    HW213249   0.840   0.222   2.618 -1.4566 -0.6446 -1.4718
 4269SOL     OW13250   6.085   1.793   5.177  0.4352 -0.6356  0.0284
 4269SOL    HW113251   6.144   1.847   5.124 -0.6175  1.9753  1.3101
 4269SOL    HW213252   6.057   1.851   5.248 -2.8380 -2.0500  0.0684
 4270SOL     OW13253   4.562   0.016   1.482 -0.0220 -0.1293 -0.3394
 4270SOL    HW113254   4.569   0.062   1.398  0.9019 -1.1873 -0.8717
 4270SOL    HW213255   4.548  -0.075   1.457  0.8764 -0.5577  0.6500
 4271SOL     OW13256   5.304   5.537   2.068 -0.3893  0.3638 -0.3986
 4271SOL    HW113257   5.270   5.451   2.044 -1.2423  1.0946 -1.9028
 4271SOL    HW213258   5.376   5.518   2.129  0.0958 -1.4634 -1.4618
 4272SOL     OW13259   3.373   1.639   0.933  0.1843  0.4234  0.0471
 4272SOL    HW113260   3.355   1.711   0.994 -0.3120  0.3555 -0.0159
 4272SOL    HW213261   3.327   1.663   0.853 -1.1322 -0.6013  0.4589
 4273SOL     OW13262   4.467   5.865   0.148 -0.0545 -0.3021 -0.6933
 4273SOL    HW113263   4.548   5.841   0.194  0.0243  0.3763 -0.4670
 4273SOL    HW213264   4.488   5.947   0.104 -0.6999  0.0080 -0.4263
 4274SOL     OW13265   3.120   1.337   6.016  0.0457 -0.2255 -0.6565
 4274SOL    HW113266   3.033   1.369   5.990 -0.2144  0.9550  1.4771
 4274SOL    HW213267   3.147   1.281   5.943 -2.7386 -1.1022 -1.1400
 4275SOL     OW13268   3.198   2.457   5.154  0.0530  0.7439 -0.0957
 4275SOL    HW113269   3.231   2.443   5.242  0.8835  0.2731 -0.4627
 4275SOL    HW213270   3.112   2.497   5.166 -0.7418 -1.1208  0.9759
 4276SOL     OW13271   4.601   2.186   2.949  0.0935 -0.1501  0.3132
 4276SOL    HW113272   4.525   2.240   2.926  0.5114  0.2303 -0.1903
 4276SOL    HW213273   4.672   2.220   2.895  0.3314 -1.2974 -0.1110
 4277SOL     OW13274   6.060   1.068   3.017 -0.0771 -0.6953 -0.5042
 4277SOL    HW113275   6.004   1.130   3.064 -0.4377 -1.6022  0.2951
 4277SOL    HW213276   6.139   1.117   2.997 -0.9975  0.5044 -1.3255
 4278SOL     OW13277   2.738   2.508   4.487  0.3815 -0.0021 -0.1527
 4278SOL    HW113278   2.736   2.417   4.457 -1.3632  0.2651 -0.9775
 4278SOL    HW213279   2.712   2.558   4.410 -0.1298  1.0685  0.6974
 4279SOL     OW13280   4.009   3.116   0.635 -0.1554 -0.1553  0.0251
 4279SOL    HW113281   3.962   3.119   0.718 -3.4543 -1.2467 -1.6316
 4279SOL    HW213282   4.001   3.204   0.599 -2.4131 -0.7004 -0.9235
 4280SOL     OW13283   2.627   0.776   2.068 -0.7939 -1.0296 -0.5368
 4280SOL    HW113284   2.608   0.775   2.162 -0.4468  0.3550 -0.4289
 4280SOL    HW213285   2.554   0.822   2.028  0.1800  0.5166 -0.6301
 4281SOL     OW13286   1.676   2.857   4.001  0.3175 -0.5102 -0.5039
 4281SOL    HW113287   1.750   2.917   4.001 -0.0947  0.0586  1.4342
 4281SOL    HW213288   1.621   2.886   4.073 -1.8090 -0.9404 -1.8672
 4282SOL     OW13289   4.607   4.910   1.010  0.1759 -0.0507 -0.7673
 4282SOL    HW113290   4.695   4.902   1.048  0.6711 -1.4395 -2.0618
 4282SOL    HW213291   4.548   4.916   1.085  1.0789 -2.8474  0.3113
 4283SOL     OW13292   0.075   2.298   1.671  0.0020 -0.1763 -0.2992
 4283SOL    HW113293   0.018   2.230   1.634 -1.2765  1.1418 -0.8531
 4283SOL    HW213294   0.151   2.300   1.612 -0.0385 -0.9811 -0.3909
 4284SOL     OW13295   1.343   2.468   5.805 -0.0931  0.1461  0.3221
 4284SOL    HW113296   1.384   2.383   5.819 -0.3026  0.1339  0.9009
 4284SOL    HW213297   1.335   2.505   5.893 -0.1657  0.6872  0.0901
 4285SOL     OW13298   3.640   2.155   1.985 -0.1774 -0.1327 -0.4254
 4285SOL    HW113299   3.731   2.174   1.961 -0.7428  1.9632 -1.1488
 4285SOL    HW213300   3.647   2.088   2.053  1.7264 -2.8833 -3.0354
 4286SOL     OW13301   2.799   2.701   4.946 -0.2368  0.4062 -0.4659
 4286SOL    HW113302   2.777   2.783   4.990  1.3364  0.1532  0.8917
 4286SOL    HW213303   2.751   2.634   4.994  0.2670  0.2967 -0.1096
 4287SOL     OW13304   2.671   5.271   0.032  0.2336  0.2107 -0.4433
 4287SOL    HW113305   2.653   5.340  -0.031 -2.1086 -0.2612 -0.3649
 4287SOL    HW213306   2.663   5.190  -0.018 -2.4772 -0.2153  0.5440
 4288SOL     OW13307   2.256   0.259   0.902 -0.3658  0.1108  1.2411
 4288SOL    HW113308   2.212   0.232   0.821  0.4858  0.4024  0.6727
 4288SOL    HW213309   2.185   0.262   0.967 -0.9066 -1.0190  0.7375
 4289SOL     OW13310   4.413   4.663   1.817 -0.0938 -0.1704 -0.5420
 4289SOL    HW113311   4.464   4.608   1.877  0.4738  0.6262 -0.2812
 4289SOL    HW213312   4.325   4.625   1.818 -0.5569  0.7664  2.0598
 4290SOL     OW13313   1.261   0.234   4.517 -0.3815  0.7600  0.1986
 4290SOL    HW113314   1.305   0.302   4.567  1.8254  0.6922 -1.5005
 4290SOL    HW213315   1.330   0.196   4.462 -2.0781 -1.1038 -0.7772
 4291SOL     OW13316   1.012   5.479   0.624 -0.6111  0.1427 -0.1323
 4291SOL    HW113317   1.030   5.386   0.631 -2.7356 -0.2176  1.3005
 4291SOL    HW213318   0.974   5.490   0.537  0.6634 -0.1029 -0.7429
 4292SOL     OW13319   5.353   1.387   2.285 -0.4818  0.6883 -0.2994
 4292SOL    HW113320   5.434   1.338   2.270 -0.8324  0.0665 -0.2165
 4292SOL    HW213321   5.318   1.403   2.198 -1.2422 -0.7451 -0.3069
 4293SOL     OW13322   4.667   2.888   0.478  0.1075 -0.5106  0.1001
 4293SOL    HW113323   4.620   2.873   0.559  0.2248  1.2819  0.5520
 4293SOL    HW213324   4.611   2.852   0.410 -0.8464 -0.4227  0.8237
 4294SOL     OW13325   3.072   1.931   1.589 -0.2525  0.3893 -0.1343
 4294SOL    HW113326   3.081   2.025   1.605 -0.5474  0.3566  0.2209
 4294SOL    HW213327   3.023   1.926   1.507  0.9590  0.5490 -0.9007
 4295SOL     OW13328   0.034   4.525   2.455 -0.8430 -0.5167 -0.4224
 4295SOL    HW113329  -0.051   4.496   2.488 -0.5071  0.0938  1.0739
 4295SOL    HW213330   0.053   4.604   2.506  0.1126  0.0109 -1.5418
 4296SOL     OW13331   4.413   5.131   5.293  0.3164 -0.2817 -0.6704
 4296SOL    HW113332   4.331   5.158   5.335 -0.1150  0.5128 -1.9518
 4296SOL    HW213333   4.481   5.155   5.356 -0.5078 -3.6268  1.7527
 4297SOL     OW13334   0.743   2.822   5.009  0.4329  0.4102  0.1609
 4297SOL    HW113335   0.705   2.796   5.093 -0.7007 -0.8477 -0.7196
 4297SOL    HW213336   0.810   2.756   4.991  0.0152  0.1321 -0.3812
 4298SOL     OW13337   3.988   4.433   2.308 -0.0425 -0.4300  0.5087
 4298SOL    HW113338   3.959   4.386   2.386  0.4542  0.2100  1.0938
 4298SOL    HW213339   3.954   4.382   2.235  0.3022 -1.5837  1.1243
 4299SOL     OW13340   5.585   0.586   5.952 -0.0234  0.4494 -0.2074
 4299SOL    HW113341   5.666   0.636   5.952  0.1575  0.1802 -1.0934
 4299SOL    HW213342   5.571   0.563   5.860 -1.2822  0.7758 -0.1146
 4300SOL     OW13343   0.542   2.504   5.395  0.1308 -0.4321 -0.2295
 4300SOL    HW113344   0.599   2.462   5.460  0.5857  0.2619 -0.1663
 4300SOL    HW213345   0.453   2.482   5.423  0.0680  2.7208  2.7334
 4301SOL     OW13346   4.830   5.108   1.622 -0.2585  0.8119 -0.6248
 4301SOL    HW113347   4.881   5.128   1.543 -0.6417 -0.3803 -1.2038
 4301SOL    HW213348   4.740   5.097   1.590 -0.6327  1.4853  0.1702
 4302SOL     OW13349   5.617   1.678   1.586 -0.6628 -0.2018 -0.1741
 4302SOL    HW113350   5.654   1.753   1.631  0.7936 -0.6840 -0.5377
 4302SOL    HW213351   5.563   1.715   1.516 -0.2924  0.5072 -0.0834
 4303SOL     OW13352   2.933   3.612   3.433  0.0321 -0.3057 -0.1293
 4303SOL    HW113353   3.009   3.576   3.386 -1.1630 -1.0710 -1.5406
 4303SOL    HW213354   2.942   3.707   3.422  0.2361 -0.4349 -1.1983
 4304SOL     OW13355   4.189   1.994   5.122 -0.4466  0.4651 -0.5382
 4304SOL    HW113356   4.247   1.920   5.141 -1.2247 -0.1487 -0.5016
 4304SOL    HW213357   4.102   1.955   5.116 -0.7111  1.1871 -1.7772
 4305SOL     OW13358   6.006   2.726   4.067  0.3879  0.5957 -0.0793
 4305SOL    HW113359   6.051   2.686   3.992  1.5271  1.4474  0.1241
 4305SOL    HW213360   5.914   2.729   4.041  0.8782  1.7208 -1.8311
 4306SOL     OW13361   2.950   5.548   1.239  0.2314  0.5311  0.2371
 4306SOL    HW113362   2.965   5.541   1.145 -1.3060 -0.0592  0.0174
 4306SOL    HW213363   3.011   5.484   1.277  1.2070  1.1199 -0.3042
 4307SOL     OW13364   5.135   2.423   3.394 -0.1573 -0.2369  0.4402
 4307SOL    HW113365   5.148   2.498   3.335  0.5566 -0.2738  0.5470
 4307SOL    HW213366   5.077   2.457   3.462  0.5261  0.3575  0.7345
 4308SOL     OW13367   2.173   4.219   2.366  0.1357  0.2301  0.0030
 4308SOL    HW113368   2.087   4.200   2.404  0.5360 -1.8218 -0.0040
 4308SOL    HW213369   2.233   4.214   2.441  0.4924 -0.4638 -0.3170
 4309SOL     OW13370   4.349   4.947   2.113 -0.4036 -0.4261 -0.4872
 4309SOL    HW113371   4.345   5.024   2.169  2.5624  0.4261 -1.2482
 4309SOL    HW213372   4.424   4.897   2.147 -0.6661 -1.6362 -1.6047
 4310SOL     OW13373   1.326   4.491   5.372 -0.3814 -0.1012 -0.7830
 4310SOL    HW113374   1.419   4.491   5.395 -0.7223 -0.8877  0.7516
 4310SOL    HW213375   1.288   4.559   5.428 -0.6295  0.7252 -1.9303
 4311SOL     OW13376   4.388   3.787   3.992  0.1824 -0.2024  0.0619
 4311SOL    HW113377   4.434   3.733   4.056  1.1965  1.4312  0.7883
 4311SOL    HW213378   4.435   3.871   3.993 -0.1330  0.0928 -2.3926
 4312SOL     OW13379   3.388   3.491   3.029  0.3412 -0.1211  0.4583
 4312SOL    HW113380   3.464   3.549   3.036  1.2291 -0.9736 -1.6217
 4312SOL    HW213381   3.422   3.404   3.047 -0.2878 -0.4307  0.1903
 4313SOL     OW13382   4.957   2.793   4.812 -0.3123  0.4378 -0.4611
 4313SOL    HW113383   4.966   2.697   4.818 -2.2897  0.2165 -0.5687
 4313SOL    HW213384   4.870   2.811   4.846  0.6411  2.4160  1.1544
 4314SOL     OW13385   4.176   4.526   1.281 -0.2947 -0.0290 -0.1108
 4314SOL    HW113386   4.174   4.470   1.203  0.5539  0.9146 -0.8447
 4314SOL    HW213387   4.123   4.602   1.256  2.9411  2.0892 -1.3035
 4315SOL     OW13388   3.848   4.835   1.731 -0.1450 -0.1220 -0.2716
 4315SOL    HW113389   3.832   4.743   1.711  0.4999  0.0329 -1.6642
 4315SOL    HW213390   3.837   4.880   1.647  0.2925  0.9667  0.2314
 4316SOL     OW13391   3.626   3.706   4.854  0.1307  0.3405  0.3682
 4316SOL    HW113392   3.633   3.675   4.764  0.6759  0.8376  0.2394
 4316SOL    HW213393   3.649   3.798   4.850  0.3574  0.3183  1.0504
 4317SOL     OW13394   2.682   0.032   1.954  0.0881 -0.4088 -0.5573
 4317SOL    HW113395   2.718   0.111   1.914  0.2967  0.1076  0.6072
 4317SOL    HW213396   2.682  -0.033   1.884 -0.0353  0.6020 -1.5150
 4318SOL     OW13397   3.823   5.243   3.177 -0.3615 -0.1910  0.2056
 4318SOL    HW113398   3.810   5.198   3.093  2.6087 -2.0582  0.5976
 4318SOL    HW213399   3.892   5.307   3.159  0.4625 -0.7706  1.2522
 4319SOL     OW13400   0.643   2.342   4.410 -0.2351  0.8530 -0.4474
 4319SOL    HW113401   0.688   2.413   4.364 -0.5221  1.2635 -0.1082
 4319SOL    HW213402   0.551   2.351   4.384 -0.8940  2.7234  2.1536
 4320SOL     OW13403   5.528   5.018   1.825 -0.4111  0.2842 -0.7006
 4320SOL    HW113404   5.487   4.966   1.893  0.1925 -0.2909 -0.7650
 4320SOL    HW213405   5.546   5.103   1.866 -0.0083 -0.0754 -0.1226
 4321SOL     OW13406   3.147   4.278   0.074  0.1942  0.4148 -0.5018
 4321SOL    HW113407   3.175   4.187   0.079 -0.1048  0.3392 -0.0492
 4321SOL    HW213408   3.115   4.289  -0.015 -1.6507 -0.5085 -0.0108
 4322SOL     OW13409   5.167   0.017   1.114  0.3613 -0.1958 -0.2415
 4322SOL    HW113410   5.108  -0.008   1.042 -0.2365 -1.1727  0.5610
 4322SOL    HW213411   5.158   0.112   1.121 -2.1815 -0.4370  0.7371
 4323SOL     OW13412   2.329   3.671   1.865  0.1293 -0.6800  0.4212
 4323SOL    HW113413   2.333   3.581   1.833 -1.1143 -1.9666  3.5127
 4323SOL    HW213414   2.378   3.669   1.948 -1.8765  0.8876  1.7287
 4324SOL     OW13415   2.360   5.040   0.949  0.0127  0.0172 -0.7893
 4324SOL    HW113416   2.352   5.126   0.990 -0.5420 -1.4423  2.4275
 4324SOL    HW213417   2.451   5.036   0.919  0.3983  1.2756  0.1303
 4325SOL     OW13418   1.479   4.637   0.469 -0.3317  0.1120 -0.1244
 4325SOL    HW113419   1.435   4.663   0.388  0.5941  1.6966 -0.1550
 4325SOL    HW213420   1.526   4.557   0.445 -1.4195 -0.3825 -0.6675
 4326SOL     OW13421   3.517   3.483   4.985 -0.5108  0.5620  0.1458
 4326SOL    HW113422   3.538   3.574   4.967 -2.2643  1.1105  0.6480
 4326SOL    HW213423   3.554   3.434   4.912  0.9381  1.5930  0.1538
 4327SOL     OW13424   6.041   0.391   5.712 -0.6293  0.0302  0.1539
 4327SOL    HW113425   5.982   0.315   5.723 -1.9060  0.6647 -1.8373
 4327SOL    HW213426   6.114   0.357   5.660 -1.1695  0.1181 -0.6826
 4328SOL     OW13427   1.095   0.343   0.794  0.3710 -0.1478 -0.4901
 4328SOL    HW113428   1.024   0.283   0.818  0.4393 -1.1763 -2.6583
 4328SOL    HW213429   1.077   0.367   0.704  1.3799  1.6731 -0.2571
 4329SOL     OW13430   2.961   5.084   2.901  0.1378  0.3953  0.2684
 4329SOL    HW113431   2.941   5.051   2.814  0.2405 -3.7343  1.5915
 4329SOL    HW213432   3.048   5.124   2.893  0.3974 -0.4412 -1.4099
 4330SOL     OW13433   2.866   4.394   4.651  0.5889  0.5303  0.4520
 4330SOL    HW113434   2.847   4.375   4.743  1.1641 -1.5929  0.2002
 4330SOL    HW213435   2.816   4.473   4.632 -1.4832 -0.3180  1.9430
 4331SOL     OW13436   3.056   3.807   5.623 -0.2567 -0.1104  0.0015
 4331SOL    HW113437   3.144   3.802   5.660 -0.4080  1.4917  0.6268
 4331SOL    HW213438   3.066   3.859   5.543 -0.8665  1.4202  0.8960
 4332SOL     OW13439   4.018   0.580   4.368  0.2289  0.1581  0.8508
 4332SOL    HW113440   3.957   0.652   4.357 -1.1190 -1.2274 -1.8267
 4332SOL    HW213441   3.966   0.511   4.410  0.8150 -0.0868  1.1894
 4333SOL     OW13442   5.810   5.227   1.649  0.1427 -0.5606  0.0676
 4333SOL    HW113443   5.803   5.132   1.661 -2.2322 -0.2922  1.4929
 4333SOL    HW213444   5.869   5.255   1.719  0.3863 -0.9262  0.0107
 4334SOL     OW13445   5.433   4.663   1.872  0.2877 -0.3574 -0.5094
 4334SOL    HW113446   5.524   4.636   1.858  0.2013 -0.6179 -0.5541
 4334SOL    HW213447   5.441   4.753   1.905  0.6732 -1.1826  1.7957
 4335SOL     OW13448   4.420   3.527   0.404  0.6659 -0.3941 -0.4887
 4335SOL    HW113449   4.474   3.449   0.416  0.8658 -0.6090 -2.4769
 4335SOL    HW213450   4.336   3.493   0.373  0.2860  0.1015 -0.0071
 4336SOL     OW13451   4.168   1.999   3.224  0.1136 -0.0449 -0.6945
 4336SOL    HW113452   4.176   2.028   3.315 -1.1909  0.6753 -0.7804
 4336SOL    HW213453   4.255   2.012   3.186  0.3404  0.8435  0.1058
 4337SOL     OW13454   2.336   5.365   3.484 -1.2225 -0.1332 -0.0330
 4337SOL    HW113455   2.336   5.435   3.419 -0.7431 -0.5617 -0.5045
 4337SOL    HW213456   2.426   5.362   3.516 -0.5504 -2.1503 -1.8238
 4338SOL     OW13457   6.065   0.038   0.941  0.1266 -0.2550 -0.5246
 4338SOL    HW113458   6.000  -0.017   0.897  0.4751 -0.9908 -0.1298
 4338SOL    HW213459   6.145  -0.013   0.938 -0.0326 -0.7471  1.7677
 4339SOL     OW13460   4.590   5.153   3.375 -0.3551  0.0200  0.5306
 4339SOL    HW113461   4.532   5.161   3.450  0.4466 -0.4033  1.2153
 4339SOL    HW213462   4.653   5.086   3.401  0.8463  0.9442  0.0918
 4340SOL     OW13463   0.486   2.640   3.335 -0.2937 -0.3310  0.8545
 4340SOL    HW113464   0.475   2.608   3.424 -1.5181  0.8287  1.1691
 4340SOL    HW213465   0.396   2.654   3.304  0.1369  0.4693 -0.0944
 4341SOL     OW13466   4.864   0.576   1.396  0.1524 -0.0349  0.5887
 4341SOL    HW113467   4.848   0.499   1.449  1.3736 -0.3854  0.4830
 4341SOL    HW213468   4.929   0.626   1.445  2.3615 -1.0339 -1.1317
 4342SOL     OW13469   2.237   1.693   5.347 -0.6696  0.0691 -0.2154
 4342SOL    HW113470   2.313   1.744   5.320  0.5432 -1.7640 -0.4585
 4342SOL    HW213471   2.272   1.606   5.365 -2.3872 -0.2987  1.6893
 4343SOL     OW13472   1.489   3.277   2.414  0.5151 -1.1881 -0.5517
 4343SOL    HW113473   1.507   3.271   2.508  0.7590 -0.5394 -0.5563
 4343SOL    HW213474   1.400   3.243   2.405  0.6231 -1.6015 -0.1388
 4344SOL     OW13475   1.843   1.183   2.152  0.2579  0.2286 -0.1090
 4344SOL    HW113476   1.774   1.191   2.217  1.4934 -0.5837  1.3580
 4344SOL    HW213477   1.798   1.154   2.072 -1.1620  0.3843  0.6149
 4345SOL     OW13478   2.590   1.898   3.630  0.4491  0.4131  0.6095
 4345SOL    HW113479   2.664   1.837   3.639  0.2985  0.3145  1.1997
 4345SOL    HW213480   2.620   1.962   3.566  0.8244  0.0382  0.4020
 4346SOL     OW13481   2.109   1.558   2.667  0.5227 -0.2305  0.5528
 4346SOL    HW113482   2.176   1.605   2.618  0.1942 -0.1935  0.1404
 4346SOL    HW213483   2.132   1.466   2.657  0.4373 -0.2240  0.3061
 4347SOL     OW13484   3.507   1.996   1.742 -0.3361 -0.4801 -0.3422
 4347SOL    HW113485   3.585   1.996   1.797 -0.0129  1.0571 -0.7635
 4347SOL    HW213486   3.539   2.002   1.653 -0.9247  2.0179 -0.4373
 4348SOL     OW13487   5.416   2.100   1.466 -0.3360 -0.1771 -0.5605
 4348SOL    HW113488   5.485   2.114   1.531 -0.8325  0.1810 -0.0955
 4348SOL    HW213489   5.383   2.188   1.448 -0.1483 -0.2672 -1.3704
 4349SOL     OW13490   1.965   3.768   0.528  0.2227 -0.2160  0.0563
 4349SOL    HW113491   2.048   3.769   0.575 -0.5986 -3.2374  1.8388
 4349SOL    HW213492   1.962   3.683   0.485 -0.9955  0.7478 -1.9239
 4350SOL     OW13493   2.090   3.293   5.230  0.7485  0.2775  0.0516
 4350SOL    HW113494   2.039   3.262   5.305 -0.0754  1.5840  0.0492
 4350SOL    HW213495   2.089   3.388   5.237  0.1918  0.4541 -1.9256
 4351SOL     OW13496   4.931   5.365   5.687 -0.0074 -0.2311 -0.1365
 4351SOL    HW113497   4.941   5.412   5.770  0.3817  0.6478 -0.6632
 4351SOL    HW213498   4.923   5.273   5.712  2.7801 -0.3063  0.7504
 4352SOL     OW13499   0.699   1.240   2.753 -0.0720 -0.8695  0.2846
 4352SOL    HW113500   0.649   1.308   2.708  0.1301 -0.6581  0.3745
 4352SOL    HW213501   0.782   1.236   2.705  0.4533 -0.1029  1.0854
 4353SOL     OW13502   0.218   3.759   4.710 -0.2478 -0.0076 -0.1060
 4353SOL    HW113503   0.128   3.778   4.681 -0.9953  2.8074  3.2661
 4353SOL    HW213504   0.273   3.813   4.652 -0.9805  0.2644 -0.5713
 4354SOL     OW13505   3.951   1.192   0.008  0.1131  0.4734 -0.0209
 4354SOL    HW113506   3.898   1.244   0.068 -1.3206  0.2140 -1.0288
 4354SOL    HW213507   3.995   1.128   0.065 -0.1307  1.1189  0.9116
 4355SOL     OW13508   0.901   3.559   1.350  0.2642 -0.3910  0.0169
 4355SOL    HW113509   0.882   3.574   1.443 -3.6479 -0.0807 -0.6803
 4355SOL    HW213510   0.912   3.464   1.343  1.1834 -0.3697  0.8210
 4356SOL     OW13511   3.948   2.096   1.992  0.2592  0.7336  0.3746
 4356SOL    HW113512   3.988   2.061   2.072  0.7726  1.3999  0.4162
 4356SOL    HW213513   4.021   2.128   1.940 -0.2071  1.9418  0.4314
 4357SOL     OW13514   1.122   2.274   2.337 -0.1650 -0.3357 -0.0243
 4357SOL    HW113515   1.217   2.275   2.326 -0.0344  2.5168  0.6164
 4357SOL    HW213516   1.108   2.276   2.431 -0.8229  0.5364 -0.1281
 4358SOL     OW13517   2.625   1.569   2.511  0.0728  0.5764 -0.0795
 4358SOL    HW113518   2.550   1.510   2.508  0.2309  0.3748 -0.0724
 4358SOL    HW213519   2.622   1.615   2.427 -1.1772  1.9656  0.6833
 4359SOL     OW13520   0.828   4.574   2.204 -0.0803 -0.1739 -0.5047
 4359SOL    HW113521   0.917   4.569   2.239 -1.0946 -2.8735  2.1136
 4359SOL    HW213522   0.825   4.508   2.136  0.1908  0.7714 -1.4637
 4360SOL     OW13523   2.838   2.782   5.313  0.1539  0.4234  0.0032
 4360SOL    HW113524   2.784   2.744   5.382  1.2894 -1.4777 -0.1036
 4360SOL    HW213525   2.784   2.854   5.278 -2.2565 -1.2478  0.0058
 4361SOL     OW13526   3.568   2.998   0.059  0.0579  0.5488  0.3251
 4361SOL    HW113527   3.489   2.967   0.015  0.6323 -2.2717  1.0947
 4361SOL    HW213528   3.543   3.002   0.151  0.5843  0.4693  0.4706
 4362SOL     OW13529   1.033   0.523   1.645  0.2555 -0.2562  0.2163
 4362SOL    HW113530   1.059   0.436   1.615 -1.1683 -0.5396 -0.2534
 4362SOL    HW213531   1.114   0.562   1.676  1.2200 -1.1110 -1.1296
 4363SOL     OW13532   2.529   3.958   2.091 -0.0183  0.8293 -0.4290
 4363SOL    HW113533   2.624   3.947   2.090 -0.1357 -0.5923  0.7956
 4363SOL    HW213534   2.508   3.989   2.003  1.4335 -0.1444 -1.1622
 4364SOL     OW13535   1.210   4.457   3.052  0.1556 -0.2585  0.1621
 4364SOL    HW113536   1.262   4.500   3.120  0.5998  2.1799 -1.5688
 4364SOL    HW213537   1.163   4.387   3.097  3.3256 -1.2414  2.2006
 4365SOL     OW13538   4.218   3.351   0.662  0.1521 -0.1926 -0.1904
 4365SOL    HW113539   4.199   3.366   0.569  1.8567  0.9547 -0.4104
 4365SOL    HW213540   4.247   3.437   0.693 -1.6882 -0.2130  1.7801
 4366SOL     OW13541   1.137   0.501   1.042 -0.3142  0.4385  0.0446
 4366SOL    HW113542   1.119   0.468   0.955  0.8995  0.6895 -0.3268
 4366SOL    HW213543   1.196   0.576   1.028  1.1685 -0.4525  1.1296
 4367SOL     OW13544   1.583   5.849   2.812  0.2748 -0.3243  0.1261
 4367SOL    HW113545   1.554   5.898   2.890  0.1561 -2.1681  1.2997
 4367SOL    HW213546   1.513   5.863   2.748 -1.8516 -2.2320  1.8782
 4368SOL     OW13547   2.356   4.987   4.979  0.6546 -0.7132  0.0857
 4368SOL    HW113548   2.330   4.944   4.897 -0.3249 -0.3040  0.1705
 4368SOL    HW213549   2.358   4.916   5.044 -1.2097 -0.6230  0.2847
 4369SOL     OW13550   2.658   3.732   1.736 -0.3806  0.2445 -0.0123
 4369SOL    HW113551   2.588   3.669   1.721  0.9333 -1.1242 -0.6515
 4369SOL    HW213552   2.613   3.812   1.762 -2.2471 -0.2885 -1.3579
 4370SOL     OW13553   5.028   2.428   2.984 -0.0583  0.1433  0.0142
 4370SOL    HW113554   4.951   2.385   2.948 -0.1103  0.1360  0.1313
 4370SOL    HW213555   5.079   2.456   2.908 -0.3613  0.4853 -0.0666
 4371SOL     OW13556   1.150   0.185   3.326  0.4313  0.4631  0.6691
 4371SOL    HW113557   1.183   0.132   3.399  0.2985  1.2474  1.3195
 4371SOL    HW213558   1.229   0.217   3.282  0.5133 -0.8486 -0.1740
 4372SOL     OW13559   3.195   0.662   2.178 -0.1924  0.2421 -0.2107
 4372SOL    HW113560   3.149   0.581   2.157  0.0919  0.2405 -0.8535
 4372SOL    HW213561   3.151   0.729   2.126  0.7755  0.1688 -1.1625
 4373SOL     OW13562   5.813   0.730   5.860  0.4646  0.2633 -0.2984
 4373SOL    HW113563   5.815   0.775   5.945  0.0432 -0.2171 -0.0265
 4373SOL    HW213564   5.900   0.744   5.823  1.0747 -0.5649  0.7674
 4374SOL     OW13565   0.167   1.197   4.638 -0.0589  0.3534 -0.4962
 4374SOL    HW113566   0.249   1.216   4.591 -0.6806 -0.9140 -2.2295
 4374SOL    HW213567   0.104   1.179   4.568 -1.2670 -0.7911  0.8344
 4375SOL     OW13568   4.077   5.905   0.094 -0.7797  0.1935  0.1345
 4375SOL    HW113569   3.990   5.903   0.133 -1.0503  1.9142 -0.3039
 4375SOL    HW213570   4.063   5.933   0.004  0.2630  1.3768  0.3023
 4376SOL     OW13571   2.519   4.970   1.349  0.1918 -0.7727  0.1176
 4376SOL    HW113572   2.582   4.958   1.278  0.3476  1.5810 -0.2222
 4376SOL    HW213573   2.434   4.972   1.305  0.2274 -0.0650  0.0670
 4377SOL     OW13574   2.145   2.711   5.481  0.4464  0.5876 -0.1361
 4377SOL    HW113575   2.180   2.690   5.568  0.3334  3.8306  0.7992
 4377SOL    HW213576   2.074   2.648   5.469  3.1886 -2.8670  0.0834
 4378SOL     OW13577   0.981   4.158   0.463  0.5427  0.5089 -0.4944
 4378SOL    HW113578   1.052   4.199   0.512 -0.8678  2.7455 -0.1772
 4378SOL    HW213579   1.022   4.130   0.381  1.9394  1.0553 -0.0127
 4379SOL     OW13580   0.599   4.243   1.002  0.0368  0.6705  0.3262
 4379SOL    HW113581   0.620   4.325   0.957 -0.2711  0.3256 -0.4585
 4379SOL    HW213582   0.619   4.261   1.094 -0.1870  1.6780  0.1887
 4380SOL     OW13583   5.855   4.417   1.659  1.0070 -0.6631  0.0708
 4380SOL    HW113584   5.797   4.489   1.683 -1.8836 -2.6788 -0.3999
 4380SOL    HW213585   5.916   4.410   1.733  1.1054  1.8896  0.3188
 4381SOL     OW13586   4.116   1.637   5.938  0.2888  0.3186 -0.0667
 4381SOL    HW113587   4.158   1.597   5.862  0.7752  2.4858 -1.0161
 4381SOL    HW213588   4.175   1.709   5.963 -0.2603  0.1579  1.8910
 4382SOL     OW13589   1.037   1.999   3.454 -0.2030  0.0054  0.4827
 4382SOL    HW113590   0.958   1.948   3.471 -0.8478  0.6444 -0.4716
 4382SOL    HW213591   1.028   2.077   3.509 -0.4155  0.2386  0.1251
 4383SOL     OW13592   5.542   4.319   0.599  0.5215 -0.8999  0.5776
 4383SOL    HW113593   5.475   4.251   0.606 -0.7268  0.1556 -0.5324
 4383SOL    HW213594   5.496   4.394   0.561  1.9297  0.4761  1.5004
 4384SOL     OW13595   4.772   3.873   0.810 -0.5043 -0.6542 -0.7710
 4384SOL    HW113596   4.834   3.944   0.797  0.1868 -1.2321 -0.6949
 4384SOL    HW213597   4.686   3.916   0.811 -0.2812 -0.0671 -2.7984
 4385SOL     OW13598   3.025   3.709   4.378  0.1452  0.5216 -0.0846
 4385SOL    HW113599   2.963   3.712   4.306 -0.5941 -0.2835  0.4925
 4385SOL    HW213600   3.103   3.754   4.345 -0.3309  0.5429 -1.2219
 4386SOL     OW13601   4.663   1.128   4.514 -0.2410 -0.8837 -0.4562
 4386SOL    HW113602   4.731   1.172   4.462  1.4170 -0.5502  1.8411
 4386SOL    HW213603   4.699   1.041   4.532 -0.5213 -0.7960  0.5772
 4387SOL     OW13604   1.942   4.176   2.496 -0.3614  0.1368  0.0064
 4387SOL    HW113605   1.868   4.236   2.503  0.7912  1.4113  3.4329
 4387SOL    HW213606   1.909   4.094   2.534 -0.2264  0.5594  1.0841
 4388SOL     OW13607   4.548   3.760   0.089 -0.0783  0.1545 -0.1168
 4388SOL    HW113608   4.462   3.717   0.082  1.1645 -2.5268 -0.0592
 4388SOL    HW213609   4.595   3.708   0.154  1.7653  1.2878 -0.4767
 4389SOL     OW13610   1.374   2.227   2.285 -0.0554 -0.0448 -0.0334
 4389SOL    HW113611   1.447   2.243   2.226  0.4601  0.4723  0.7165
 4389SOL    HW213612   1.411   2.174   2.356 -0.2675  0.6639  0.6218
 4390SOL     OW13613   0.075   0.860   5.158  0.4143  0.1500  0.1110
 4390SOL    HW113614   0.168   0.846   5.141  0.3346  0.3991 -0.5602
 4390SOL    HW213615   0.062   0.827   5.247  1.0302 -0.3965  0.0083
 4391SOL     OW13616   0.850   3.806   0.531 -0.4298 -0.2420  0.4770
 4391SOL    HW113617   0.841   3.877   0.594  0.4167  1.6700 -1.4692
 4391SOL    HW213618   0.941   3.778   0.538 -0.5903 -0.7098  0.7690
 4392SOL     OW13619   0.442   3.483   3.963 -0.0179  0.0964 -0.0863
 4392SOL    HW113620   0.369   3.496   4.024 -0.3972 -0.1582 -0.4823
 4392SOL    HW213621   0.519   3.471   4.019 -0.3760 -0.2100  0.3392
 4393SOL     OW13622   4.970   1.043   1.517  0.1016 -0.2392  0.1035
 4393SOL    HW113623   5.004   0.979   1.454 -1.5152 -0.6902 -0.3634
 4393SOL    HW213624   4.877   1.020   1.526 -0.6018  2.1889 -0.2585
 4394SOL     OW13625   2.584   2.948   1.016 -0.7658  0.0414  0.0020
 4394SOL    HW113626   2.586   3.028   1.068  1.1406 -1.5047  2.5479
 4394SOL    HW213627   2.676   2.931   0.994 -0.7481 -2.6531  1.6979
 4395SOL     OW13628   0.621   3.641   1.367  0.1009 -0.6314  0.6260
 4395SOL    HW113629   0.596   3.552   1.394  0.7456 -1.3667 -1.0583
 4395SOL    HW213630   0.713   3.632   1.340 -0.4864  0.0101 -1.7666
 4396SOL     OW13631   1.235   3.543   2.266  0.3468  0.3426  0.0257
 4396SOL    HW113632   1.272   3.458   2.244 -1.3013 -0.3370 -0.2461
 4396SOL    HW213633   1.270   3.603   2.200  0.2542 -0.4465 -0.7451
 4397SOL     OW13634   0.193   4.408   2.653  0.4861  0.0871 -0.9338
 4397SOL    HW113635   0.148   4.418   2.569  1.5461  1.0137 -1.4186
 4397SOL    HW213636   0.127   4.371   2.712 -0.5326  0.2547 -1.9458
 4398SOL     OW13637   2.896   4.908   1.581 -0.1741  0.3474  0.2637
 4398SOL    HW113638   2.896   4.880   1.672 -1.4032 -2.5234 -0.5143
 4398SOL    HW213639   2.803   4.907   1.556  0.1500  0.9909 -1.0631
 4399SOL     OW13640   2.434   0.062   4.187  0.3208  0.1054  0.3253
 4399SOL    HW113641   2.410   0.130   4.125 -0.5385 -2.3447 -2.2520
 4399SOL    HW213642   2.361   0.058   4.249 -1.2342 -0.5778 -1.4627
 4400SOL     OW13643   3.379   0.997   4.222 -0.0526  0.4606  0.3985
 4400SOL    HW113644   3.355   0.998   4.315  1.1209 -1.5717  0.7991
 4400SOL    HW213645   3.474   1.010   4.222  0.1994 -1.1503 -0.3627
 4401SOL     OW13646   5.281   3.965   0.104 -0.2858  0.7782 -0.4664
 4401SOL    HW113647   5.345   4.016   0.154 -0.6214  2.3455 -1.5637
 4401SOL    HW213648   5.205   3.960   0.161  0.2014  0.3966  0.1613
 4402SOL     OW13649   4.141   0.038   0.253  0.1386  0.0787  0.3063
 4402SOL    HW113650   4.163  -0.047   0.214 -1.6613 -0.4701  0.3895
 4402SOL    HW213651   4.210   0.053   0.317  2.1499  0.1325 -1.7529
 4403SOL     OW13652   1.438   1.886   4.623 -0.5316 -0.0666 -0.2986
 4403SOL    HW113653   1.376   1.836   4.677  0.2258 -0.1829  0.5031
 4403SOL    HW213654   1.461   1.827   4.552  1.0860 -1.3057  1.1578
 4404SOL     OW13655   1.511   5.245   2.837  0.0169  0.0394 -0.3318
 4404SOL    HW113656   1.535   5.283   2.752 -1.0278 -1.6551 -1.4452
 4404SOL    HW213657   1.473   5.319   2.886  0.6516  1.0548 -1.3194
 4405SOL     OW13658   4.623   0.633   4.330  0.8517 -0.1639 -0.0089
 4405SOL    HW113659   4.552   0.684   4.369  1.5220  0.2530  0.6892
 4405SOL    HW213660   4.642   0.566   4.396  3.1071  1.5332  1.2180
 4406SOL     OW13661   4.919   5.532   5.176  0.5232  0.2555 -0.2076
 4406SOL    HW113662   4.989   5.528   5.240 -0.0912 -0.2581  0.4459
 4406SOL    HW213663   4.880   5.619   5.188  0.6239  0.2877 -0.1156
 4407SOL     OW13664   1.564   1.515   0.104  0.0043  0.7051  0.5006
 4407SOL    HW113665   1.502   1.470   0.046  2.0285 -0.7212 -0.7136
 4407SOL    HW213666   1.509   1.561   0.167 -2.2800 -1.2669  0.1124
 4408SOL     OW13667   5.455   2.646   5.717 -0.5480 -0.3853  0.0277
 4408SOL    HW113668   5.401   2.662   5.640  0.5182  1.0878 -0.4650
 4408SOL    HW213669   5.464   2.551   5.722 -2.6313 -0.6323 -0.2223
 4409SOL     OW13670   3.619   4.508   4.352 -0.1923 -0.1665 -0.0909
 4409SOL    HW113671   3.671   4.491   4.274 -2.2871 -0.8679 -1.4425
 4409SOL    HW213672   3.529   4.486   4.326 -0.9873 -0.4192  2.5199
 4410SOL     OW13673   0.693   0.741   5.333  0.4626 -0.5193  0.7194
 4410SOL    HW113674   0.642   0.805   5.282  0.9125 -1.9941 -1.7047
 4410SOL    HW213675   0.627   0.680   5.367  0.2979 -0.4593  0.5100
 4411SOL     OW13676   3.045   3.762   6.003 -0.3315 -0.5095  0.9075
 4411SOL    HW113677   3.058   3.697   6.072  1.1898 -0.9370  0.2629
 4411SOL    HW213678   3.125   3.757   5.951 -1.0279  0.5126 -0.2990
 4412SOL     OW13679   2.346   0.186   5.168 -0.3358 -0.4040 -0.2915
 4412SOL    HW113680   2.390   0.101   5.177 -0.3135 -0.2658  1.1546
 4412SOL    HW213681   2.402   0.235   5.109  0.5995 -0.8053  0.2248
 4413SOL     OW13682   3.962   2.840   1.906  0.0630  0.0251  0.6472
 4413SOL    HW113683   3.884   2.842   1.851 -0.6211 -3.0853  1.3072
 4413SOL    HW213684   4.022   2.781   1.860  0.8302  0.0172  1.6281
 4414SOL     OW13685   4.298   5.428   1.074  0.0562  0.0837  0.2681
 4414SOL    HW113686   4.336   5.490   1.136 -0.9073  0.6454  0.3248
 4414SOL    HW213687   4.232   5.381   1.126 -0.3137  0.1168 -0.1696
 4415SOL     OW13688   2.692   4.187   3.142 -1.1289  0.0994  0.2912
 4415SOL    HW113689   2.624   4.254   3.141 -2.1784 -0.9221  0.0181
 4415SOL    HW213690   2.706   4.168   3.234 -1.9754 -0.3945  0.3318
 4416SOL     OW13691   5.369   1.094   5.520 -0.3892 -0.3242  0.4210
 4416SOL    HW113692   5.407   1.115   5.605 -0.5555  1.0346  0.1814
 4416SOL    HW213693   5.440   1.052   5.471  0.4929  1.1845  0.3594
 4417SOL     OW13694   0.123   1.949   0.446 -0.2884 -0.3621 -0.2675
 4417SOL    HW113695   0.070   1.997   0.510 -0.5704 -1.3156  0.2411
 4417SOL    HW213696   0.138   1.864   0.487 -0.9718 -1.2104 -1.7100
 4418SOL     OW13697   1.375   5.774   0.788 -0.8526  0.5137 -0.0997
 4418SOL    HW113698   1.363   5.861   0.825  1.0142  0.3659  0.9931
 4418SOL    HW213699   1.304   5.722   0.826 -0.4173  0.9530  1.3904
 4419SOL     OW13700   0.376   0.969   2.854 -0.0563  0.6505 -0.7208
 4419SOL    HW113701   0.443   0.989   2.788  2.1900 -1.7670  0.6537
 4419SOL    HW213702   0.353   0.878   2.839 -1.7998  0.9513 -0.0695
 4420SOL     OW13703   4.339   5.205   6.050 -0.5103  0.5375 -0.1020
 4420SOL    HW113704   4.389   5.153   6.112 -0.1650  0.0012 -0.8115
 4420SOL    HW213705   4.375   5.293   6.058 -0.1084  0.3595  0.0756
 4421SOL     OW13706   5.201   4.169   4.925  0.2028 -0.2752  0.0874
 4421SOL    HW113707   5.244   4.227   4.989 -0.1202  1.4880 -1.2040
 4421SOL    HW213708   5.219   4.081   4.956  1.0053  0.5059  1.9848
 4422SOL     OW13709   4.911   3.249   4.259  0.1194 -0.3048  0.0606
 4422SOL    HW113710   4.884   3.334   4.226  2.5732  0.4929 -0.0381
 4422SOL    HW213711   4.906   3.191   4.183 -1.0574 -0.1768  0.0147
 4423SOL     OW13712   1.779   4.786   5.244 -0.0433  0.0240  0.2449
 4423SOL    HW113713   1.707   4.841   5.276  0.1678  1.6342 -1.7841
 4423SOL    HW213714   1.736   4.724   5.184  0.1991  1.0767 -1.0760
 4424SOL     OW13715   0.234   0.521   2.131  0.4671  0.3318  0.0485
 4424SOL    HW113716   0.146   0.552   2.107  1.5883  2.0186 -2.3743
 4424SOL    HW213717   0.264   0.583   2.197 -0.5132 -0.9077  1.7189
 4425SOL     OW13718   5.315   2.700   2.126 -0.0936  0.3159  0.0006
 4425SOL    HW113719   5.334   2.763   2.057 -0.4565  0.5772  0.1366
 4425SOL    HW213720   5.340   2.615   2.089  0.0515  0.4968 -0.3158
 4426SOL     OW13721   4.879   0.685   5.475  0.6625 -0.1127  0.4106
 4426SOL    HW113722   4.859   0.708   5.384  1.2015  1.1123  0.5843
 4426SOL    HW213723   4.852   0.762   5.525  1.0391 -0.4979  1.2155
 4427SOL     OW13724   3.978   0.356   3.456  0.3605  0.1879 -0.2546
 4427SOL    HW113725   3.944   0.314   3.378  2.3579 -0.4662 -0.8506
 4427SOL    HW213726   3.915   0.424   3.477 -0.6399 -0.1709 -1.9433
 4428SOL     OW13727   3.872   2.249   0.135  0.0288 -0.4529  0.0160
 4428SOL    HW113728   3.892   2.341   0.146 -0.3317 -0.3237 -0.3796
 4428SOL    HW213729   3.776   2.245   0.137  0.0286 -0.7440 -0.5290
 4429SOL     OW13730   3.639   0.998   3.959  0.1718 -0.3904  0.1228
 4429SOL    HW113731   3.612   1.083   3.924 -1.2288 -0.6208  0.5552
 4429SOL    HW213732   3.575   0.936   3.924 -0.6804 -0.7885  2.2140
 4430SOL     OW13733   5.846   4.295   4.087 -0.3247 -0.6916  0.2351
 4430SOL    HW113734   5.854   4.222   4.148 -0.8932  0.1961  1.4075
 4430SOL    HW213735   5.771   4.345   4.118 -1.5517 -0.9816 -2.0475
 4431SOL     OW13736   3.293   0.001   1.667  0.9100 -0.5230  0.4853
 4431SOL    HW113737   3.289   0.012   1.762 -0.8325 -1.5511  0.5614
 4431SOL    HW213738   3.361  -0.064   1.653  1.2443 -0.2949  1.0098
 4432SOL     OW13739   3.679   3.844   6.047  0.4842 -0.3231 -0.0307
 4432SOL    HW113740   3.626   3.909   6.094  0.1627 -1.1780  0.8246
 4432SOL    HW213741   3.615   3.784   6.009  0.8081 -0.6405 -0.0747
 4433SOL     OW13742   0.649   3.914   3.183 -0.0720 -0.6576  0.2041
 4433SOL    HW113743   0.690   3.832   3.153  1.9045  0.0558  0.7585
 4433SOL    HW213744   0.654   3.972   3.107 -0.8934 -0.8382  0.0053
 4434SOL     OW13745   4.372   5.445   3.665  0.6853  0.0948  0.5178
 4434SOL    HW113746   4.334   5.422   3.580  0.7390 -0.5026  0.6544
 4434SOL    HW213747   4.438   5.378   3.681 -0.8470 -1.1167  2.0616
 4435SOL     OW13748   0.424   3.935   3.541 -0.5203  0.5013 -0.4549
 4435SOL    HW113749   0.488   3.863   3.538 -0.5033  0.5279 -0.8575
 4435SOL    HW213750   0.473   4.010   3.574 -0.0305  0.8201 -1.8237
 4436SOL     OW13751   1.719   5.900   3.415 -0.0319  0.1215  0.6074
 4436SOL    HW113752   1.709   5.834   3.347 -0.6489 -2.0147  2.6646
 4436SOL    HW213753   1.808   5.935   3.402  0.3600 -1.1975 -0.4473
 4437SOL     OW13754   1.116   5.258   2.598  0.6262  0.3039  0.3098
 4437SOL    HW113755   1.176   5.320   2.556  0.3480  0.6821  0.4576
 4437SOL    HW213756   1.134   5.174   2.556  0.5639  0.6153 -0.3548
 4438SOL     OW13757   2.782   0.384   5.989  0.5099 -0.0057  0.7340
 4438SOL    HW113758   2.820   0.470   6.006  0.6267 -0.2143  1.5528
 4438SOL    HW213759   2.811   0.362   5.900  2.5706 -0.2917  1.4160
 4439SOL     OW13760   5.524   0.699   1.243 -0.4015 -0.1030  0.0491
 4439SOL    HW113761   5.589   0.710   1.311 -0.1891 -1.4920  0.1016
 4439SOL    HW213762   5.572   0.660   1.170 -1.3359 -2.1985  0.4836
 4440SOL     OW13763   0.298   3.228   0.397 -0.3282 -0.3997 -0.1151
 4440SOL    HW113764   0.391   3.235   0.419 -0.4197  2.1453 -0.2446
 4440SOL    HW213765   0.293   3.160   0.330  1.5341 -0.0759 -0.6120
 4441SOL     OW13766   0.550   4.034   5.566  0.2287 -0.3255  0.2250
 4441SOL    HW113767   0.505   4.102   5.516 -0.3528 -0.4132  0.6214
 4441SOL    HW213768   0.642   4.043   5.541 -0.0383 -0.3212 -0.8119
 4442SOL     OW13769   0.146   3.521   5.605 -0.1834 -0.0064  0.4003
 4442SOL    HW113770   0.093   3.501   5.529 -0.2735  0.1317  0.4271
 4442SOL    HW213771   0.083   3.535   5.676 -0.2080  1.8585  0.0539
 4443SOL     OW13772   0.151   2.996   5.899 -0.4926  0.0591  0.0547
 4443SOL    HW113773   0.221   2.977   5.836 -1.6258  1.2124 -1.6229
 4443SOL    HW213774   0.135   3.090   5.890 -1.8467 -0.0680  0.8450
 4444SOL     OW13775   2.215   0.144   2.493  0.5106 -0.2149 -0.0060
 4444SOL    HW113776   2.265   0.110   2.418  0.5954 -0.6046  0.2226
 4444SOL    HW213777   2.250   0.096   2.568 -0.6212 -0.9403  0.0767
 4445SOL     OW13778   0.065   4.764   1.768  0.5071 -1.1205 -0.2133
 4445SOL    HW113779   0.004   4.697   1.736  0.8815 -1.6000  0.0804
 4445SOL    HW213780   0.076   4.823   1.693  1.1425 -2.0751 -0.8904
 4446SOL     OW13781   2.554   4.143   5.966  0.0714  0.0771 -0.4020
 4446SOL    HW113782   2.566   4.158   5.872  0.0858 -0.7782 -0.5439
 4446SOL    HW213783   2.540   4.231   6.003  0.6746  0.4829 -1.1098
 4447SOL     OW13784   4.415   3.356   2.730 -0.2037  0.1626  0.4615
 4447SOL    HW113785   4.384   3.444   2.750 -0.0051  0.6449 -1.2659
 4447SOL    HW213786   4.415   3.350   2.635  2.8710 -0.5692  0.3973
 4448SOL     OW13787   4.414   5.046   1.214  0.3256  0.0343 -0.2708
 4448SOL    HW113788   4.347   5.047   1.147  0.2045  1.3200 -0.1526
 4448SOL    HW213789   4.371   5.079   1.293  0.3849 -1.7293  0.5394
 4449SOL     OW13790   2.378   3.428   1.782  0.2144  0.1522 -0.3191
 4449SOL    HW113791   2.357   3.356   1.841 -2.4576 -0.2220 -1.5767
 4449SOL    HW213792   2.393   3.387   1.697 -0.9305  0.9890 -0.9619
 4450SOL     OW13793   5.445   5.130   5.929 -0.1510  0.7104 -0.6153
 4450SOL    HW113794   5.367   5.081   5.904 -0.8621  0.9186  1.0970
 4450SOL    HW213795   5.475   5.088   6.010  3.1393 -1.1226 -2.5772
 4451SOL     OW13796   0.722   4.362   0.048 -0.0860  1.0897  0.0645
 4451SOL    HW113797   0.722   4.306   0.126 -2.3956  1.4107  0.3565
 4451SOL    HW213798   0.795   4.422   0.062  1.7298 -1.0399  0.2917
 4452SOL     OW13799   5.460   3.589   6.112  0.1479 -0.0123  0.2483
 4452SOL    HW113800   5.464   3.601   6.206 -2.1457  2.5294  0.1345
 4452SOL    HW213801   5.373   3.552   6.096  0.6987 -0.8857 -0.8578
 4453SOL     OW13802   3.601   3.637   3.173 -0.1798 -0.2518  1.0424
 4453SOL    HW113803   3.604   3.725   3.138 -2.9858 -0.5478 -0.2101
 4453SOL    HW213804   3.522   3.636   3.228 -2.7993 -2.9825 -2.3539
 4454SOL     OW13805   0.755   1.818   2.435 -0.0383  0.3631 -0.2772
 4454SOL    HW113806   0.668   1.793   2.404 -0.1400  0.5170 -0.1155
 4454SOL    HW213807   0.772   1.902   2.392  0.1290  0.2214 -0.4921
 4455SOL     OW13808   1.343   0.478   1.723  0.1208  0.4024 -0.0489
 4455SOL    HW113809   1.331   0.558   1.672 -0.4876 -1.1582 -2.5363
 4455SOL    HW213810   1.363   0.508   1.812  1.5691  3.2956 -1.2468
 4456SOL     OW13811   3.345   2.192   4.116  0.3780 -0.5971 -0.7728
 4456SOL    HW113812   3.260   2.186   4.071 -0.8721  0.5035  1.2874
 4456SOL    HW213813   3.408   2.208   4.046 -1.2002 -0.8128 -2.3154
 4457SOL     OW13814   1.997   1.023   2.464 -0.2214 -0.2481 -0.1550
 4457SOL    HW113815   2.064   1.048   2.528 -0.0416 -0.8493 -0.1003
 4457SOL    HW213816   1.919   1.003   2.516 -1.1590  2.5116 -0.3328
 4458SOL     OW13817   1.894   4.179   4.822  0.4517  0.1343 -0.0010
 4458SOL    HW113818   1.914   4.270   4.801  1.2295 -0.3381 -1.5428
 4458SOL    HW213819   1.826   4.154   4.759 -0.0188 -0.2598  0.6463
 4459SOL     OW13820   1.245   3.297   6.098  0.2158  0.0375  0.1197
 4459SOL    HW113821   1.247   3.202   6.114 -0.0244  0.2167  1.2724
 4459SOL    HW213822   1.155   3.315   6.073  0.7157 -0.3343 -2.2541
 4460SOL     OW13823   5.647   0.963   2.537  0.2212 -0.2563  0.0903
 4460SOL    HW113824   5.594   0.936   2.463  1.9835  0.8079 -1.6803
 4460SOL    HW213825   5.613   1.049   2.561 -0.8343 -0.9228  1.0492
 4461SOL     OW13826   5.024   2.026   3.157 -0.4118  0.0169 -0.2848
 4461SOL    HW113827   4.946   2.081   3.153  0.1515  0.9485  0.7632
 4461SOL    HW213828   5.087   2.078   3.207  0.8376 -0.7652 -0.9983
 4462SOL     OW13829   4.690   2.835   2.747  0.0546  0.2040 -0.1228
 4462SOL    HW113830   4.677   2.904   2.682  0.7703 -1.0408 -1.6790
 4462SOL    HW213831   4.602   2.814   2.779 -0.2789  1.0663 -0.4564
 4463SOL     OW13832   1.674   2.895   1.664  0.5568  0.2876  0.4909
 4463SOL    HW113833   1.744   2.861   1.607  1.1646  1.1251  0.7131
 4463SOL    HW213834   1.609   2.825   1.666  1.9976 -1.1050  1.3704
 4464SOL     OW13835   6.064   1.571   2.177 -0.0142 -0.3219  0.2596
 4464SOL    HW113836   6.027   1.586   2.264 -0.3496 -0.8745  0.2161
 4464SOL    HW213837   6.126   1.499   2.189 -0.2887 -0.6067 -0.0148
 4465SOL     OW13838   1.074   1.209   3.295 -0.0998 -0.4252  1.0327
 4465SOL    HW113839   1.022   1.198   3.374 -2.6185  1.6224 -0.2166
 4465SOL    HW213840   1.046   1.292   3.258  2.0099 -0.6151 -1.3011
 4466SOL     OW13841   4.223   5.174   2.175  0.3338 -0.1569 -0.1541
 4466SOL    HW113842   4.253   5.200   2.089 -0.1304  0.0611 -0.2507
 4466SOL    HW213843   4.130   5.198   2.178 -0.2520 -2.1616 -0.4125
 4467SOL     OW13844   4.542   2.400   0.606 -0.0954  0.0704 -0.0171
 4467SOL    HW113845   4.484   2.466   0.645  1.5397  0.2728  2.2892
 4467SOL    HW213846   4.612   2.389   0.671 -0.0884 -3.6626 -0.4532
 4468SOL     OW13847   2.255   0.895   3.010  0.1460  0.7336 -0.3842
 4468SOL    HW113848   2.331   0.913   2.955 -0.4924  0.8938 -1.2298
 4468SOL    HW213849   2.289   0.839   3.080  1.2083  1.4688 -0.2861
 4469SOL     OW13850   3.029   2.999   1.554 -0.2480 -0.0063  0.5502
 4469SOL    HW113851   3.001   2.969   1.641  1.0233 -0.1913  0.9118
 4469SOL    HW213852   3.029   2.920   1.500  0.8987 -0.2732  0.9154
 4470SOL     OW13853   0.423   0.114   0.684 -0.7354  0.5388  0.5900
 4470SOL    HW113854   0.511   0.147   0.666 -0.8158 -1.0861 -4.2180
 4470SOL    HW213855   0.434   0.019   0.694 -1.8173  0.4361  0.9981
 4471SOL     OW13856   4.737   1.440   5.253  0.3042 -0.2915  0.1639
 4471SOL    HW113857   4.823   1.407   5.277  0.7384 -0.7044 -1.7894
 4471SOL    HW213858   4.754   1.527   5.217  0.1226 -0.9200 -1.5174
 4472SOL     OW13859   5.724   5.434   4.829 -0.5880  0.0971  0.3268
 4472SOL    HW113860   5.669   5.373   4.877  0.8808 -1.3963  0.2176
 4472SOL    HW213861   5.765   5.489   4.897 -0.7956 -0.0162  0.5425
 4473SOL     OW13862   0.059   4.942   0.670  0.4631 -0.4430  0.0590
 4473SOL    HW113863   0.002   4.984   0.607  2.3205  2.8856  0.3872
 4473SOL    HW213864   0.141   4.991   0.666  1.9477 -2.4431  2.4283
 4474SOL     OW13865   0.925   5.873   3.719  0.5302 -0.0389  0.2744
 4474SOL    HW113866   0.888   5.833   3.797  0.5556 -1.5072 -0.4240
 4474SOL    HW213867   1.020   5.863   3.730  0.5614  0.3096  0.3331
 4475SOL     OW13868   3.898   0.448   1.503 -0.1826  0.7111 -0.6076
 4475SOL    HW113869   3.912   0.407   1.418 -0.2239  2.2740 -1.4017
 4475SOL    HW213870   3.955   0.400   1.563  0.3127 -0.0148 -1.6331
 4476SOL     OW13871   4.111   5.392   1.672  0.3616 -0.0974  0.0680
 4476SOL    HW113872   4.124   5.315   1.616 -0.6987 -0.1314 -0.1618
 4476SOL    HW213873   4.161   5.461   1.630 -0.3643 -0.1451 -0.8836
 4477SOL     OW13874   5.476   5.795   2.207  0.3834  0.7086 -0.2815
 4477SOL    HW113875   5.531   5.747   2.269  0.2183 -0.8443 -1.2664
 4477SOL    HW213876   5.465   5.882   2.246  1.5223  0.2693  1.0999
 4478SOL     OW13877   2.222   3.417   2.043  0.1095  0.0777  0.2366
 4478SOL    HW113878   2.195   3.335   2.083  0.6374 -0.2445 -0.0683
 4478SOL    HW213879   2.161   3.482   2.080 -0.0924 -0.3848  0.7368
 4479SOL     OW13880   0.649   5.231   5.891 -0.0389  0.1321 -0.2072
 4479SOL    HW113881   0.563   5.240   5.852 -0.0809  0.8587  0.0264
 4479SOL    HW213882   0.634   5.187   5.975  0.2321 -2.9335 -1.6280
 4480SOL     OW13883   1.486   1.455   5.733 -0.3636 -0.2673 -0.4374
 4480SOL    HW113884   1.459   1.521   5.670  2.0613 -1.6343 -3.1295
 4480SOL    HW213885   1.539   1.503   5.797 -1.8939  0.9603 -0.0392
 4481SOL     OW13886   3.856   4.677   1.404 -0.0810  0.9614 -0.4368
 4481SOL    HW113887   3.866   4.640   1.492  0.4842  0.2246 -0.8033
 4481SOL    HW213888   3.866   4.602   1.345  1.6286  1.7491 -1.2247
 4482SOL     OW13889   2.041   6.014   2.860 -0.7254 -0.0952  0.8416
 4482SOL    HW113890   2.037   6.080   2.929 -0.0832 -0.1553  0.9395
 4482SOL    HW213891   2.033   6.064   2.779  0.3112  0.1654  0.8954
 4483SOL     OW13892   0.387   1.319   4.176 -0.0042 -0.1013 -0.0191
 4483SOL    HW113893   0.388   1.402   4.224 -1.2390 -0.5520  0.8334
 4483SOL    HW213894   0.391   1.251   4.244  0.3088 -0.7505 -0.6673
 4484SOL     OW13895   3.387   1.359   5.362 -0.4317 -0.2585 -0.5684
 4484SOL    HW113896   3.384   1.430   5.297  0.7703 -0.5059 -0.9223
 4484SOL    HW213897   3.474   1.320   5.351 -0.5273 -0.8548  0.6256
 4485SOL     OW13898   3.301   4.701   0.355  0.0755  0.0394 -0.4508
 4485SOL    HW113899   3.246   4.777   0.376  0.5749  0.4798 -0.7142
 4485SOL    HW213900   3.270   4.633   0.414 -0.4227  0.4265 -0.2497
 4486SOL     OW13901   0.279   1.109   5.904  0.6278  0.5778 -0.4122
 4486SOL    HW113902   0.262   1.202   5.916 -0.5095  0.5691 -1.6376
 4486SOL    HW213903   0.193   1.072   5.882  0.7793 -1.0202  1.4176
 4487SOL     OW13904   0.131   0.814   4.839  0.8507  0.3872 -0.0658
 4487SOL    HW113905   0.070   0.798   4.911 -0.9594 -0.1105 -1.6166
 4487SOL    HW213906   0.180   0.892   4.865  0.5761 -0.0555  1.8835
 4488SOL     OW13907   4.125   1.429   0.984  0.1070 -0.7797  0.3371
 4488SOL    HW113908   4.191   1.476   1.034 -0.8960  1.3686 -0.2202
 4488SOL    HW213909   4.167   1.411   0.900  0.6924 -1.4294  0.7584
 4489SOL     OW13910   1.432   3.364   1.134 -0.4833  0.6720  0.3519
 4489SOL    HW113911   1.504   3.310   1.168 -1.0466 -0.6136 -0.4297
 4489SOL    HW213912   1.353   3.326   1.173 -0.9914  0.2232 -1.0678
 4490SOL     OW13913   5.167   4.012   4.329 -0.6241  0.1534 -0.3426
 4490SOL    HW113914   5.204   4.100   4.323  0.0457 -0.2111 -2.2237
 4490SOL    HW213915   5.129   3.995   4.243  0.7687 -2.0192 -0.6069
 4491SOL     OW13916   4.067   3.644   0.592  0.3862  0.4913 -0.4987
 4491SOL    HW113917   4.001   3.672   0.656  0.7658 -0.2907  0.2555
 4491SOL    HW213918   4.151   3.670   0.631  0.6771 -0.7195 -0.2684
 4492SOL     OW13919   3.468   4.498   2.124  0.0264  0.1920 -0.2702
 4492SOL    HW113920   3.544   4.504   2.066 -0.6828  0.0953 -1.2549
 4492SOL    HW213921   3.447   4.589   2.146 -1.2457  0.4775 -2.3240
 4493SOL     OW13922   4.184   4.558   2.028  0.5615  0.1495  0.0516
 4493SOL    HW113923   4.113   4.518   2.078  0.5480  0.0985 -0.0076
 4493SOL    HW213924   4.210   4.635   2.079 -0.2391  0.7667 -0.4624
 4494SOL     OW13925   5.784   6.100   4.361  0.1745 -0.3240  0.1126
 4494SOL    HW113926   5.845   6.168   4.334 -0.6034  0.5335  0.4828
 4494SOL    HW213927   5.822   6.063   4.441  0.2996  0.0845  0.2407
 4495SOL     OW13928   4.216   2.828   2.163  0.4617 -0.3896 -0.0578
 4495SOL    HW113929   4.215   2.837   2.068  1.0758 -1.7058 -0.2027
 4495SOL    HW213930   4.149   2.762   2.181  0.2860 -0.0813  0.4344
 4496SOL     OW13931   5.633   0.118   0.261  0.0416  0.0391  0.0042
 4496SOL    HW113932   5.662   0.031   0.289  0.5295  0.0247 -0.5148
 4496SOL    HW213933   5.607   0.162   0.341  1.6281  0.0950  0.5195
 4497SOL     OW13934   4.741   6.126   5.318 -0.7325  0.3368 -0.1946
 4497SOL    HW113935   4.797   6.194   5.354 -1.2026  0.3269  0.5865
 4497SOL    HW213936   4.724   6.153   5.228  0.1643  0.5540 -0.3013
 4498SOL     OW13937   2.741   4.257   4.853 -0.2724  0.6606 -0.4649
 4498SOL    HW113938   2.769   4.167   4.869 -0.3860  0.1124 -2.8852
 4498SOL    HW213939   2.690   4.281   4.930  0.0393 -1.2293  0.3864
 4499SOL     OW13940   1.667   5.506   0.178 -0.0115  0.1199  0.5569
 4499SOL    HW113941   1.748   5.522   0.227  1.2621 -0.0518 -1.3484
 4499SOL    HW213942   1.697   5.488   0.089 -2.1714 -0.0768 -0.1884
 4500SOL     OW13943   2.381   2.941   3.181 -0.1016  0.1894  0.5903
 4500SOL    HW113944   2.332   2.922   3.261 -2.4972 -0.7802 -1.0069
 4500SOL    HW213945   2.437   2.865   3.169  0.0193  0.1814  1.1591
 4501SOL     OW13946   1.082   4.648   0.572  0.1467  0.1875  0.3242
 4501SOL    HW113947   1.100   4.740   0.552 -0.0213  0.0486 -0.5221
 4501SOL    HW213948   1.106   4.638   0.664 -1.9216  1.6252  1.0854
 4502SOL     OW13949   1.560   5.174   5.188  0.3727  0.2062  0.4642
 4502SOL    HW113950   1.600   5.170   5.101  1.7110  2.8975  0.8310
 4502SOL    HW213951   1.506   5.253   5.185 -0.6848 -0.4408  1.6636
 4503SOL     OW13952   0.012   2.710   1.549  0.4776 -0.2085 -0.5043
 4503SOL    HW113953  -0.034   2.774   1.495  0.0600  0.1820  0.2902
 4503SOL    HW213954  -0.035   2.628   1.536 -0.3631  0.1522  0.1697
 4504SOL     OW13955   6.039   4.461   5.095 -0.3668 -0.2512  0.2867
 4504SOL    HW113956   6.071   4.387   5.147  0.7517 -1.0500 -1.4704
 4504SOL    HW213957   6.098   4.533   5.117 -2.2513  0.6649  3.0375
 4505SOL     OW13958   1.214   0.415   3.056 -0.4232  0.6416  0.6864
 4505SOL    HW113959   1.259   0.340   3.095 -1.9906  0.0575  1.4561
 4505SOL    HW213960   1.203   0.477   3.129 -0.3374  1.0392  0.3644
 4506SOL     OW13961   0.076   1.065   5.480 -0.0784 -1.0120  0.1276
 4506SOL    HW113962   0.138   1.011   5.430 -0.0910 -0.4229 -0.5353
 4506SOL    HW213963   0.078   1.027   5.568  0.4817 -1.6209 -0.1340
 4507SOL     OW13964   1.034   5.361   6.112 -0.8660 -0.2613 -0.1341
 4507SOL    HW113965   1.043   5.450   6.143  1.3488 -0.2892 -0.5387
 4507SOL    HW213966   0.947   5.358   6.071 -0.6919  1.9082 -0.7599
 4508SOL     OW13967   2.293   1.240   3.215 -0.0403  0.6997  0.5769
 4508SOL    HW113968   2.382   1.263   3.241  0.2599 -0.2409  0.4060
 4508SOL    HW213969   2.297   1.231   3.120  0.3776 -2.0232  0.7553
 4509SOL     OW13970   0.726   0.719   2.379 -0.3972 -0.4433 -0.1282
 4509SOL    HW113971   0.694   0.649   2.322  2.2186 -2.4904  0.7000
 4509SOL    HW213972   0.647   0.765   2.408 -2.1273 -2.2492 -1.7082
 4510SOL     OW13973   0.017   0.263   4.805 -0.2925  0.0544 -0.4058
 4510SOL    HW113974  -0.039   0.291   4.732 -0.0466 -1.4340 -1.2300
 4510SOL    HW213975   0.008   0.167   4.806 -0.8135  0.0668  1.9834
 4511SOL     OW13976   0.643   1.627   5.764  1.0813 -0.4915 -0.1888
 4511SOL    HW113977   0.639   1.556   5.700  1.1833 -0.5480 -0.1312
 4511SOL    HW213978   0.622   1.706   5.713 -1.4951 -0.8330  0.1841
 4512SOL     OW13979   4.363   5.318   2.385 -0.1273  0.1093 -0.1079
 4512SOL    HW113980   4.313   5.284   2.311  0.1924 -0.9142  0.1303
 4512SOL    HW213981   4.298   5.364   2.439 -0.8580 -1.2975  0.2619
 4513SOL     OW13982   0.075   0.850   2.643  0.5763  0.2553  0.4974
 4513SOL    HW113983   0.102   0.941   2.653  2.2276 -0.1187 -0.1368
 4513SOL    HW213984   0.007   0.837   2.709  1.0995  1.6391  1.3431
 4514SOL     OW13985   3.216   5.291   5.327  0.5170 -0.1650  0.1808
 4514SOL    HW113986   3.224   5.269   5.420 -1.8042 -0.8060  0.2733
 4514SOL    HW213987   3.148   5.358   5.324  0.9533  0.2482 -1.0152
 4515SOL     OW13988   1.358   4.807   1.389  0.0837 -0.6759  0.8158
 4515SOL    HW113989   1.442   4.763   1.374 -0.5625 -1.5233 -0.5196
 4515SOL    HW213990   1.308   4.791   1.309 -1.3618 -0.2007  1.5939
 4516SOL     OW13991   2.810   4.744   5.044  0.3355  0.1660  0.1895
 4516SOL    HW113992   2.897   4.725   5.006  0.0421 -2.1053  0.5426
 4516SOL    HW213993   2.818   4.720   5.136 -0.4090  0.8691  0.4471
 4517SOL     OW13994   5.542   5.112   3.914  0.2028  0.0490 -0.6172
 4517SOL    HW113995   5.527   5.182   3.850  0.8928 -0.0490 -0.9006
 4517SOL    HW213996   5.501   5.144   3.994 -0.2850  0.3728 -0.9926
 4518SOL     OW13997   4.294   4.111   2.471  0.1190  0.0852 -0.3567
 4518SOL    HW113998   4.221   4.068   2.427 -0.4450  0.9991 -0.3359
 4518SOL    HW213999   4.261   4.199   2.491  0.1709 -0.4322  2.3183
 4519SOL     OW14000   1.842   4.702   5.754 -0.3325  0.0050 -0.3311
 4519SOL    HW114001   1.916   4.644   5.769 -0.7515 -0.7338 -1.0148
 4519SOL    HW214002   1.882   4.787   5.734  0.4381 -0.8020 -2.5813
 4520SOL     OW14003   4.641   5.940   3.664  0.1637 -0.0446 -0.0737
 4520SOL    HW114004   4.708   6.009   3.667 -1.4050  1.5376  0.5056
 4520SOL    HW214005   4.616   5.927   3.755  0.1333 -1.1095 -0.2224
 4521SOL     OW14006   4.879   4.585   5.943  0.4573 -0.0063  0.2112
 4521SOL    HW114007   4.881   4.496   5.909  1.6570 -0.0948  0.4566
 4521SOL    HW214008   4.971   4.607   5.959  0.1136  0.9003  1.1154
 4522SOL     OW14009   4.640   1.734   3.561  0.3072  0.3044 -0.0317
 4522SOL    HW114010   4.635   1.639   3.573  1.3126  0.5206  2.9390
 4522SOL    HW214011   4.734   1.753   3.559  0.1231  1.2214 -1.2089
 4523SOL     OW14012   4.127   3.266   2.421  0.4047 -0.5250 -0.8875
 4523SOL    HW114013   4.119   3.177   2.457 -0.2293  0.1427  0.6899
 4523SOL    HW214014   4.181   3.255   2.343  0.3311 -2.3024 -0.7289
 4524SOL     OW14015   3.902   0.258   4.721  0.1084 -0.0033 -0.4946
 4524SOL    HW114016   3.889   0.163   4.720 -0.0562  0.0168 -1.6815
 4524SOL    HW214017   3.987   0.270   4.762 -0.0307 -0.6472 -0.0061
 4525SOL     OW14018   1.753   4.050   5.054  0.2426  0.0108  1.0165
 4525SOL    HW114019   1.659   4.037   5.045 -0.0194  2.0977  0.2374
 4525SOL    HW214020   1.780   4.090   4.971  1.3774  1.6132  2.1051
 4526SOL     OW14021   0.538   5.339   2.695 -1.2130  0.8034  0.3666
 4526SOL    HW114022   0.583   5.336   2.610 -0.2704 -1.2050  0.8936
 4526SOL    HW214023   0.608   5.346   2.759 -1.8706  1.2042  1.0603
 4527SOL     OW14024   2.323   5.789   5.968 -0.5319 -0.1036  0.2286
 4527SOL    HW114025   2.325   5.751   5.881  0.0671 -0.4435  0.3876
 4527SOL    HW214026   2.412   5.779   6.001 -0.9730 -0.8845  1.2545
 4528SOL     OW14027   2.996   5.027   5.820  0.3277  0.8088  0.3760
 4528SOL    HW114028   3.035   4.955   5.869 -1.2152 -0.6107 -0.3875
 4528SOL    HW214029   3.046   5.030   5.738  1.0629  1.3069  0.8360
 4529SOL     OW14030   1.139   4.463   0.410  0.0686  0.2050  0.6016
 4529SOL    HW114031   1.118   4.546   0.453 -1.8052  0.0647  0.0530
 4529SOL    HW214032   1.160   4.404   0.481  2.5334  1.3826  0.9521
 4530SOL     OW14033   5.988   3.974   3.520 -0.4124 -0.1327 -0.0646
 4530SOL    HW114034   6.018   3.906   3.580  0.4122 -3.5904 -4.0095
 4530SOL    HW214035   6.066   4.028   3.505  0.6718 -1.9419 -1.2879
 4531SOL     OW14036   0.416   0.478   3.137 -0.5570 -0.1350 -0.4343
 4531SOL    HW114037   0.342   0.520   3.093 -1.3001 -1.0223 -0.0535
 4531SOL    HW214038   0.377   0.406   3.187  0.5346 -0.4721 -0.0391
 4532SOL     OW14039   1.522   0.891   5.281 -0.4216 -0.0507  0.0385
 4532SOL    HW114040   1.461   0.817   5.281  0.9494 -1.2183 -0.4322
 4532SOL    HW214041   1.581   0.873   5.354  2.1121 -1.3481 -2.1769
 4533SOL     OW14042   0.516   2.112   0.186 -0.1759  0.0405 -0.0241
 4533SOL    HW114043   0.427   2.076   0.186 -1.5728  3.0490 -2.3690
 4533SOL    HW214044   0.572   2.038   0.165 -1.7978 -2.3528  3.2629
 4534SOL     OW14045   5.727   4.755   1.544  0.2232 -0.2020  0.1337
 4534SOL    HW114046   5.644   4.747   1.496 -0.8057  2.8303  1.1700
 4534SOL    HW214047   5.772   4.828   1.501  1.6104 -0.7343  0.6410
 4535SOL     OW14048   5.061   2.262   5.895 -1.3632 -0.5006  0.0204
 4535SOL    HW114049   5.075   2.341   5.948 -1.3102  0.4688 -1.3800
 4535SOL    HW214050   4.975   2.275   5.856 -1.8558 -1.6999  0.6676
 4536SOL     OW14051   3.709   4.643   5.576 -0.4514  0.3471 -0.4326
 4536SOL    HW114052   3.762   4.671   5.501  0.5439  0.3327  0.2549
 4536SOL    HW214053   3.726   4.709   5.643  0.2976 -0.7522  0.4949
 4537SOL     OW14054   1.882   3.874   2.386 -0.6037  0.1623 -0.6068
 4537SOL    HW114055   1.822   3.811   2.426  0.4755  0.6224  1.9231
 4537SOL    HW214056   1.961   3.869   2.439 -0.2943  3.2626 -0.5660
 4538SOL     OW14057   4.959   0.294   0.282  0.0167 -0.6753  0.0122
 4538SOL    HW114058   4.928   0.303   0.372 -0.6919 -0.6356 -0.2297
 4538SOL    HW214059   4.937   0.204   0.259 -0.5578 -0.4304 -0.4005
 4539SOL     OW14060   0.082   5.122   1.832  0.1065  0.0159 -0.0040
 4539SOL    HW114061   0.158   5.142   1.886  0.1909  1.4403 -0.5921
 4539SOL    HW214062   0.017   5.088   1.894  1.2614 -1.4271  0.4688
 4540SOL     OW14063   2.816   0.343   3.496 -0.2093 -0.3143 -0.5409
 4540SOL    HW114064   2.793   0.377   3.410 -2.5194  1.2763  0.5834
 4540SOL    HW214065   2.909   0.363   3.506  0.1379 -0.6350 -2.6564
 4541SOL     OW14066   1.240   1.377   0.434  0.8202  0.3067 -0.0058
 4541SOL    HW114067   1.276   1.465   0.446  1.1751  0.1834 -0.1552
 4541SOL    HW214068   1.169   1.389   0.372  0.8273  0.4996  0.0208
 4542SOL     OW14069   3.271   1.252   1.066 -0.1162 -0.0609 -0.0134
 4542SOL    HW114070   3.328   1.197   1.119  1.3595  0.5768 -0.8427
 4542SOL    HW214071   3.332   1.308   1.017 -1.4710  0.6181 -0.9914
 4543SOL     OW14072   0.703   2.048   3.238 -0.6636 -0.2369  0.1744
 4543SOL    HW114073   0.640   2.012   3.177  0.4828 -0.4545 -0.9292
 4543SOL    HW214074   0.785   2.001   3.219 -0.3340 -0.5531  2.1051
 4544SOL     OW14075   3.331   3.598   1.454 -0.7732  0.3329 -0.4392
 4544SOL    HW114076   3.269   3.527   1.439 -0.7444  0.4187 -0.9735
 4544SOL    HW214077   3.412   3.569   1.413 -0.2728 -0.0347  0.7577
 4545SOL     OW14078   1.928   2.422   1.315  0.2694 -0.3023  0.3603
 4545SOL    HW114079   2.023   2.435   1.327  0.4480 -1.5973  0.5073
 4545SOL    HW214080   1.890   2.440   1.401  0.3093  0.7460  0.1688
 4546SOL     OW14081   1.283   2.103   3.619 -0.4516 -0.6254 -0.4894
 4546SOL    HW114082   1.290   2.182   3.565  1.8029  0.1429  0.7651
 4546SOL    HW214083   1.341   2.040   3.575  1.5200  0.0549  0.9773
 4547SOL     OW14084   5.760   1.961   4.873 -0.3736 -0.3371 -0.0003
 4547SOL    HW114085   5.757   2.056   4.870  3.1234 -0.1016 -0.6833
 4547SOL    HW214086   5.775   1.934   4.783 -2.6493 -1.7099 -0.0412
 4548SOL     OW14087   4.440   5.741   4.666  0.7573  0.2693 -0.5474
 4548SOL    HW114088   4.522   5.745   4.618  0.3408  0.4828 -1.2503
 4548SOL    HW214089   4.417   5.833   4.682  0.3046  0.2316 -0.9661
 4549SOL     OW14090   5.821   4.902   4.526  0.0450  0.5087  0.0081
 4549SOL    HW114091   5.859   4.910   4.439 -0.9230 -2.4053 -0.8032
 4549SOL    HW214092   5.894   4.914   4.586  1.7791 -2.0195 -1.3951
 4550SOL     OW14093   5.501   5.199   2.102 -0.2945  0.1303 -0.7873
 4550SOL    HW114094   5.412   5.176   2.076  0.1021  0.8535 -3.0213
 4550SOL    HW214095   5.492   5.286   2.142 -0.8071 -0.6190  0.7887
 4551SOL     OW14096   2.757   2.786   3.111 -0.6711  0.0926 -0.1650
 4551SOL    HW114097   2.808   2.802   3.032 -0.2817  0.3763  0.1395
 4551SOL    HW214098   2.728   2.873   3.139  1.2313  0.2985  1.3566
 4552SOL     OW14099   0.945   1.242   0.691 -0.4655 -0.7502 -0.3492
 4552SOL    HW114100   0.889   1.184   0.640 -0.6977 -2.0542  1.2801
 4552SOL    HW214101   0.993   1.183   0.750  0.2836  0.6071  0.4616
 4553SOL     OW14102   2.458   2.994   5.638  0.2797  0.2516 -0.1799
 4553SOL    HW114103   2.451   3.047   5.558  2.6448 -1.7512 -1.8826
 4553SOL    HW214104   2.371   2.999   5.678 -0.6258  2.3753 -2.1806
 4554SOL     OW14105   3.120   0.406   4.972  0.0383 -1.0362 -0.0160
 4554SOL    HW114106   3.125   0.349   5.049  0.5300 -0.9738  0.0010
 4554SOL    HW214107   3.026   0.426   4.963  0.2795  2.5862  3.2414
 4555SOL     OW14108   5.060   1.146   0.350 -0.1546  0.3167  0.1472
 4555SOL    HW114109   5.074   1.241   0.345 -0.5752  0.3759  0.0527
 4555SOL    HW214110   5.140   1.108   0.314 -0.4657  0.6537 -0.9400
 4556SOL     OW14111   3.086   4.056   2.028  0.0621 -0.4285 -0.5350
 4556SOL    HW114112   3.092   3.966   2.062 -2.2115 -1.4085 -2.4957
 4556SOL    HW214113   3.134   4.053   1.945 -0.9664 -0.1489 -1.1483
 4557SOL     OW14114   4.131   4.692   0.792 -0.4520  0.0680 -0.1755
 4557SOL    HW114115   4.211   4.709   0.741 -0.5336  1.2007  0.0360
 4557SOL    HW214116   4.141   4.746   0.870 -2.1854  1.6583 -0.9594
 4558SOL     OW14117   3.008   0.745   0.776  0.3580  0.2832  0.0218
 4558SOL    HW114118   3.068   0.697   0.832 -0.3172  2.1293  2.4996
 4558SOL    HW214119   2.975   0.816   0.831 -4.1516 -0.5956 -1.0974
 4559SOL     OW14120   6.082   1.297   1.768  0.2789 -0.1393  0.1698
 4559SOL    HW114121   6.003   1.262   1.727  0.1539  2.2901 -1.9568
 4559SOL    HW214122   6.148   1.229   1.756 -0.9458 -1.3336  0.0114
 4560SOL     OW14123   2.360   2.882   1.175 -0.0090  0.7704  0.5455
 4560SOL    HW114124   2.326   2.813   1.119 -1.5089  1.8086  0.1097
 4560SOL    HW214125   2.452   2.891   1.149  0.3176 -1.2684  0.8717
 4561SOL     OW14126   3.824   1.448   0.938  0.0208  0.3903  0.0351
 4561SOL    HW114127   3.917   1.427   0.932 -0.1998 -0.8540  0.5828
 4561SOL    HW214128   3.821   1.543   0.952  1.3161  0.2008  1.9545
 4562SOL     OW14129   0.318   3.050   0.140 -0.1336  0.4007 -0.6294
 4562SOL    HW114130   0.332   2.974   0.084  0.6101  1.7023 -2.3092
 4562SOL    HW214131   0.245   3.096   0.100 -1.3615 -0.0003  1.0562
 4563SOL     OW14132   5.736   2.094   5.379 -0.4778  0.3240  0.0756
 4563SOL    HW114133   5.712   2.136   5.296 -1.6507 -0.6725 -0.1230
 4563SOL    HW214134   5.816   2.046   5.358 -1.4276 -0.9362 -0.8719
 4564SOL     OW14135   4.494   4.769   1.582  0.0906  0.0878  0.1445
 4564SOL    HW114136   4.466   4.716   1.657 -1.0518 -2.5614 -1.9736
 4564SOL    HW214137   4.414   4.783   1.532  1.2526 -0.9272 -2.1276
 4565SOL     OW14138   1.639   5.480   4.956  0.5631  0.4370 -0.0624
 4565SOL    HW114139   1.709   5.435   5.004  0.7657  1.3105  0.4854
 4565SOL    HW214140   1.561   5.466   5.009  0.5189  0.2797 -0.1693
 4566SOL     OW14141   0.857   0.886   5.588  0.4313  0.6662 -0.1268
 4566SOL    HW114142   0.882   0.797   5.563 -1.3023  0.1778 -0.2669
 4566SOL    HW214143   0.918   0.910   5.657  1.5652 -0.2370 -0.7886
 4567SOL     OW14144   1.951   5.424   4.777  0.1335 -0.3753 -0.3518
 4567SOL    HW114145   1.902   5.489   4.827  0.0344 -0.0313 -0.8822
 4567SOL    HW214146   1.888   5.393   4.712  0.1323 -1.1237 -0.0013
 4568SOL     OW14147   3.489   4.040   0.381  0.1054 -0.0258 -0.2348
 4568SOL    HW114148   3.456   3.955   0.410 -2.1276  0.8045 -0.0883
 4568SOL    HW214149   3.491   4.093   0.461  1.7978 -0.0062 -0.2668
 4569SOL     OW14150   0.094   0.192   5.056 -0.7758 -0.5533  0.3295
 4569SOL    HW114151   0.146   0.115   5.031 -0.3101 -0.2891  0.4847
 4569SOL    HW214152   0.082   0.240   4.974 -0.0412 -0.1685  0.4478
 4570SOL     OW14153   0.572   2.819   1.316  0.2194 -0.8940 -0.3133
 4570SOL    HW114154   0.611   2.882   1.256  1.7540  0.3534  1.8575
 4570SOL    HW214155   0.647   2.779   1.361 -0.8616 -1.0397  1.4652
 4571SOL     OW14156   2.221   1.908   0.718  0.2763 -0.6509 -0.5686
 4571SOL    HW114157   2.196   1.831   0.769 -0.1432 -1.0272 -1.3193
 4571SOL    HW214158   2.257   1.873   0.637  1.9119 -0.0765 -0.1261
 4572SOL     OW14159   4.477   2.106   1.262 -0.9439  0.2441 -0.1874
 4572SOL    HW114160   4.560   2.154   1.259 -0.2953 -0.7793  0.6507
 4572SOL    HW214161   4.490   2.032   1.202 -1.9007  1.0142 -1.3984
 4573SOL     OW14162   3.638   0.932   2.449 -0.4853 -0.5457  0.0005
 4573SOL    HW114163   3.691   0.898   2.377  1.2726 -1.4292  1.6143
 4573SOL    HW214164   3.618   0.855   2.502 -0.0695  0.3009  1.4596
 4574SOL     OW14165   5.094   4.953   0.941 -0.0872  0.1581  0.3633
 4574SOL    HW114166   5.175   4.903   0.950 -0.7952 -1.1110 -0.1239
 4574SOL    HW214167   5.114   5.018   0.873  0.3022 -0.6336 -0.2984
 4575SOL     OW14168   2.318   4.511   2.534 -0.3580 -0.3719 -0.0989
 4575SOL    HW114169   2.293   4.420   2.553  0.0085 -0.1241  1.7089
 4575SOL    HW214170   2.323   4.553   2.620  0.3539  1.1419 -0.8483
 4576SOL     OW14171   4.159   3.693   5.050 -0.4291 -0.0180  0.2534
 4576SOL    HW114172   4.215   3.771   5.057  1.7508 -1.5038  0.5189
 4576SOL    HW214173   4.146   3.681   4.956 -0.6649  0.5791  0.2045
 4577SOL     OW14174   3.537   5.983   1.727 -0.2651 -0.3139  0.1766
 4577SOL    HW114175   3.572   6.070   1.748 -2.2680  0.3450  1.0236
 4577SOL    HW214176   3.614   5.932   1.702  1.0446  1.5326  0.2058
 4578SOL     OW14177   0.756   2.991   4.490  0.0972  0.7477 -0.2085
 4578SOL    HW114178   0.748   2.928   4.562 -1.1246 -0.0177 -0.9897
 4578SOL    HW214179   0.733   3.075   4.529 -1.8588  0.1429  0.0246
 4579SOL     OW14180   5.878   5.867   3.646  0.4594 -0.1503 -0.4624
 4579SOL    HW114181   5.952   5.806   3.636  0.3836 -0.1458 -1.0531
 4579SOL    HW214182   5.918   5.948   3.678  0.2728 -1.2978  3.1795
 4580SOL     OW14183   3.748   2.500   3.406  0.1877  0.0734 -0.3050
 4580SOL    HW114184   3.756   2.410   3.375  0.7498  0.4532 -1.3607
 4580SOL    HW214185   3.699   2.544   3.337  0.5604  0.7254 -0.1620
 4581SOL     OW14186   2.695   4.987   3.954 -0.0233  0.2319  0.5223
 4581SOL    HW114187   2.752   4.974   4.030 -0.4849  0.1303  0.8526
 4581SOL    HW214188   2.716   5.075   3.923 -0.6467  0.7266  1.4611
 4582SOL     OW14189   1.643   2.508   5.647  0.0109  0.3001  0.7629
 4582SOL    HW114190   1.683   2.593   5.628  0.6035 -0.1487 -0.0428
 4582SOL    HW214191   1.549   2.524   5.639  0.1697  0.5461 -0.8876
 4583SOL     OW14192   5.927   5.755   0.660  0.5077 -0.1446 -0.2485
 4583SOL    HW114193   6.020   5.732   0.655  0.6903  0.7197 -1.0144
 4583SOL    HW214194   5.922   5.846   0.631 -0.4769  0.1136  0.6275
 4584SOL     OW14195   4.787   3.503   0.058 -0.2010 -0.1110  0.9105
 4584SOL    HW114196   4.691   3.501   0.057 -0.2022  0.1105 -0.3656
 4584SOL    HW214197   4.809   3.499   0.151 -1.4677  0.5213  1.2711
 4585SOL     OW14198   5.019   2.153   5.422  0.1368  0.5446  0.6567
 4585SOL    HW114199   5.064   2.135   5.505  1.1916 -1.2268 -0.2524
 4585SOL    HW214200   5.054   2.238   5.395 -0.1600  1.1089  1.9549
 4586SOL     OW14201   2.705   2.401   4.859  0.3846  0.5599  0.7077
 4586SOL    HW114202   2.743   2.326   4.904 -0.7910  0.7338  2.0671
 4586SOL    HW214203   2.735   2.393   4.769  0.8880 -1.1273  0.9944
 4587SOL     OW14204   5.037   5.712   4.508 -0.2391  0.1628  0.0459
 4587SOL    HW114205   5.082   5.650   4.566 -0.9749 -0.1009  0.3491
 4587SOL    HW214206   5.046   5.796   4.552  1.2247  0.3778 -0.6312
 4588SOL     OW14207   0.783   3.939   4.987  0.7636 -0.0686 -0.0987
 4588SOL    HW114208   0.771   4.031   5.011  0.3973  0.3336 -1.7463
 4588SOL    HW214209   0.809   3.897   5.069 -1.8551  0.9448  1.3713
 4589SOL     OW14210   0.153   1.263   4.089 -0.3814 -0.1419 -0.0466
 4589SOL    HW114211   0.147   1.177   4.130 -1.0360 -0.7716 -1.4088
 4589SOL    HW214212   0.232   1.302   4.127 -0.0533 -1.3428  0.5655
 4590SOL     OW14213   4.610   1.920   4.284  0.0762  0.2330  0.4467
 4590SOL    HW114214   4.549   1.991   4.306  0.2024  0.7534 -0.7955
 4590SOL    HW214215   4.696   1.961   4.290  0.1612  0.1363 -0.0976
 4591SOL     OW14216   1.012   4.736   5.791 -0.0373  0.0186 -0.7938
 4591SOL    HW114217   0.998   4.743   5.885  0.8427 -0.6600 -0.5970
 4591SOL    HW214218   0.935   4.778   5.752 -1.1950 -1.1033  0.2045
 4592SOL     OW14219   4.904   3.057   4.061 -0.3307 -0.2643 -0.0071
 4592SOL    HW114220   4.932   3.020   3.977  0.8255 -0.5727  0.5002
 4592SOL    HW214221   4.929   2.992   4.126 -0.0257  0.5422  0.7099
 4593SOL     OW14222   4.298   1.656   2.168  0.1410  0.2204 -0.3789
 4593SOL    HW114223   4.226   1.679   2.225 -0.3254 -0.8716 -0.4949
 4593SOL    HW214224   4.364   1.617   2.226  0.3736  0.6463 -0.3570
 4594SOL     OW14225   4.825   2.328   5.778 -0.0514 -0.3950  0.0713
 4594SOL    HW114226   4.803   2.388   5.707 -1.1056 -0.6094  0.2012
 4594SOL    HW214227   4.796   2.242   5.747 -1.4335 -0.3389  1.1341
 4595SOL     OW14228   2.630   5.701   4.726  0.1346 -0.0837  0.1152
 4595SOL    HW114229   2.578   5.653   4.791  0.3028 -0.4255 -0.0045
 4595SOL    HW214230   2.696   5.746   4.778 -0.4447  0.5790  0.2993
 4596SOL     OW14231   5.391   0.304   4.716  0.0417 -0.3662  0.1420
 4596SOL    HW114232   5.439   0.361   4.776  1.5067  0.8807 -2.0940
 4596SOL    HW214233   5.455   0.239   4.688 -0.8658 -1.4647  0.5477
 4597SOL     OW14234   1.686   6.063   0.080  0.7994  0.1175 -0.1841
 4597SOL    HW114235   1.690   5.968   0.066 -2.3403  0.0793 -1.5646
 4597SOL    HW214236   1.639   6.073   0.163  0.3314  0.4632 -0.4895
 4598SOL     OW14237   1.069   2.098   0.934 -0.1020  0.2357  0.3455
 4598SOL    HW114238   1.048   2.007   0.956 -0.5670  0.3673  0.4666
 4598SOL    HW214239   1.050   2.146   1.014 -2.0159  0.7544 -0.3656
 4599SOL     OW14240   5.666   3.288   2.113  0.3689  0.3382 -0.0812
 4599SOL    HW114241   5.590   3.271   2.057 -0.4232  0.3589  0.9684
 4599SOL    HW214242   5.641   3.254   2.199  1.9736 -0.6733  0.0285
 4600SOL     OW14243   1.521   0.911   3.991  0.9554 -0.0281 -0.0843
 4600SOL    HW114244   1.453   0.896   4.056  1.1398 -0.6795 -0.0349
 4600SOL    HW214245   1.570   0.986   4.025  1.3678 -0.6848  0.7995
 4601SOL     OW14246   1.837   5.308   5.040  0.1502 -0.4105  0.4244
 4601SOL    HW114247   1.902   5.308   4.970 -1.2677  0.3743 -0.9666
 4601SOL    HW214248   1.798   5.220   5.037 -1.4111  0.2623 -1.3347
 4602SOL     OW14249   3.686   2.484   1.013 -0.1813  0.1383  0.4450
 4602SOL    HW114250   3.646   2.398   0.997  1.2898 -0.5602  0.3436
 4602SOL    HW214251   3.651   2.539   0.943 -0.9254 -0.4456  0.3371
 4603SOL     OW14252   4.267   4.057   5.826  0.5437  0.1007  0.1807
 4603SOL    HW114253   4.308   3.979   5.790  1.8982  1.0574 -0.4403
 4603SOL    HW214254   4.335   4.098   5.879  0.0055  1.0825  0.1428
 4604SOL     OW14255   3.004   5.863   4.851  0.4738 -0.2459 -0.3673
 4604SOL    HW114256   3.065   5.808   4.802  1.4482  1.6559 -1.3953
 4604SOL    HW214257   3.056   5.896   4.924  0.4571  0.7377 -0.7886
 4605SOL     OW14258   3.173   1.509   4.896 -0.5034  0.3567 -0.1300
 4605SOL    HW114259   3.162   1.506   4.991 -0.4043  0.0742 -0.1247
 4605SOL    HW214260   3.126   1.587   4.868  2.1034  2.3185  0.5251
 4606SOL     OW14261   5.338   1.733   3.692 -0.4676 -0.2528 -0.2285
 4606SOL    HW114262   5.377   1.731   3.604 -0.7918  0.2405 -0.3870
 4606SOL    HW214263   5.314   1.824   3.705  0.4605 -0.1298  0.7664
 4607SOL     OW14264   5.795   4.819   5.281 -0.3490  0.3764  0.1759
 4607SOL    HW114265   5.786   4.782   5.369  3.0079  0.5936  0.7516
 4607SOL    HW214266   5.797   4.743   5.223  1.4219 -0.1116  0.7999
 4608SOL     OW14267   3.934   0.042   2.914 -0.2745  0.4252  0.0749
 4608SOL    HW114268   3.902  -0.014   2.985  0.0170  0.4539  0.2297
 4608SOL    HW214269   3.969   0.119   2.959  2.6986 -0.8280  0.1586
 4609SOL     OW14270   4.624   0.049   5.758  0.0076 -0.0566  0.0187
 4609SOL    HW114271   4.640   0.143   5.763 -0.7467  0.0564  0.4606
 4609SOL    HW214272   4.541   0.036   5.805 -2.3723 -0.2926 -3.8180
 4610SOL     OW14273   3.227   4.329   4.455  0.5124 -0.0105 -0.2870
 4610SOL    HW114274   3.135   4.304   4.447  0.4953 -0.0071 -0.0964
 4610SOL    HW214275   3.269   4.293   4.377  0.3396  0.0328 -0.3991
 4611SOL     OW14276   5.016   5.709   1.619 -0.3266 -0.1710  0.2456
 4611SOL    HW114277   4.949   5.659   1.572  0.8362 -1.1932 -0.4037
 4611SOL    HW214278   4.993   5.699   1.711  0.8620 -3.6125  0.3212
 4612SOL     OW14279   3.565   2.647   0.284 -0.0413  0.7167  0.0868
 4612SOL    HW114280   3.475   2.643   0.251  0.4795 -2.6223 -1.4113
 4612SOL    HW214281   3.608   2.711   0.227 -0.8914  0.4234 -0.9385
 4613SOL     OW14282   0.356   3.988   3.285 -0.1149  0.0635 -0.2841
 4613SOL    HW114283   0.348   3.974   3.380 -0.7740  1.1045 -0.1675
 4613SOL    HW214284   0.450   3.979   3.268 -0.0202 -0.4080  0.4245
 4614SOL     OW14285   4.051   3.489   4.765  0.0953 -0.2197 -0.4556
 4614SOL    HW114286   4.073   3.463   4.675  0.4190 -2.1798  0.1371
 4614SOL    HW214287   3.982   3.429   4.791  0.4719 -0.1259  0.8246
 4615SOL     OW14288   0.297   3.149   4.398  0.2901  0.1252  0.2324
 4615SOL    HW114289   0.359   3.076   4.392  2.0261  1.2760  2.5635
 4615SOL    HW214290   0.221   3.112   4.442  0.1272 -0.8142 -0.7853
 4616SOL     OW14291   4.900   0.929   3.887  0.2876  0.3056  0.0699
 4616SOL    HW114292   4.979   0.982   3.896 -0.4995  1.2054  2.2141
 4616SOL    HW214293   4.931   0.839   3.896  1.4472  0.3825 -2.3024
 4617SOL     OW14294   4.447   0.259   4.812  0.2718 -0.3330 -0.2113
 4617SOL    HW114295   4.374   0.297   4.763 -0.7226 -0.4765  1.0968
 4617SOL    HW214296   4.525   0.296   4.771 -0.5941  1.7503 -0.1224
 4618SOL     OW14297   1.290   2.613   1.189 -0.3327 -0.6732 -0.0920
 4618SOL    HW114298   1.224   2.616   1.120 -0.8770  1.0807  0.4631
 4618SOL    HW214299   1.241   2.623   1.270  0.6251  1.3484  0.2939
 4619SOL     OW14300   1.273   1.273   5.650  0.8845  0.2957 -0.2877
 4619SOL    HW114301   1.355   1.309   5.683  1.3952 -1.2359  0.2159
 4619SOL    HW214302   1.215   1.348   5.643  1.2767  1.0060  2.5515
 4620SOL     OW14303   3.803   3.716   1.011 -0.0656  0.3129  0.0131
 4620SOL    HW114304   3.746   3.788   0.983 -0.9365 -1.0170 -1.8840
 4620SOL    HW214305   3.783   3.705   1.104 -1.5980  1.0518 -0.1857
 4621SOL     OW14306   5.351   4.320   4.734  0.1212 -0.1057  0.3966
 4621SOL    HW114307   5.429   4.373   4.745 -0.0183 -0.1175  1.5935
 4621SOL    HW214308   5.376   4.233   4.765  0.3424 -0.7859 -1.5228
 4622SOL     OW14309   4.124   4.638   1.777 -0.4922 -0.2087  0.5151
 4622SOL    HW114310   4.031   4.640   1.756 -0.1888  0.6275 -0.9175
 4622SOL    HW214311   4.127   4.630   1.872 -2.0335  0.6042  0.6692
 4623SOL     OW14312   1.966   5.443   3.457 -0.2435  0.0524 -0.2184
 4623SOL    HW114313   2.009   5.528   3.462 -1.0803  0.4472  0.6408
 4623SOL    HW214314   1.996   5.397   3.535  0.8752 -0.7862 -1.1161
 4624SOL     OW14315   3.986   4.485   0.727 -0.2750 -0.5546 -0.0993
 4624SOL    HW114316   4.037   4.437   0.661  0.3693 -1.9528  1.3630
 4624SOL    HW214317   4.041   4.561   0.748  0.5329 -1.2647  0.3958
 4625SOL     OW14318   1.435   2.779   0.881 -0.0777  0.4429  0.1707
 4625SOL    HW114319   1.348   2.809   0.855  0.4186  0.9488 -0.9605
 4625SOL    HW214320   1.453   2.706   0.822  1.0962  1.6545 -1.0508
 4626SOL     OW14321   0.838   4.461   4.446  0.7638  0.3219 -0.1194
 4626SOL    HW114322   0.806   4.412   4.521  1.1746  0.5818  0.2262
 4626SOL    HW214323   0.931   4.439   4.440  0.3616 -1.1406 -1.6617
 4627SOL     OW14324   0.225   0.200   3.645  0.0722 -0.0853 -0.3358
 4627SOL    HW114325   0.254   0.154   3.724 -2.3131 -1.3290 -0.0805
 4627SOL    HW214326   0.190   0.131   3.588 -1.3156  1.1224 -1.0326
 4628SOL     OW14327   2.429   1.429   2.840  0.2789  0.0925 -0.0414
 4628SOL    HW114328   2.416   1.405   2.748  0.5121 -1.2418  0.2596
 4628SOL    HW214329   2.359   1.383   2.887  0.7415 -0.0203  0.5528
 4629SOL     OW14330   0.890   5.996   2.473 -0.2165 -0.0900 -0.1120
 4629SOL    HW114331   0.894   5.943   2.394 -0.1976  0.7376 -0.6811
 4629SOL    HW214332   0.926   5.940   2.542 -3.0309 -1.9531 -0.0209
 4630SOL     OW14333   0.008   3.482   3.685  0.0180  0.4973 -0.0934
 4630SOL    HW114334  -0.047   3.444   3.617  1.2832  0.9489 -1.4197
 4630SOL    HW214335   0.018   3.412   3.750  2.3599 -1.6185 -2.4974
 4631SOL     OW14336   3.163   2.577   3.946  0.3322  0.4463  0.0335
 4631SOL    HW114337   3.200   2.564   4.033  0.0663  2.7641  0.5751
 4631SOL    HW214338   3.070   2.591   3.962  0.2079  0.4603 -0.6759
 4632SOL     OW14339   1.561   3.854   5.775  0.1632  0.5893  0.1214
 4632SOL    HW114340   1.539   3.931   5.723 -0.6696  1.0881  1.1861
 4632SOL    HW214341   1.497   3.854   5.847  1.8151  0.4208  1.6518
 4633SOL     OW14342   3.164   6.007   1.228 -0.0555  0.0649  0.3794
 4633SOL    HW114343   3.252   6.032   1.197 -0.1416  0.7663  0.6841
 4633SOL    HW214344   3.125   6.090   1.258 -0.8812 -0.2161  0.0961
 4634SOL     OW14345   5.958   5.971   2.016  0.2654  0.4236 -0.8610
 4634SOL    HW114346   5.980   6.060   1.989  0.4524  0.6196 -0.0973
 4634SOL    HW214347   6.000   5.961   2.101  1.3801 -0.8721 -1.5277
 4635SOL     OW14348   4.190   0.558   6.066  0.2063  0.1239 -0.2066
 4635SOL    HW114349   4.203   0.556   6.160 -0.0541  0.6291 -0.1541
 4635SOL    HW214350   4.273   0.529   6.029  0.3023 -0.0862  0.1769
 4636SOL     OW14351   5.384   2.106   0.856 -0.1714 -0.1086 -0.1816
 4636SOL    HW114352   5.402   2.105   0.950  0.4290 -2.2657 -0.2596
 4636SOL    HW214353   5.470   2.097   0.815 -0.5703 -0.8735 -0.8769
 4637SOL     OW14354   1.404   4.438   1.715 -0.2595  0.1468 -0.8742
 4637SOL    HW114355   1.348   4.509   1.746 -1.3132 -1.0602  0.1517
 4637SOL    HW214356   1.478   4.438   1.775  0.9618  1.8024 -2.2840
 4638SOL     OW14357   1.792   2.753   4.396 -0.0297  0.1532  0.7032
 4638SOL    HW114358   1.848   2.821   4.358  1.4860 -1.2859  0.2243
 4638SOL    HW214359   1.755   2.707   4.320  1.0436 -1.1707  0.9450
 4639SOL     OW14360   3.529   5.886   4.677 -0.0575  0.0575 -0.3173
 4639SOL    HW114361   3.522   5.949   4.749 -1.4427  1.0173 -1.2414
 4639SOL    HW214362   3.579   5.813   4.714  0.8809  1.3180  1.0400
 4640SOL     OW14363   4.803   2.422   1.490  0.1842  0.0771  0.2496
 4640SOL    HW114364   4.754   2.444   1.569 -1.0220 -1.6435  0.0336
 4640SOL    HW214365   4.736   2.392   1.428  1.2580  0.0660 -0.9361
 4641SOL     OW14366   0.053   5.636   0.606 -0.1028 -0.2355 -0.2142
 4641SOL    HW114367   0.015   5.549   0.595 -1.2744  0.1914  0.2211
 4641SOL    HW214368   0.058   5.673   0.518 -0.4941 -0.3979 -0.3058
 4642SOL     OW14369   1.262   5.509   2.612  0.1138 -0.0689  0.5485
 4642SOL    HW114370   1.246   5.542   2.700 -0.6997  0.6531  0.1504
 4642SOL    HW214371   1.184   5.535   2.562  0.4186 -0.7338 -0.3083
 4643SOL     OW14372   5.970   2.609   5.668  0.1212  0.2928 -0.0063
 4643SOL    HW114373   6.006   2.571   5.587 -0.7648  0.4903 -0.5074
 4643SOL    HW214374   5.876   2.591   5.663 -0.0316  0.8696  0.6734
 4644SOL     OW14375   2.472   2.876   0.462  0.3836  0.2127  0.2943
 4644SOL    HW114376   2.529   2.943   0.425 -0.3345  0.8042  0.2416
 4644SOL    HW214377   2.417   2.923   0.525  1.3719 -0.7033  1.9374
 4645SOL     OW14378   5.888   2.003   2.274 -1.6374 -0.2024  0.0830
 4645SOL    HW114379   5.820   1.945   2.239 -0.6140 -1.1138 -0.4836
 4645SOL    HW214380   5.934   2.035   2.196 -1.5964  0.6205  0.4411
 4646SOL     OW14381   5.257   0.812   2.800 -0.2344  0.0426  0.0602
 4646SOL    HW114382   5.335   0.786   2.751 -0.5971  0.1447 -0.5779
 4646SOL    HW214383   5.193   0.743   2.781  0.0315 -0.6109  1.4366
 4647SOL     OW14384   3.879   0.576   5.751  0.3038  0.6375  0.7679
 4647SOL    HW114385   3.890   0.508   5.684  0.3300  1.7484 -0.3955
 4647SOL    HW214386   3.881   0.529   5.834  1.9179 -0.6075  0.0740
 4648SOL     OW14387   4.074   3.797   4.750 -0.8185 -0.4319  0.4607
 4648SOL    HW114388   4.017   3.725   4.724 -1.2967  0.2492 -0.4040
 4648SOL    HW214389   4.162   3.760   4.747 -1.1238 -1.2506  0.9950
 4649SOL     OW14390   3.972   6.031   5.365 -0.0486  0.0282  0.4084
 4649SOL    HW114391   3.882   6.017   5.339  0.2420  0.8176 -1.1194
 4649SOL    HW214392   4.023   5.975   5.307  0.4948  0.1040  0.8008
 4650SOL     OW14393   1.797   3.913   1.914 -0.0463 -0.1254  0.0237
 4650SOL    HW114394   1.766   3.871   1.833 -1.7966  1.1346 -0.0051
 4650SOL    HW214395   1.887   3.881   1.924  0.0348 -0.7502 -2.1210
 4651SOL     OW14396   4.955   3.046   3.772  0.1783 -0.2806  0.8871
 4651SOL    HW114397   4.862   3.071   3.768  0.0042 -1.0643 -0.8789
 4651SOL    HW214398   4.958   2.960   3.729  2.0378  0.7716 -1.2855
 4652SOL     OW14399   0.071   0.092   1.981  0.2797 -0.5186 -0.3634
 4652SOL    HW114400   0.062   0.084   2.076 -0.6312 -0.0656 -0.3936
 4652SOL    HW214401   0.050   0.184   1.963  2.0896 -0.1640 -0.8417
 4653SOL     OW14402   4.519   0.365   5.973 -0.5571  0.0624  0.4986
 4653SOL    HW114403   4.562   0.448   5.992 -0.3406 -0.3169  1.7271
 4653SOL    HW214404   4.591   0.303   5.963 -0.7310 -0.0513 -0.1336
 4654SOL     OW14405   2.808   3.860   0.230  0.3005  0.8701  0.0840
 4654SOL    HW114406   2.732   3.918   0.238 -1.3416 -1.2812  1.3883
 4654SOL    HW214407   2.797   3.818   0.144 -0.0883  0.4756  0.3201
 4655SOL     OW14408   1.039   2.259   4.569 -0.1321 -0.2483 -0.3473
 4655SOL    HW114409   1.017   2.174   4.531  0.3757 -0.6876  0.3184
 4655SOL    HW214410   1.133   2.255   4.584 -0.3350 -0.1966  1.1656
 4656SOL     OW14411   5.173   1.512   0.638 -0.1419 -0.6209 -0.9856
 4656SOL    HW114412   5.160   1.564   0.717  1.0573 -1.6312 -0.0715
 4656SOL    HW214413   5.092   1.523   0.588 -1.1134 -0.2941  0.5864
 4657SOL     OW14414   3.243   0.098   4.427  0.4378 -0.5232 -0.5824
 4657SOL    HW114415   3.237   0.186   4.391 -0.5242 -1.3036 -2.4465
 4657SOL    HW214416   3.179   0.096   4.497  0.6466  0.3177 -0.3560
 4658SOL     OW14417   0.729   4.045   6.006  0.2394 -0.1142  0.3312
 4658SOL    HW114418   0.821   4.049   6.033  0.7304 -0.4271 -1.2232
 4658SOL    HW214419   0.691   4.125   6.042  1.4354  0.6772 -0.0914
 4659SOL     OW14420   0.347   3.670   0.687 -0.3584 -0.2758  0.2935
 4659SOL    HW114421   0.404   3.709   0.622  0.7018  1.0591  1.9226
 4659SOL    HW214422   0.338   3.579   0.661  0.0911  0.1883 -1.6243
 4660SOL     OW14423   0.412   0.826   4.588  0.0510  0.5804  0.0939
 4660SOL    HW114424   0.439   0.887   4.518  0.0139  1.1402  0.5592
 4660SOL    HW214425   0.476   0.755   4.583 -0.1145  0.4755 -0.6927
 4661SOL     OW14426   0.521   1.687   2.377 -0.2649 -0.1109 -0.5619
 4661SOL    HW114427   0.485   1.682   2.465 -1.3454  0.3324 -0.9672
 4661SOL    HW214428   0.449   1.662   2.319  0.1178  0.5995 -1.3761
 4662SOL     OW14429   3.955   0.947   3.107  0.2786  0.0735 -0.3238
 4662SOL    HW114430   3.997   0.885   3.166 -0.5866  0.7053  1.0113
 4662SOL    HW214431   3.932   0.895   3.030 -2.2707 -1.8903  1.5458
 4663SOL     OW14432   1.355   1.287   2.028 -0.5951 -0.1719 -0.7257
 4663SOL    HW114433   1.409   1.251   2.099  1.1122 -0.5319 -2.1519
 4663SOL    HW214434   1.319   1.209   1.984 -0.1170 -0.0102 -1.4032
 4664SOL     OW14435   2.470   1.348   5.666  0.2038 -0.5318  0.1082
 4664SOL    HW114436   2.492   1.268   5.618 -1.3294 -1.2190  0.4978
 4664SOL    HW214437   2.512   1.337   5.751  2.7868  0.6138 -0.9184
 4665SOL     OW14438   4.126   5.637   4.264  0.1633  0.2384  0.3273
 4665SOL    HW114439   4.124   5.613   4.357  0.0883 -0.1727  0.2232
 4665SOL    HW214440   4.202   5.694   4.256  0.5962 -0.2971  0.5139
 4666SOL     OW14441   4.743   2.135   2.594 -0.1751 -0.3909 -0.0242
 4666SOL    HW114442   4.747   2.230   2.601 -0.4042 -0.3360 -0.5526
 4666SOL    HW214443   4.829   2.110   2.560  0.0790 -0.4315  0.6260
 4667SOL     OW14444   5.681   5.831   5.804 -0.2213 -0.2196 -0.3715
 4667SOL    HW114445   5.596   5.789   5.819  0.4401 -1.9867 -1.2634
 4667SOL    HW214446   5.677   5.864   5.715 -0.2052  0.3036 -0.1810
 4668SOL     OW14447   5.504   3.120   3.431 -0.1778 -0.3777  0.0065
 4668SOL    HW114448   5.548   3.044   3.392 -0.7900 -1.0280  0.5684
 4668SOL    HW214449   5.484   3.093   3.521 -1.5846 -0.0418 -0.1868
 4669SOL     OW14450   4.085   6.078   1.034 -0.2826 -0.1760  0.1426
 4669SOL    HW114451   4.148   6.075   0.962 -0.9907 -0.8813 -0.4700
 4669SOL    HW214452   4.030   6.001   1.020 -1.3780  0.5147  0.5697
 4670SOL     OW14453   0.574   3.841   0.138  0.3474 -0.0256 -0.0945
 4670SOL    HW114454   0.648   3.896   0.159  0.7398 -0.6121  0.0855
 4670SOL    HW214455   0.508   3.901   0.102  0.7188  0.5638  0.2057
 4671SOL     OW14456   1.245   2.321   3.459 -0.0516 -0.4599  0.1858
 4671SOL    HW114457   1.209   2.381   3.524  0.5530  0.2713 -0.1418
 4671SOL    HW214458   1.182   2.322   3.387 -0.6894 -1.2199  0.7120
 4672SOL     OW14459   4.270   0.100   1.243  0.1220  0.1108  0.1374
 4672SOL    HW114460   4.244   0.122   1.154  0.9530 -0.7899 -0.3414
 4672SOL    HW214461   4.351   0.050   1.233 -0.6819 -1.5015  1.2905
 4673SOL     OW14462   5.707   5.544   5.422 -0.5563  0.6187  0.3745
 4673SOL    HW114463   5.652   5.499   5.358 -1.0556 -0.2019  1.3608
 4673SOL    HW214464   5.716   5.482   5.494  2.4527  0.2938 -0.1099
 4674SOL     OW14465   3.652   0.693   5.471  0.0162 -0.1653 -0.6783
 4674SOL    HW114466   3.743   0.672   5.452  0.2778 -0.3664  0.7468
 4674SOL    HW214467   3.651   0.788   5.486  0.2221 -0.3380  0.4978
 4675SOL     OW14468   5.774   4.675   3.080  0.2210  0.6700 -0.2670
 4675SOL    HW114469   5.700   4.730   3.105 -0.0463 -0.6670  2.1815
 4675SOL    HW214470   5.850   4.716   3.120  0.6835  1.4064 -1.8177
 4676SOL     OW14471   2.396   3.973   0.016 -0.1004 -0.5438  0.2821
 4676SOL    HW114472   2.367   3.907  -0.047 -0.4920  1.2399 -1.5212
 4676SOL    HW214473   2.453   4.031  -0.035  1.1750 -0.1070  2.0893
 4677SOL     OW14474   0.675   5.079   0.013  0.1672 -0.2426  0.1825
 4677SOL    HW114475   0.688   4.985   0.000  1.1586 -0.0876 -0.1052
 4677SOL    HW214476   0.761   5.110   0.043 -0.2205  0.5294  0.5020
 4678SOL     OW14477   3.451   5.173   5.277 -0.1138  0.0814  0.4277
 4678SOL    HW114478   3.362   5.207   5.281 -0.2261 -0.2456  0.8794
 4678SOL    HW214479   3.463   5.148   5.185 -0.1390  1.0149  0.1598
 4679SOL     OW14480   4.056   5.656   1.813  0.1569  0.4172  0.5875
 4679SOL    HW114481   4.079   5.593   1.745  0.2416  1.2962 -0.2144
 4679SOL    HW214482   4.140   5.683   1.850  0.3676  2.0805 -0.9423
 4680SOL     OW14483   5.055   5.219   0.504 -0.1054 -0.3062 -0.1674
 4680SOL    HW114484   4.965   5.187   0.504 -0.5470  0.9027 -0.1676
 4680SOL    HW214485   5.067   5.259   0.418  0.2107  0.1255  0.0736
 4681SOL     OW14486   5.240   5.684   0.001 -0.5536  0.0182 -0.2215
 4681SOL    HW114487   5.226   5.720   0.088 -1.4908 -0.9079  0.0397
 4681SOL    HW214488   5.155   5.694  -0.043 -0.0883  0.4838 -1.0371
 4682SOL     OW14489   0.972   6.051   0.095 -0.5067 -0.3556 -0.3829
 4682SOL    HW114490   0.973   5.982   0.028 -1.1271 -2.6020  1.7817
 4682SOL    HW214491   0.883   6.051   0.129 -0.8688  2.4098 -1.0797
 4683SOL     OW14492   1.281   5.377   1.349 -0.4455  0.3508 -0.4263
 4683SOL    HW114493   1.282   5.283   1.332 -1.0979  0.1913  0.3398
 4683SOL    HW214494   1.262   5.416   1.264 -1.3728 -0.2898 -0.5374
 4684SOL     OW14495   0.174   0.568   1.664 -0.4959  0.1600  0.3690
 4684SOL    HW114496   0.101   0.613   1.622 -0.0610  2.0427  1.4594
 4684SOL    HW214497   0.181   0.610   1.751  0.9033 -1.0226  0.8781
 4685SOL     OW14498   1.082   4.705   1.479 -0.1843  0.2834 -0.4161
 4685SOL    HW114499   1.163   4.753   1.497 -0.7308  0.8771  0.5139
 4685SOL    HW214500   1.064   4.723   1.386  0.3178  0.8068 -0.4196
 4686SOL     OW14501   3.727   2.108   4.041 -0.3853  0.1718 -0.1188
 4686SOL    HW114502   3.741   2.201   4.055 -0.9383  0.2438  0.0068
 4686SOL    HW214503   3.765   2.066   4.117  1.4375  0.1501 -0.9960
 4687SOL     OW14504   1.166   0.450   4.857  0.0366  0.0717 -0.5740
 4687SOL    HW114505   1.231   0.467   4.788  0.7347  0.2668  0.1141
 4687SOL    HW214506   1.197   0.370   4.899  0.6182  0.9113  0.6469
 4688SOL     OW14507   4.321   0.561   4.636 -0.0966 -0.2931  0.6648
 4688SOL    HW114508   4.237   0.535   4.599 -0.3650  1.8824 -0.3907
 4688SOL    HW214509   4.303   0.579   4.728 -1.2057  1.7163  0.1070
 4689SOL     OW14510   4.945   4.547   3.725 -0.4629  0.4020  0.4033
 4689SOL    HW114511   5.004   4.622   3.712  0.9874 -0.9485 -1.4164
 4689SOL    HW214512   4.918   4.522   3.637  0.1745 -2.0112  0.8099
 4690SOL     OW14513   1.718   1.414   5.270 -0.2831  0.3373 -0.5331
 4690SOL    HW114514   1.657   1.347   5.239 -0.3305  0.4517 -0.6897
 4690SOL    HW214515   1.711   1.484   5.206 -0.6020  0.7047 -0.1080
 4691SOL     OW14516   5.220   0.554   3.422  0.6842 -0.3735  0.7759
 4691SOL    HW114517   5.285   0.484   3.433  2.3243  1.1774  1.3488
 4691SOL    HW214518   5.216   0.568   3.328  1.1087 -0.5612  0.7267
 4692SOL     OW14519   2.354   5.114   0.375 -0.5941 -0.5606 -0.1582
 4692SOL    HW114520   2.319   5.112   0.286 -0.9508 -0.6713 -0.0169
 4692SOL    HW214521   2.282   5.082   0.430 -0.1515 -1.1507  0.0941
 4693SOL     OW14522   1.941   4.580   3.619 -0.6769  0.0848 -0.4389
 4693SOL    HW114523   1.874   4.616   3.560  0.5316  1.9398 -0.7795
 4693SOL    HW214524   1.987   4.658   3.652  0.7301 -1.0902  0.4676
 4694SOL     OW14525   1.573   2.700   2.407  0.0260 -0.0849  0.1296
 4694SOL    HW114526   1.576   2.733   2.497 -0.9888 -1.1750  0.5879
 4694SOL    HW214527   1.537   2.774   2.357  1.1308  0.7285  0.4982
 4695SOL     OW14528   2.743   5.193   5.500 -0.3658  0.3658  0.3345
 4695SOL    HW114529   2.743   5.255   5.427 -1.4159  0.1563  0.1365
 4695SOL    HW214530   2.711   5.111   5.462  3.5030 -1.1448 -0.0520
 4696SOL     OW14531   1.658   4.834   0.772 -0.0798  0.1277  0.3051
 4696SOL    HW114532   1.738   4.864   0.815  0.3741 -2.0856  1.1685
 4696SOL    HW214533   1.669   4.856   0.680  2.2921 -1.5087  0.1204
 4697SOL     OW14534   4.837   5.098   3.689  0.4567  0.1409 -0.0309
 4697SOL    HW114535   4.815   5.039   3.618  0.0607 -0.0112  0.2181
 4697SOL    HW214536   4.819   5.048   3.769  3.0042 -0.5161  0.2179
 4698SOL     OW14537   4.451   1.313   3.433 -0.2072  0.0620 -0.5353
 4698SOL    HW114538   4.391   1.280   3.499  0.0679  0.8397  0.1215
 4698SOL    HW214539   4.522   1.353   3.483 -0.4191  1.4375 -1.2914
 4699SOL     OW14540   4.409   2.014   5.879 -0.4244  0.5434 -0.4202
 4699SOL    HW114541   4.407   1.926   5.840 -1.2753  1.2835 -2.1583
 4699SOL    HW214542   4.460   2.067   5.818 -0.1926  1.3460  0.4457
 4700SOL     OW14543   2.852   5.348   3.248 -0.9438 -0.3101  0.2546
 4700SOL    HW114544   2.770   5.317   3.209 -0.3648  0.5826 -1.7907
 4700SOL    HW214545   2.912   5.356   3.174  0.9349 -0.6641  1.6618
 4701SOL     OW14546   1.195   5.826   3.687 -0.0615 -0.5188  0.3689
 4701SOL    HW114547   1.226   5.770   3.616  0.7998 -1.0796  1.1710
 4701SOL    HW214548   1.268   5.829   3.749  0.3284  2.2874 -0.0858
 4702SOL     OW14549   5.844   5.296   0.884  0.1389 -0.0922  0.1521
 4702SOL    HW114550   5.936   5.315   0.866  0.0239 -0.1088 -0.4578
 4702SOL    HW214551   5.796   5.333   0.810 -0.1043 -2.8494 -1.2032
 4703SOL     OW14552   2.454   5.223   2.016  0.1579  0.2269  0.0076
 4703SOL    HW114553   2.407   5.141   2.036  2.9118 -1.2563  0.9074
 4703SOL    HW214554   2.517   5.199   1.948  2.0799  1.1508  1.3712
 4704SOL     OW14555   1.130   3.971   1.212  0.4110  0.0753 -0.2019
 4704SOL    HW114556   1.040   3.943   1.228  1.2871 -2.1387  1.3460
 4704SOL    HW214557   1.147   3.946   1.121  0.4071 -2.5371  0.4380
 4705SOL     OW14558   0.362   2.942   4.711  0.1028 -0.1047  0.1294
 4705SOL    HW114559   0.438   2.971   4.762  0.6447 -1.4597  0.1674
 4705SOL    HW214560   0.289   2.944   4.772  0.6398 -1.1987  0.8457
 4706SOL     OW14561   4.059   2.033   0.593  0.3675 -0.2639  0.2870
 4706SOL    HW114562   4.101   2.109   0.552  1.2570 -1.1609 -0.5299
 4706SOL    HW214563   4.042   1.973   0.520  2.1581 -1.9895  1.1947
 4707SOL     OW14564   0.126   5.031   2.120 -0.4479 -0.2766 -0.0041
 4707SOL    HW114565   0.051   5.069   2.166 -0.4407  1.3354 -1.2358
 4707SOL    HW214566   0.199   5.040   2.182 -0.5623  1.3418 -0.0541
 4708SOL     OW14567   5.337   3.523   4.303 -0.2906 -0.7821  0.2951
 4708SOL    HW114568   5.242   3.511   4.299 -0.2232 -2.0819  1.8104
 4708SOL    HW214569   5.353   3.605   4.257 -2.2466 -0.0633  0.8237
 4709SOL     OW14570   4.620   5.437   3.282 -0.0695 -0.2857 -0.2231
 4709SOL    HW114571   4.588   5.439   3.192  0.4951 -1.8779 -0.4970
 4709SOL    HW214572   4.582   5.358   3.319  0.1954  0.0259  0.7528
 4710SOL     OW14573   5.582   3.929   0.189  0.1360 -0.0534 -0.1342
 4710SOL    HW114574   5.583   3.846   0.140 -1.4330 -0.0853 -0.1702
 4710SOL    HW214575   5.574   3.903   0.280  2.0475  0.0361  0.1063
 4711SOL     OW14576   2.763   3.594   1.942  0.0154 -0.6548  0.0948
 4711SOL    HW114577   2.681   3.594   1.992  0.9496 -1.1161  1.7187
 4711SOL    HW214578   2.747   3.654   1.869 -0.5869  2.2962  2.4310
 4712SOL     OW14579   1.100   0.918   5.191 -0.2135 -0.0502 -0.1594
 4712SOL    HW114580   1.040   0.870   5.133  0.0674 -0.3261 -0.2225
 4712SOL    HW214581   1.043   0.951   5.261 -0.9299  2.0909 -1.6615
 4713SOL     OW14582   4.445   6.024   4.682  0.5822 -0.2305  0.7691
 4713SOL    HW114583   4.511   6.065   4.627  0.5799 -2.4938 -1.0764
 4713SOL    HW214584   4.364   6.071   4.660  0.7969 -0.3246 -0.2869
 4714SOL     OW14585   5.963   3.077   2.622  0.0739 -0.5878 -0.6263
 4714SOL    HW114586   6.009   3.107   2.700  0.2382 -2.2093 -0.0797
 4714SOL    HW214587   6.033   3.054   2.560 -0.0528  0.0191 -1.0090
 4715SOL     OW14588   0.690   4.490   3.785 -0.5332 -0.3578  0.0803
 4715SOL    HW114589   0.679   4.474   3.879 -1.5209  1.2796  0.2825
 4715SOL    HW214590   0.608   4.533   3.758  0.9441  2.0860 -0.8403
 4716SOL     OW14591   1.967   2.525   5.439 -0.3712  0.2948  0.1211
 4716SOL    HW114592   1.940   2.492   5.352  2.0053  0.1357 -0.6252
 4716SOL    HW214593   1.972   2.446   5.493 -0.0900  0.1486 -0.1141
 4717SOL     OW14594   3.392   4.995   1.839 -0.1358  0.1610  0.4921
 4717SOL    HW114595   3.342   4.985   1.920  0.1893  0.2666  0.7067
 4717SOL    HW214596   3.338   4.952   1.772  0.6451 -2.0176  1.1552
 4718SOL     OW14597   1.518   5.693   2.060  0.3101  0.0541 -0.0085
 4718SOL    HW114598   1.501   5.653   2.145  1.5491 -2.2956 -0.7668
 4718SOL    HW214599   1.613   5.689   2.049  0.4378  2.5979 -0.5137
 4719SOL     OW14600   4.246   2.777   5.742  0.4369  0.0090  0.7838
 4719SOL    HW114601   4.315   2.765   5.676 -0.6544 -0.5950 -0.2889
 4719SOL    HW214602   4.234   2.690   5.779  1.2032  0.3882  1.9919
 4720SOL     OW14603   4.982   1.651   4.782  0.4667 -0.2414 -0.5658
 4720SOL    HW114604   5.024   1.693   4.857  1.8035 -1.3014 -0.6896
 4720SOL    HW214605   5.031   1.682   4.706 -0.6847  0.5877 -1.0077
 4721SOL     OW14606   5.920   0.917   2.479 -0.2297  0.0697  0.1939
 4721SOL    HW114607   5.832   0.946   2.503  0.1030  2.3956 -1.0463
 4721SOL    HW214608   5.979   0.965   2.537  0.2983  0.3994 -0.5955
 4722SOL     OW14609   1.801   2.356   4.410 -0.8217  0.1963  0.4992
 4722SOL    HW114610   1.824   2.299   4.484 -0.0978 -0.7044 -0.3854
 4722SOL    HW214611   1.753   2.299   4.350  0.3777  0.3407 -0.6471
 4723SOL     OW14612   4.221   5.923   3.364  0.1445 -0.5645  0.2230
 4723SOL    HW114613   4.227   5.933   3.269 -0.5873  0.5734  0.2726
 4723SOL    HW214614   4.283   5.854   3.385  1.8375  0.5326 -0.8548
 4724SOL     OW14615   4.053   4.398   0.465  0.3699 -0.0561 -0.2506
 4724SOL    HW114616   4.035   4.446   0.384 -1.7035 -0.3242  0.0061
 4724SOL    HW214617   4.096   4.317   0.436 -1.2553 -0.6113 -1.2206
 4725SOL     OW14618   4.930   2.654   3.155  0.5773 -0.5089 -0.1652
 4725SOL    HW114619   4.935   2.573   3.105 -0.1736  0.2036 -1.4464
 4725SOL    HW214620   4.918   2.723   3.089 -0.6533  0.4413  0.9949
 4726SOL     OW14621   3.676   2.595   1.587 -0.5763  0.0939  0.3179
 4726SOL    HW114622   3.610   2.532   1.617  0.8809 -1.7895 -0.2530
 4726SOL    HW214623   3.657   2.606   1.494  0.3070 -0.9900 -0.0029
 4727SOL     OW14624   1.978   3.990   5.695  0.0540  0.0617  0.5665
 4727SOL    HW114625   2.027   4.044   5.756 -2.0396  1.3455  1.2219
 4727SOL    HW214626   1.915   3.943   5.749 -1.4785  0.8026 -0.4809
 4728SOL     OW14627   1.186   3.341   4.091 -0.1539 -0.0946  0.4065
 4728SOL    HW114628   1.096   3.369   4.073 -0.4374 -0.4741  1.1841
 4728SOL    HW214629   1.206   3.279   4.021 -0.3690  0.2696  0.0211
 4729SOL     OW14630   5.967   5.226   5.195 -0.3569  0.2873  0.2075
 4729SOL    HW114631   6.011   5.141   5.186  1.3242  1.2918 -1.9908
 4729SOL    HW214632   6.012   5.267   5.269 -1.2609 -0.7366  1.3660
 4730SOL     OW14633   0.367   5.961   5.780 -0.1041 -0.0094  0.1691
 4730SOL    HW114634   0.299   6.000   5.725  0.1320  2.3211  1.4419
 4730SOL    HW214635   0.360   5.867   5.762 -3.1834  0.1928 -0.2873
 4731SOL     OW14636   0.895   3.194   1.826  0.1572 -0.4246  0.4751
 4731SOL    HW114637   0.901   3.279   1.871 -1.1075 -0.5299  0.9090
 4731SOL    HW214638   0.872   3.132   1.896 -0.4226 -0.8506 -0.0852
 4732SOL     OW14639   1.833   5.003   1.432  0.3827  0.0042  0.2345
 4732SOL    HW114640   1.895   4.943   1.390  1.3703  1.3417 -0.2883
 4732SOL    HW214641   1.872   5.022   1.518 -0.0576 -0.2864  0.5041
 4733SOL     OW14642   5.640   5.872   1.101  0.7349  0.5972 -0.1667
 4733SOL    HW114643   5.654   5.850   1.009  0.7627 -1.0757  0.2129
 4733SOL    HW214644   5.545   5.883   1.109  0.8092  1.6371 -0.5643
 4734SOL     OW14645   4.456   5.153   5.777 -0.0724 -0.2067 -0.5254
 4734SOL    HW114646   4.427   5.063   5.761  0.6829 -0.5837  0.1225
 4734SOL    HW214647   4.442   5.166   5.871  0.6296  0.0403 -0.4440
 4735SOL     OW14648   6.129   5.180   3.376  0.4144 -0.5897 -0.7737
 4735SOL    HW114649   6.048   5.149   3.335  0.5230 -0.0325 -1.4089
 4735SOL    HW214650   6.107   5.267   3.409 -0.3848 -1.8444  2.4420
 4736SOL     OW14651   3.323   6.079   5.899 -0.4349  0.2804 -0.3880
 4736SOL    HW114652   3.321   6.112   5.989 -2.4719  0.1185 -0.3181
 4736SOL    HW214653   3.404   6.028   5.893 -0.2001  0.4066  1.2981
 4737SOL     OW14654   3.863   1.219   3.154  0.0510  0.1215 -0.2841
 4737SOL    HW114655   3.810   1.238   3.076 -0.9357 -0.1575  0.2974
 4737SOL    HW214656   3.893   1.129   3.141 -0.9496 -0.2855  0.1023
 4738SOL     OW14657   5.169   0.366   3.021 -0.3861 -0.2303 -0.2439
 4738SOL    HW114658   5.089   0.401   3.061 -1.6582 -1.8410 -1.2327
 4738SOL    HW214659   5.141   0.284   2.981  1.8963 -1.0713 -0.2350
 4739SOL     OW14660   4.655   5.786   4.996  0.2879  0.3708  0.2078
 4739SOL    HW114661   4.632   5.719   4.932 -0.6831  0.7549  0.1335
 4739SOL    HW214662   4.736   5.825   4.962  0.2460 -0.0019 -0.3324
 4740SOL     OW14663   5.358   5.697   0.387  0.5505 -0.7264  0.1732
 4740SOL    HW114664   5.401   5.679   0.303  0.7245 -2.3525  0.5713
 4740SOL    HW214665   5.264   5.688   0.368  0.4998  0.4442 -0.1727
 4741SOL     OW14666   2.717   4.380   5.822 -0.3413 -0.0919 -0.8263
 4741SOL    HW114667   2.806   4.413   5.811 -0.3532  0.3631  0.2616
 4741SOL    HW214668   2.682   4.373   5.733  0.6165  0.1759 -1.2326
 4742SOL     OW14669   0.322   2.307   4.663 -0.2348  0.2513  0.7079
 4742SOL    HW114670   0.287   2.390   4.693  0.2169  0.6681  0.1031
 4742SOL    HW214671   0.415   2.310   4.689 -0.0385  0.2624  0.0158
 4743SOL     OW14672   0.242   1.110   2.278  0.2465 -0.1151 -0.5531
 4743SOL    HW114673   0.226   1.023   2.313  1.1692 -0.1912 -0.2865
 4743SOL    HW214674   0.230   1.169   2.352 -2.9177  0.3151 -1.2604
 4744SOL     OW14675   6.101   3.691   0.400 -0.0449  0.4949  0.2441
 4744SOL    HW114676   6.063   3.615   0.444  0.0379 -0.5862 -1.4445
 4744SOL    HW214677   6.196   3.677   0.404 -0.0029  0.8208  0.4478
 4745SOL     OW14678   1.500   5.451   3.051  0.0809 -0.0791  0.3967
 4745SOL    HW114679   1.412   5.486   3.059  0.2938  0.5380  0.0734
 4745SOL    HW214680   1.537   5.457   3.140 -0.0177  0.1484  0.4211
 4746SOL     OW14681   1.286   3.221   5.730 -0.0740 -0.3326 -0.1731
 4746SOL    HW114682   1.290   3.249   5.638  0.2863  3.4121  0.8316
 4746SOL    HW214683   1.377   3.205   5.754 -0.2234 -1.9638 -0.5642
 4747SOL     OW14684   5.816   4.652   2.777  0.1709  0.6100 -0.4050
 4747SOL    HW114685   5.804   4.722   2.841 -0.8762 -0.2400  0.3706
 4747SOL    HW214686   5.870   4.691   2.708 -0.0900  2.0561  0.1787
 4748SOL     OW14687   3.355   1.784   1.585 -0.5185 -0.8339  0.4833
 4748SOL    HW114688   3.263   1.806   1.567 -0.3299 -0.3019  0.1205
 4748SOL    HW214689   3.369   1.811   1.676 -0.9571 -1.7332  0.8240
 4749SOL     OW14690   0.004   2.136   4.185  0.6919 -0.0805 -0.0279
 4749SOL    HW114691   0.055   2.096   4.114 -0.9305 -0.7486 -0.8721
 4749SOL    HW214692  -0.076   2.083   4.189 -0.5214  1.7212  0.3617
 4750SOL     OW14693   1.857   1.326   0.076  0.1271 -0.0734 -0.4528
 4750SOL    HW114694   1.768   1.291   0.072  0.8786 -2.1684 -0.2222
 4750SOL    HW214695   1.855   1.391   0.147 -1.2303  0.0092 -0.5496
 4751SOL     OW14696   5.463   2.142   4.644  0.4084  0.3456  0.2510
 4751SOL    HW114697   5.375   2.104   4.649 -0.5491  2.3194 -0.4531
 4751SOL    HW214698   5.504   2.098   4.570  1.5198 -3.3136  2.7650
 4752SOL     OW14699   4.627   2.950   5.436 -0.0688  0.4123  0.6210
 4752SOL    HW114700   4.638   3.016   5.504  0.5373 -0.1272  1.0559
 4752SOL    HW214701   4.644   2.998   5.354 -2.3571  1.4511  0.6646
 4753SOL     OW14702   2.362   4.578   1.250  0.2901 -0.2699  0.0837
 4753SOL    HW114703   2.427   4.587   1.181  0.8276 -0.2380  0.5830
 4753SOL    HW214704   2.367   4.485   1.275 -1.2087 -0.7408 -1.1626
 4754SOL     OW14705   5.494   3.376   0.632 -0.1593 -0.0599 -0.2881
 4754SOL    HW114706   5.569   3.322   0.656 -0.6268 -1.0482 -0.9689
 4754SOL    HW214707   5.471   3.348   0.543 -1.4324  0.0868 -0.0327
 4755SOL     OW14708   0.618   0.834   5.746 -0.6505  0.4958  0.0076
 4755SOL    HW114709   0.565   0.905   5.710 -1.4640  0.3198  0.8032
 4755SOL    HW214710   0.704   0.844   5.705 -1.1445  1.1198 -0.9039
 4756SOL     OW14711   1.160   4.464   5.615  0.3418  0.4183  0.2323
 4756SOL    HW114712   1.225   4.429   5.554  1.6217  0.5845  1.4476
 4756SOL    HW214713   1.078   4.463   5.566  1.2690  0.2955 -1.3847
 4757SOL     OW14714   2.338   1.270   3.928  0.3838 -0.1622  0.3802
 4757SOL    HW114715   2.345   1.182   3.964 -1.0375  0.0054  1.1455
 4757SOL    HW214716   2.363   1.261   3.836 -0.5160 -1.5235  0.2465
 4758SOL     OW14717   3.210   3.617   2.561  0.0239  0.7871  0.5854
 4758SOL    HW114718   3.271   3.681   2.523  0.6841 -0.3461 -0.3546
 4758SOL    HW214719   3.214   3.542   2.501 -0.5171 -0.2464  1.7912
 4759SOL     OW14720   1.189   0.885   1.178  0.2386  0.8537 -0.0269
 4759SOL    HW114721   1.097   0.893   1.204 -0.1459  0.5923 -1.2428
 4759SOL    HW214722   1.186   0.863   1.085  1.5410  1.0765 -0.1448
 4760SOL     OW14723   4.489   0.732   3.077  0.0318  0.2213 -0.4383
 4760SOL    HW114724   4.466   0.686   2.996 -0.1364  0.2641 -0.4154
 4760SOL    HW214725   4.514   0.820   3.048  1.2507 -0.1568 -0.5782
 4761SOL     OW14726   5.264   2.050   0.284  0.1716  0.7504 -0.5823
 4761SOL    HW114727   5.275   1.969   0.335  1.3863  0.0241 -1.9091
 4761SOL    HW214728   5.338   2.104   0.309 -0.5950  1.4609  0.2394
 4762SOL     OW14729   4.159   5.479   0.564 -0.1597  0.5326  0.3145
 4762SOL    HW114730   4.223   5.488   0.635  1.2590 -3.7635 -0.1756
 4762SOL    HW214731   4.110   5.401   0.585 -1.0496  0.2438 -2.4510
 4763SOL     OW14732   4.393   5.608   4.888 -0.4956 -0.7254  0.2307
 4763SOL    HW114733   4.416   5.669   4.818 -2.5311 -0.8439 -0.5935
 4763SOL    HW214734   4.477   5.568   4.913  0.5799  0.8672 -0.6324
 4764SOL     OW14735   2.487   5.675   3.004  0.1559 -0.1352  0.4418
 4764SOL    HW114736   2.532   5.591   3.015  2.5457  0.9279 -0.5550
 4764SOL    HW214737   2.551   5.741   3.030 -0.9720  1.4764 -0.6435
 4765SOL     OW14738   1.040   1.635   0.202 -0.4556 -0.2687  0.1338
 4765SOL    HW114739   1.042   1.557   0.257 -0.8679 -1.2088 -1.1421
 4765SOL    HW214740   0.969   1.688   0.238  0.8227  0.2918  1.9759
 4766SOL     OW14741   3.779   5.622   1.880  0.4403 -0.3157  0.5423
 4766SOL    HW114742   3.855   5.616   1.822 -0.1207 -3.2110 -0.0834
 4766SOL    HW214743   3.788   5.707   1.923  3.1791  0.1034 -0.6228
 4767SOL     OW14744   3.390   0.232   2.978 -0.5609  0.1510 -0.5492
 4767SOL    HW114745   3.358   0.144   2.960 -0.3506 -0.4939  1.9092
 4767SOL    HW214746   3.311   0.287   2.978 -0.8868 -0.3153 -0.5582
 4768SOL     OW14747   4.897   6.118   0.271  0.4762  0.3738  0.2698
 4768SOL    HW114748   4.868   6.028   0.284  0.5411  0.3954  0.5885
 4768SOL    HW214749   4.984   6.121   0.310  1.0399  0.2372 -0.9647
 4769SOL     OW14750   1.374   3.802   6.027 -0.1161 -0.3477  0.2653
 4769SOL    HW114751   1.357   3.720   6.074 -0.3506  0.4282  1.5861
 4769SOL    HW214752   1.331   3.869   6.080  1.4080  0.8395  0.0746
 4770SOL     OW14753   2.009   2.769   2.009 -0.9756  0.1847 -0.5102
 4770SOL    HW114754   2.069   2.823   2.062 -0.2622  0.2562 -1.3514
 4770SOL    HW214755   1.942   2.740   2.070 -0.7722  1.1511  0.1951
 4771SOL     OW14756   4.163   4.375   1.718  0.5181 -0.3133 -0.1509
 4771SOL    HW114757   4.229   4.376   1.787  2.0366  1.4529 -1.5309
 4771SOL    HW214758   4.136   4.466   1.709  0.8434 -0.3796 -2.2813
 4772SOL     OW14759   5.060   5.575   3.678 -0.0869  0.5359  0.8675
 4772SOL    HW114760   5.004   5.497   3.686  0.5583 -0.1036 -0.5487
 4772SOL    HW214761   4.999   5.646   3.655 -0.3899 -0.0858 -0.3367
 4773SOL     OW14762   0.874   5.838   2.235  0.0804  0.5265 -0.3215
 4773SOL    HW114763   0.960   5.808   2.206  0.9729  2.0417  0.6359
 4773SOL    HW214764   0.831   5.867   2.154  1.4504  2.0460 -0.5703
 4774SOL     OW14765   0.909   4.646   2.622 -0.4296 -0.3315  0.2231
 4774SOL    HW114766   0.899   4.555   2.595 -0.7013 -0.1000 -0.4690
 4774SOL    HW214767   0.824   4.669   2.659 -0.6149 -0.1253 -0.3228
 4775SOL     OW14768   0.386   0.053   1.006 -0.2316 -0.1053  0.3247
 4775SOL    HW114769   0.423   0.092   0.927 -2.1834  0.9698 -0.1147
 4775SOL    HW214770   0.383   0.124   1.069 -2.7284  0.2495 -0.0983
 4776SOL     OW14771   5.241   5.220   1.984 -0.2873 -0.0622 -0.2893
 4776SOL    HW114772   5.193   5.138   1.972 -0.3462  0.0435 -0.8395
 4776SOL    HW214773   5.229   5.266   1.901  0.3560  0.1787 -0.2526
 4777SOL     OW14774   2.283   5.620   5.288 -0.5206 -0.2033  0.1294
 4777SOL    HW114775   2.344   5.593   5.357  2.0484  0.4448 -1.7156
 4777SOL    HW214776   2.236   5.541   5.264  1.9406 -1.5516 -0.5370
 4778SOL     OW14777   0.032   1.174   2.639 -0.6254  0.0377 -0.1536
 4778SOL    HW114778   0.067   1.183   2.727 -1.6182  0.7239  0.1839
 4778SOL    HW214779  -0.051   1.129   2.651  0.4248 -2.3071 -1.0226
 4779SOL     OW14780   5.714   0.243   5.228  0.2491  0.5034  0.1727
 4779SOL    HW114781   5.693   0.202   5.144  1.3084 -0.1896  0.2236
 4779SOL    HW214782   5.689   0.179   5.294  1.4126  0.1393  0.2778
 4780SOL     OW14783   0.905   3.191   4.028  0.6838 -0.2993  0.1869
 4780SOL    HW114784   0.840   3.133   4.066 -1.6988  0.5542 -2.2674
 4780SOL    HW214785   0.963   3.133   3.977  0.3043 -0.8215  0.3471
 4781SOL     OW14786   5.501   3.395   4.467  0.4344 -0.0766 -0.5226
 4781SOL    HW114787   5.514   3.339   4.391  2.2659  1.7459 -1.6483
 4781SOL    HW214788   5.443   3.464   4.437  0.6892  0.3262 -0.1011
 4782SOL     OW14789   3.501   1.974   3.934  0.0585  0.0948  0.0928
 4782SOL    HW114790   3.530   1.982   3.843 -0.7688 -2.2556 -0.4369
 4782SOL    HW214791   3.571   2.016   3.985  0.2779  1.9500 -1.6007
 4783SOL     OW14792   4.982   0.747   1.898 -0.4630 -0.2849  0.1891
 4783SOL    HW114793   4.982   0.667   1.846 -1.2782  0.2675 -0.6850
 4783SOL    HW214794   5.005   0.717   1.987 -0.6527 -1.4666 -0.1352
 4784SOL     OW14795   0.808   4.035   5.499  0.2723  0.1356 -0.0864
 4784SOL    HW114796   0.879   4.064   5.557 -0.6214  0.2992  0.9419
 4784SOL    HW214797   0.846   3.962   5.450  0.9467 -0.2451  0.9597
 4785SOL     OW14798   5.250   0.094   3.931  0.4588 -0.2905  0.2180
 4785SOL    HW114799   5.217   0.104   4.020  0.2553 -1.8097  0.3491
 4785SOL    HW214800   5.196   0.152   3.878  1.5112  1.7522  1.2413
 4786SOL     OW14801   1.900   1.635   1.305 -0.3354  0.0239 -0.1110
 4786SOL    HW114802   1.887   1.718   1.351  2.7949  1.2094 -1.0924
 4786SOL    HW214803   1.869   1.652   1.216  2.6010  1.1365 -1.0317
 4787SOL     OW14804   3.738   3.077   2.534  0.1149  0.1140 -0.4041
 4787SOL    HW114805   3.647   3.084   2.563  0.2154  1.1632 -0.2957
 4787SOL    HW214806   3.788   3.070   2.615  0.1632 -0.1634 -0.4547
 4788SOL     OW14807   5.074   0.642   2.146  0.1526  0.4478  0.0724
 4788SOL    HW114808   5.000   0.616   2.202  0.6627 -0.2610  0.4291
 4788SOL    HW214809   5.128   0.697   2.202  0.2207  0.4513  0.0034
 4789SOL     OW14810   6.128   0.528   4.396 -0.2485 -0.3104 -0.3932
 4789SOL    HW114811   6.173   0.596   4.445  1.0735 -1.6536  0.3495
 4789SOL    HW214812   6.194   0.492   4.337 -0.5008 -1.8273  0.1871
 4790SOL     OW14813   0.677   5.562   3.890 -0.2615  0.3090  0.7512
 4790SOL    HW114814   0.618   5.600   3.955 -1.8820  0.5623 -0.8105
 4790SOL    HW214815   0.760   5.607   3.904 -0.4810  0.2044  2.7592
 4791SOL     OW14816   3.927   4.058   0.411 -0.1689  0.0341 -0.0100
 4791SOL    HW114817   4.023   4.059   0.412 -0.1633 -0.5186  0.8163
 4791SOL    HW214818   3.904   4.033   0.321  0.4845 -0.8682  0.0562
 4792SOL     OW14819   0.487   1.264   5.189  0.0201 -0.4143 -0.3523
 4792SOL    HW114820   0.441   1.305   5.262 -0.8907  1.1693 -1.7305
 4792SOL    HW214821   0.580   1.273   5.211 -0.1684  1.8578 -0.2653
 4793SOL     OW14822   1.461   1.842   4.962  0.1142  0.3683 -0.1592
 4793SOL    HW114823   1.421   1.925   4.988  1.1594  1.0524 -0.6634
 4793SOL    HW214824   1.555   1.861   4.957  0.4031 -0.9230 -0.0068
 4794SOL     OW14825   0.644   4.461   4.976 -0.7236  0.2897 -0.4348
 4794SOL    HW114826   0.653   4.366   4.968  0.6001  0.4869 -1.7855
 4794SOL    HW214827   0.594   4.486   4.899 -1.4050  0.6689  0.1214
 4795SOL     OW14828   5.340   0.974   0.295  0.0542  0.3962  0.3787
 4795SOL    HW114829   5.381   0.940   0.374 -0.4978 -2.3602 -0.4355
 4795SOL    HW214830   5.384   1.058   0.280  2.5119 -0.5396  1.7665
 4796SOL     OW14831   1.755   5.249   3.967 -0.2837  0.6167 -0.5159
 4796SOL    HW114832   1.699   5.293   4.031  0.3417  0.9609 -0.1858
 4796SOL    HW214833   1.805   5.186   4.019 -1.2469 -0.5897 -1.0002
 4797SOL     OW14834   1.541   1.145   2.168 -0.2236  0.0673  0.0610
 4797SOL    HW114835   1.576   1.142   2.257  0.0837 -2.0490 -0.0832
 4797SOL    HW214836   1.587   1.074   2.122 -0.7117  0.8235 -1.6624
 4798SOL     OW14837   5.549   4.605   5.790  0.8825 -0.0788 -0.1037
 4798SOL    HW114838   5.605   4.528   5.803 -0.3205 -1.5019 -2.6854
 4798SOL    HW214839   5.481   4.597   5.856 -0.0196 -2.0948 -1.1937
 4799SOL     OW14840   1.760   5.271   5.371  0.0308  0.0807 -0.2746
 4799SOL    HW114841   1.691   5.214   5.337  0.6348 -0.1406 -1.1902
 4799SOL    HW214842   1.813   5.293   5.294  0.2315  1.2993  0.1916
 4800SOL     OW14843   4.437   1.552   1.528 -0.1009  0.3522  0.3988
 4800SOL    HW114844   4.368   1.616   1.514  0.0099  0.8323  1.8871
 4800SOL    HW214845   4.402   1.470   1.493  0.0745  1.3315 -2.2867
 4801SOL     OW14846   2.866   2.154   5.057  0.6073 -0.3295 -0.7189
 4801SOL    HW114847   2.948   2.188   5.023  1.0372 -0.4585  0.1684
 4801SOL    HW214848   2.892   2.082   5.115  0.1144  1.2801  1.6958
 4802SOL     OW14849   1.680   2.795   4.638 -0.0327 -0.4132  0.4415
 4802SOL    HW114850   1.642   2.883   4.634 -1.2612 -0.9075  0.5750
 4802SOL    HW214851   1.722   2.783   4.553 -0.3159  0.1191  0.2253
 4803SOL     OW14852   1.894   4.889   0.418  0.4395 -0.4629  0.4137
 4803SOL    HW114853   1.825   4.825   0.400 -0.5843  0.3472  1.3185
 4803SOL    HW214854   1.929   4.863   0.503 -0.5434  0.6177  1.1802
 4804SOL     OW14855   1.790   4.379   5.706 -0.5199 -0.3456  0.0647
 4804SOL    HW114856   1.812   4.379   5.613 -0.6417 -0.0239  0.0377
 4804SOL    HW214857   1.854   4.437   5.746 -1.0389  0.2500  0.0479
 4805SOL     OW14858   1.681   2.593   4.826 -0.3805  0.3247 -0.0290
 4805SOL    HW114859   1.696   2.661   4.761 -0.3071  0.1278 -0.2214
 4805SOL    HW214860   1.748   2.527   4.807 -1.1350 -0.3198 -0.5550
 4806SOL     OW14861   5.198   2.169   5.656  0.1639  0.1094 -0.3907
 4806SOL    HW114862   5.160   2.181   5.743  0.2550  0.2554 -0.3715
 4806SOL    HW214863   5.217   2.257   5.625  0.5750  0.0377 -0.3595
 4807SOL     OW14864   5.388   2.159   1.121 -0.1771 -0.1362  0.0702
 4807SOL    HW114865   5.421   2.075   1.153  0.3957  0.1182  0.1575
 4807SOL    HW214866   5.331   2.191   1.191  1.9306  0.9461  1.3943
 4808SOL     OW14867   3.636   4.461   0.021 -0.3263  1.0630 -0.3814
 4808SOL    HW114868   3.547   4.491   0.042 -0.3675 -0.0598  1.1581
 4808SOL    HW214869   3.674   4.438   0.105  1.2627  1.0285 -1.0850
 4809SOL     OW14870   3.186   4.341   4.049  0.4144  0.7418 -0.9311
 4809SOL    HW114871   3.130   4.392   4.108  0.1443  0.0181 -0.5482
 4809SOL    HW214872   3.129   4.319   3.975  0.6390  1.3040 -1.2813
 4810SOL     OW14873   0.871   0.117   0.915  0.1822  0.1466 -0.0192
 4810SOL    HW114874   0.823   0.171   0.978 -0.1831 -0.0223 -0.1503
 4810SOL    HW214875   0.808   0.050   0.888  0.7593 -0.6242  0.4845
 4811SOL     OW14876   6.118   3.512   4.305  0.1234  0.1739 -0.1672
 4811SOL    HW114877   6.028   3.545   4.298 -0.1921 -0.8052 -1.0313
 4811SOL    HW214878   6.112   3.421   4.276  1.3479  0.0123  0.0506
 4812SOL     OW14879   0.100   5.192   2.365 -0.1437  0.1024  0.0376
 4812SOL    HW114880   0.006   5.177   2.378  0.2796 -2.2101  0.8762
 4812SOL    HW214881   0.142   5.154   2.442  1.7074 -2.9465 -2.2299
 4813SOL     OW14882   2.611   2.522   4.025 -0.2839 -0.0911 -0.0255
 4813SOL    HW114883   2.568   2.441   3.998 -1.2305  0.5785 -0.5911
 4813SOL    HW214884   2.540   2.587   4.027  0.2040  0.4463  1.6860
 4814SOL     OW14885   3.573   2.200   1.026  0.1957 -0.1096  0.2196
 4814SOL    HW114886   3.545   2.186   1.117 -0.9761 -2.4782 -0.4224
 4814SOL    HW214887   3.495   2.234   0.982  1.5682  4.0064  0.6029
 4815SOL     OW14888   0.647   5.887   4.037  0.5557 -0.2118  0.5889
 4815SOL    HW114889   0.567   5.842   4.063  1.1929 -1.8602 -0.1594
 4815SOL    HW214890   0.642   5.972   4.081 -1.8735 -0.0047  0.0977
 4816SOL     OW14891   1.236   1.469   1.852 -0.4755 -1.0074  0.2065
 4816SOL    HW114892   1.148   1.435   1.865 -0.5215 -0.5494  1.1755
 4816SOL    HW214893   1.291   1.418   1.911 -0.6068  0.7801  2.0068
 4817SOL     OW14894   3.567   1.413   0.061 -0.2760 -0.5136 -0.2155
 4817SOL    HW114895   3.473   1.395   0.067 -0.5663 -0.6424 -3.4481
 4817SOL    HW214896   3.572   1.502   0.026  0.7193 -1.2304 -2.0014
 4818SOL     OW14897   2.283   5.038   3.888 -0.6630  0.0507  0.1799
 4818SOL    HW114898   2.357   4.978   3.876  0.3015  1.2407 -0.0769
 4818SOL    HW214899   2.234   5.031   3.806  1.2126  1.8899 -1.2133
 4819SOL     OW14900   3.214   5.524   3.068  0.2888 -0.4852  0.2695
 4819SOL    HW114901   3.306   5.499   3.081  0.7377  0.1941 -1.3172
 4819SOL    HW214902   3.204   5.604   3.121  1.0356  0.2409 -0.6546
 4820SOL     OW14903   3.920   4.890   0.421  0.7254  0.6674 -0.2300
 4820SOL    HW114904   3.856   4.949   0.382 -0.2017 -1.0459 -1.4320
 4820SOL    HW214905   3.959   4.844   0.346  1.6719  0.0147  0.6343
 4821SOL     OW14906   4.411   3.892   2.316 -0.1362  0.4003 -0.2491
 4821SOL    HW114907   4.332   3.856   2.276 -0.5347  1.1988 -0.2031
 4821SOL    HW214908   4.384   3.977   2.350  0.6860  0.5771 -0.0140
 4822SOL     OW14909   1.997   4.410   6.099 -0.4554  0.3511 -0.1412
 4822SOL    HW114910   1.984   4.316   6.107  1.1977  0.1727  0.9185
 4822SOL    HW214911   2.015   4.440   6.188 -1.3528  1.7661 -0.3900
 4823SOL     OW14912   0.543   1.205   1.364 -0.1324  0.2964  0.2897
 4823SOL    HW114913   0.531   1.194   1.270 -1.2322 -0.5723  0.5029
 4823SOL    HW214914   0.629   1.169   1.382 -0.4808 -0.8450 -0.2036
 4824SOL     OW14915   2.922   0.222   5.509 -0.1627 -0.1504  0.2152
 4824SOL    HW114916   2.944   0.161   5.438  0.2249  0.0076  0.1957
 4824SOL    HW214917   2.880   0.296   5.465  2.3719  1.1510 -0.2104
 4825SOL     OW14918   1.544   1.204   0.321 -0.0693  0.6428 -0.2105
 4825SOL    HW114919   1.470   1.260   0.300 -0.3157  0.3682 -0.0775
 4825SOL    HW214920   1.524   1.120   0.280 -0.0474  0.4290  0.2071
 4826SOL     OW14921   4.543   3.177   3.535  0.0089  0.4188 -0.1251
 4826SOL    HW114922   4.465   3.132   3.503  0.5394 -0.4748 -0.1959
 4826SOL    HW214923   4.600   3.186   3.458  0.2445  0.4957  0.0546
 4827SOL     OW14924   5.702   5.250   4.234 -0.3030  0.8001 -0.2095
 4827SOL    HW114925   5.667   5.283   4.317  2.1869  0.0949  1.2480
 4827SOL    HW214926   5.778   5.306   4.217  1.3719 -1.3067 -0.0258
 4828SOL     OW14927   2.699   1.443   2.923 -0.0723 -0.1046  0.1982
 4828SOL    HW114928   2.765   1.378   2.901  1.1778  0.1269  2.8899
 4828SOL    HW214929   2.622   1.418   2.871  1.1508 -2.1757 -0.7391
 4829SOL     OW14930   0.496   4.962   1.085  0.2516 -0.2217 -0.0149
 4829SOL    HW114931   0.521   4.870   1.089  2.0199  0.0575 -2.5023
 4829SOL    HW214932   0.404   4.961   1.061  0.3294 -1.3580 -0.3260
 4830SOL     OW14933   6.015   2.057   0.303 -0.2976  0.5086  0.3036
 4830SOL    HW114934   6.083   1.989   0.303 -1.1564 -0.4397 -1.5313
 4830SOL    HW214935   6.053   2.130   0.255  1.2553  2.1373  3.7072
 4831SOL     OW14936   0.437   2.885   1.545  0.9535 -0.3025  0.2251
 4831SOL    HW114937   0.464   2.810   1.597  0.6308 -0.2977  0.4027
 4831SOL    HW214938   0.443   2.856   1.455 -0.8192 -1.1209  0.3297
 4832SOL     OW14939   3.040   6.045   0.698  0.2018  0.1851 -0.3191
 4832SOL    HW114940   3.008   6.128   0.662 -1.1708  0.6758  1.8500
 4832SOL    HW214941   3.135   6.050   0.688  0.1466  2.0241 -0.2609
 4833SOL     OW14942   2.433   4.933   3.320 -0.0786 -0.0735 -0.1708
 4833SOL    HW114943   2.370   4.996   3.352  0.0027 -0.3282  0.5076
 4833SOL    HW214944   2.501   4.986   3.277 -0.7611  0.1950 -0.9384
 4834SOL     OW14945   3.907   0.081   4.391  0.1053 -0.1718 -0.1550
 4834SOL    HW114946   3.966   0.008   4.372 -0.2634 -0.8640  1.1925
 4834SOL    HW214947   3.829   0.040   4.428 -0.1839  0.8891  0.4584
 4835SOL     OW14948   3.763   1.216   4.419  0.9281  0.2742 -0.9009
 4835SOL    HW114949   3.819   1.247   4.348  1.6807  0.2001 -0.3443
 4835SOL    HW214950   3.785   1.272   4.493  0.0756  0.4127 -0.7442
 4836SOL     OW14951   5.095   4.076   2.162 -0.4167 -0.1414  0.1638
 4836SOL    HW114952   5.021   4.023   2.193  0.0340 -1.3046 -0.6918
 4836SOL    HW214953   5.134   4.024   2.092  0.3899  1.0864 -0.3298
 4837SOL     OW14954   3.793   5.857   2.006 -0.4245  0.5424 -0.8569
 4837SOL    HW114955   3.699   5.867   2.019 -0.4204 -0.1732 -0.2086
 4837SOL    HW214956   3.828   5.946   2.010 -0.9105  0.6938  0.2386
 4838SOL     OW14957   1.401   1.636   3.601 -0.1470 -0.1937  0.0223
 4838SOL    HW114958   1.364   1.640   3.513  3.3605 -0.2891 -1.6627
 4838SOL    HW214959   1.456   1.715   3.607  0.4019 -0.6646  1.7651
 4839SOL     OW14960   1.801   1.500   4.145 -0.1124 -0.2586  0.2990
 4839SOL    HW114961   1.746   1.437   4.192 -0.9146  0.8789  0.9119
 4839SOL    HW214962   1.829   1.562   4.212 -0.9942  1.1933 -0.6226
 4840SOL     OW14963   5.803   4.957   1.399 -0.3183  0.4563  0.0731
 4840SOL    HW114964   5.716   4.974   1.362 -0.6282 -0.9225  0.1013
 4840SOL    HW214965   5.860   4.946   1.323 -0.5525 -0.4082  0.0066
 4841SOL     OW14966   2.534   4.301   5.596 -0.5798  0.7001  0.3019
 4841SOL    HW114967   2.568   4.214   5.617 -0.6050  0.4763 -0.5473
 4841SOL    HW214968   2.458   4.283   5.540 -0.7202  1.2593  0.3128
 4842SOL     OW14969   4.722   1.509   2.785  0.6500  0.1182  0.1589
 4842SOL    HW114970   4.652   1.472   2.732  0.3362 -0.4230  0.9227
 4842SOL    HW214971   4.778   1.434   2.807  0.1576  0.1026  1.4960
 4843SOL     OW14972   1.798   2.790   2.192 -0.2692 -0.3330  0.5459
 4843SOL    HW114973   1.714   2.834   2.184  0.3320  0.5370 -1.4772
 4843SOL    HW214974   1.857   2.857   2.228  0.2934  0.1223 -1.1314
 4844SOL     OW14975   4.318   1.299   5.856  0.7273 -0.4150 -0.4615
 4844SOL    HW114976   4.298   1.280   5.764  0.6090 -0.2908 -0.4619
 4844SOL    HW214977   4.399   1.350   5.853 -0.1479  1.0207 -0.6152
 4845SOL     OW14978   1.388   2.123   4.262 -0.2578  0.0155 -0.5909
 4845SOL    HW114979   1.346   2.119   4.348 -0.1815 -0.5593 -0.5763
 4845SOL    HW214980   1.378   2.215   4.235 -1.7410 -0.1525 -0.6972
 4846SOL     OW14981   2.799   4.088   2.208  0.5191  0.1708 -0.2986
 4846SOL    HW114982   2.793   4.058   2.117 -0.0015  0.3422 -0.3257
 4846SOL    HW214983   2.809   4.183   2.201 -0.9373  0.3578 -0.1614
 4847SOL     OW14984   3.745   2.673   5.992  0.4407  0.2962  0.4159
 4847SOL    HW114985   3.809   2.719   5.938 -0.6345  1.1085 -0.2076
 4847SOL    HW214986   3.769   2.581   5.983  1.2195  0.5454 -0.2001
 4848SOL     OW14987   4.460   2.901   1.285  0.1744  0.0747 -0.6895
 4848SOL    HW114988   4.381   2.955   1.295  1.9993  2.7217  0.8343
 4848SOL    HW214989   4.485   2.911   1.193  0.3397  1.7182 -0.4908
 4849SOL     OW14990   0.550   2.841   3.745  0.5940  0.9959 -0.1505
 4849SOL    HW114991   0.636   2.801   3.742  0.6578  0.9789  1.2473
 4849SOL    HW214992   0.563   2.923   3.793 -0.4407  0.1495  1.7038
 4850SOL     OW14993   1.484   0.892   2.343  0.0093 -0.0091 -0.0381
 4850SOL    HW114994   1.480   0.985   2.325 -2.1278  0.4095  2.1480
 4850SOL    HW214995   1.484   0.885   2.438  0.0492 -2.2557 -0.1335
 4851SOL     OW14996   0.892   0.889   3.629  0.8655 -0.2818  0.3376
 4851SOL    HW114997   0.804   0.849   3.630  0.3700  0.7277 -0.5387
 4851SOL    HW214998   0.929   0.868   3.715 -0.5518 -0.0404  1.0353
 4852SOL     OW14999   3.943   2.727   2.176 -0.3624 -0.1616 -0.1070
 4852SOL    HW115000   3.918   2.753   2.087  0.5930  2.0486  0.2008
 4852SOL    HW215001   3.910   2.798   2.232  2.7160  0.7345  0.7694
 4853SOL     OW15002   5.017   0.181   2.903 -0.4650 -0.2230 -0.3674
 4853SOL    HW115003   5.054   0.119   2.841  0.6447 -1.8827  1.8413
 4853SOL    HW215004   4.944   0.134   2.944 -0.9911  0.7272 -0.1664
 4854SOL     OW15005   3.095   2.653   2.721  0.0842  1.0167 -0.0277
 4854SOL    HW115006   3.086   2.698   2.806  1.0813  0.9554  0.1279
 4854SOL    HW215007   3.027   2.586   2.722 -0.7496  1.8445  0.1815
 4855SOL     OW15008   3.020   1.906   3.993 -0.3779  0.4251 -0.3587
 4855SOL    HW115009   3.061   1.825   4.025  0.6119  1.5864  1.5628
 4855SOL    HW215010   2.959   1.878   3.925  0.8803 -1.7870 -0.6663
 4856SOL     OW15011   3.816   3.238   5.131 -0.1758 -0.1567  0.0349
 4856SOL    HW115012   3.725   3.212   5.145  0.6464 -2.5782  1.4246
 4856SOL    HW215013   3.867   3.158   5.146  2.2879  1.3862  0.4963
 4857SOL     OW15014   5.633   2.777   2.607  0.0628 -0.0939 -0.2946
 4857SOL    HW115015   5.687   2.735   2.674 -0.3766 -1.3975 -0.7328
 4857SOL    HW215016   5.674   2.751   2.524  1.4759  2.6825 -0.5685
 4858SOL     OW15017   1.882   4.698   1.279 -0.4241 -0.2851  0.3020
 4858SOL    HW115018   1.956   4.756   1.261 -1.6703  1.2253 -0.1649
 4858SOL    HW215019   1.899   4.620   1.226  0.0854  0.6745 -1.0044
 4859SOL     OW15020   4.013   1.184   4.171 -0.0091  0.2513 -0.1039
 4859SOL    HW115021   3.973   1.110   4.126 -0.0159  0.9270 -1.2676
 4859SOL    HW215022   4.054   1.235   4.101  1.5188  0.4199  0.8706
 4860SOL     OW15023   5.034   4.196   4.722 -0.9635 -0.8436 -0.0222
 4860SOL    HW115024   5.095   4.187   4.795 -1.0133 -3.4620 -0.2307
 4860SOL    HW215025   5.043   4.115   4.672 -0.4482  1.0895 -3.3788
 4861SOL     OW15026   0.826   5.029   3.226  0.5783  0.2901  0.7362
 4861SOL    HW115027   0.898   5.011   3.166  0.1515 -1.5212  0.7218
 4861SOL    HW215028   0.750   4.988   3.186 -0.0861  0.5946  1.6558
 4862SOL     OW15029   1.776   4.558   6.017  0.1204  0.1956  0.4688
 4862SOL    HW115030   1.849   4.502   6.044 -1.0030 -1.8058 -0.4402
 4862SOL    HW215031   1.815   4.619   5.955  1.0559 -0.8442 -0.0142
 4863SOL     OW15032   0.045   4.814   5.412 -0.6083 -0.3965 -0.4993
 4863SOL    HW115033   0.137   4.787   5.407 -0.5215 -0.5491  1.2085
 4863SOL    HW215034   0.004   4.747   5.467 -1.4834  0.3181 -0.2611
 4864SOL     OW15035   4.492   3.248   1.756  0.4782 -0.3737 -0.6633
 4864SOL    HW115036   4.542   3.321   1.721  0.8580 -0.1035  0.4261
 4864SOL    HW215037   4.548   3.172   1.745  0.6795 -0.2546 -0.4668
 4865SOL     OW15038   4.758   3.752   5.733 -0.0616 -0.2168  0.0824
 4865SOL    HW115039   4.725   3.728   5.820  0.5878 -0.4421  0.2752
 4865SOL    HW215040   4.842   3.706   5.726  0.2084  0.3364 -0.3891
 4866SOL     OW15041   5.342   3.281   5.824  0.1122  0.0713  0.1450
 4866SOL    HW115042   5.415   3.343   5.826  0.5034 -0.2450 -1.9331
 4866SOL    HW215043   5.283   3.316   5.757 -1.4347  0.0474  1.4337
 4867SOL     OW15044   5.497   4.753   5.028 -0.1177 -0.3468  0.4944
 4867SOL    HW115045   5.498   4.696   5.105  2.3003 -1.1410 -0.0200
 4867SOL    HW215046   5.524   4.696   4.956 -0.7611  0.7426 -0.6531
 4868SOL     OW15047   0.437   6.098   0.152  0.3721  0.7321 -0.0470
 4868SOL    HW115048   0.411   6.065   0.066  0.4761 -2.1553  0.9218
 4868SOL    HW215049   0.355   6.103   0.202  0.5428  0.6216  0.2479
 4869SOL     OW15050   1.256   1.508   2.732  0.5740  0.7860  0.5497
 4869SOL    HW115051   1.180   1.452   2.746  0.4797  1.2049  1.8245
 4869SOL    HW215052   1.235   1.589   2.779  0.9553  1.6736 -0.7680
 4870SOL     OW15053   4.485   2.777   0.631 -0.7092  0.1524 -0.1594
 4870SOL    HW115054   4.420   2.848   0.627 -1.0706 -0.1491  0.2511
 4870SOL    HW215055   4.433   2.698   0.645 -0.2758 -0.1458 -0.2133
 4871SOL     OW15056   5.601   2.051   2.160 -0.0701 -0.4411  0.0305
 4871SOL    HW115057   5.640   2.075   2.076 -0.9204  0.6205 -0.0851
 4871SOL    HW215058   5.557   2.131   2.190 -0.9025 -1.1755  0.8471
 4872SOL     OW15059   5.674   5.974   3.870  0.6636 -0.1139  0.2161
 4872SOL    HW115060   5.665   6.017   3.785 -0.1326  1.5008  1.0710
 4872SOL    HW215061   5.664   5.881   3.851  1.3414  0.1295 -1.5603
 4873SOL     OW15062   0.594   5.721   5.328  0.2874  0.1729  0.0562
 4873SOL    HW115063   0.570   5.803   5.286 -0.3729 -1.1063 -2.2621
 4873SOL    HW215064   0.645   5.675   5.262  3.4953 -0.0215  2.4287
 4874SOL     OW15065   1.662   2.249   3.546 -0.2925  0.5889 -0.7338
 4874SOL    HW115066   1.602   2.288   3.610 -0.2966  0.5853 -0.7354
 4874SOL    HW215067   1.749   2.265   3.583 -0.3421 -0.5774 -0.0754
 4875SOL     OW15068   5.803   2.839   0.070 -0.6986 -0.3448  0.5070
 4875SOL    HW115069   5.779   2.811  -0.018 -1.8065  0.7173  0.4521
 4875SOL    HW215070   5.743   2.791   0.127 -0.5879 -0.3490  0.6196
 4876SOL     OW15071   3.335   0.726   0.628  0.6221  0.1552 -0.0616
 4876SOL    HW115072   3.276   0.722   0.703 -0.4979  2.9325 -0.6970
 4876SOL    HW215073   3.393   0.799   0.646  1.3506 -0.1018 -1.2155
 4877SOL     OW15074   4.710   4.569   0.553  0.3722 -0.0572 -0.5213
 4877SOL    HW115075   4.759   4.570   0.635 -1.8507 -0.0619  0.8955
 4877SOL    HW215076   4.674   4.480   0.547 -1.2226  0.5409 -0.3506
 4878SOL     OW15077   3.163   0.711   5.014  0.0869  0.0969 -0.0822
 4878SOL    HW115078   3.166   0.633   4.958  1.0547  0.4290 -0.5110
 4878SOL    HW215079   3.075   0.746   5.000 -0.2976 -0.8153 -0.0183
 4879SOL     OW15080   4.414   0.973   5.032 -0.0152 -0.0084  0.0443
 4879SOL    HW115081   4.463   0.984   4.951 -0.7276 -0.6989 -0.5010
 4879SOL    HW215082   4.375   0.885   5.025  1.1578 -0.7317  1.8282
 4880SOL     OW15083   0.956   3.005   5.253  0.3078  0.5224 -0.1500
 4880SOL    HW115084   0.872   3.047   5.234  0.4946  0.4211 -1.2714
 4880SOL    HW215085   0.932   2.928   5.306 -0.4700 -0.2189 -1.5086
 4881SOL     OW15086   4.795   1.113   2.324 -0.2018  0.2942 -0.1616
 4881SOL    HW115087   4.763   1.036   2.277  1.8710 -1.7205  1.5064
 4881SOL    HW215088   4.887   1.122   2.297 -0.1304  1.6191  0.4211
 4882SOL     OW15089   1.229   5.886   6.071 -0.7656  0.0550 -0.4823
 4882SOL    HW115090   1.217   5.963   6.015  3.9156  1.5969  0.2206
 4882SOL    HW215091   1.238   5.813   6.010  2.1836  1.3705 -1.7882
 4883SOL     OW15092   4.369   0.801   0.059  0.1497 -0.2839 -0.1575
 4883SOL    HW115093   4.346   0.799  -0.034  0.2317  3.6256 -0.4076
 4883SOL    HW215094   4.285   0.797   0.104 -0.1981  1.5522 -0.5901
 4884SOL     OW15095   0.605   0.182   4.762 -0.0549 -0.0370 -0.1609
 4884SOL    HW115096   0.570   0.248   4.823  0.7634 -0.1782  0.4821
 4884SOL    HW215097   0.561   0.101   4.788  1.8219 -0.5537  1.7078
 4885SOL     OW15098   3.816   5.014   0.858 -0.3571  0.0112  0.0681
 4885SOL    HW115099   3.777   4.961   0.788  0.5397 -0.1735 -0.3129
 4885SOL    HW215100   3.907   5.026   0.830 -0.1699  0.5218  0.8735
 4886SOL     OW15101   2.989   2.787   2.966 -0.1084  0.3822  0.3577
 4886SOL    HW115102   2.996   2.875   3.004  1.7330  0.9472 -1.1107
 4886SOL    HW215103   3.078   2.750   2.975 -0.5689 -0.8902 -0.0648
 4887SOL     OW15104   1.002   3.573   4.368 -0.2042  0.4780 -0.1245
 4887SOL    HW115105   0.965   3.513   4.304  0.2226 -0.1590  0.2194
 4887SOL    HW215106   1.009   3.521   4.449 -2.4193  1.7317  0.9887
 4888SOL     OW15107   5.007   3.261   4.499 -0.3284 -0.4669  0.2788
 4888SOL    HW115108   5.049   3.175   4.495 -0.6385 -0.5762 -0.9101
 4888SOL    HW215109   4.964   3.271   4.415  1.4390  1.7658 -0.4691
 4889SOL     OW15110   5.069   0.243   5.705 -0.0720  0.6429 -0.1963
 4889SOL    HW115111   5.163   0.260   5.700 -0.1498  2.4854  2.4843
 4889SOL    HW215112   5.029   0.327   5.685 -1.2816 -0.3376 -2.2288
 4890SOL     OW15113   3.764   1.311   1.649 -0.4662  0.1777  0.2024
 4890SOL    HW115114   3.675   1.289   1.676 -0.0848  0.6930  1.9849
 4890SOL    HW215115   3.773   1.404   1.668  0.0209  0.4532 -1.2631
 4891SOL     OW15116   5.607   0.923   3.709  0.2217  0.0034  0.3536
 4891SOL    HW115117   5.562   0.942   3.791  1.4733  0.5551  0.9501
 4891SOL    HW215118   5.539   0.891   3.650 -0.9335  0.8151  1.2041
 4892SOL     OW15119   4.131   4.918   5.441 -0.0059 -0.3222  0.3030
 4892SOL    HW115120   4.166   4.840   5.483 -0.2513  0.2481  1.5917
 4892SOL    HW215121   4.147   4.988   5.503 -1.1258  0.3990 -0.1918
 4893SOL     OW15122   5.872   0.705   1.755 -0.7947  0.4435 -0.0619
 4893SOL    HW115123   5.806   0.741   1.696 -2.2458 -0.5910  0.8321
 4893SOL    HW215124   5.927   0.779   1.779 -0.1419  0.8760 -2.6851
 4894SOL     OW15125   3.758   0.825   4.850  0.1465  0.0640 -0.5264
 4894SOL    HW115126   3.714   0.740   4.843  2.1852 -1.0998  0.1115
 4894SOL    HW215127   3.814   0.829   4.772  0.4260  0.6146 -0.2978
 4895SOL     OW15128   2.640   5.855   2.650  0.4864 -0.1386 -0.1812
 4895SOL    HW115129   2.573   5.790   2.672 -0.8532  1.7792  2.0177
 4895SOL    HW215130   2.723   5.810   2.663 -0.3776 -1.3087  1.7371
 4896SOL     OW15131   3.999   3.020   0.116 -0.8437 -0.2862  0.1670
 4896SOL    HW115132   3.921   2.964   0.115 -0.8653 -0.2859 -1.5414
 4896SOL    HW215133   3.966   3.107   0.094 -0.6006  0.1090  1.3134
 4897SOL     OW15134   1.232   2.200   1.782  0.4866 -0.4015 -0.1075
 4897SOL    HW115135   1.211   2.198   1.876 -0.3925  0.8090 -0.2494
 4897SOL    HW215136   1.307   2.259   1.776  0.6662 -0.6338 -0.1464
 4898SOL     OW15137   5.950   5.273   3.092 -0.2477  0.1575 -0.0720
 4898SOL    HW115138   5.913   5.240   3.174 -1.1283  1.2909  0.0155
 4898SOL    HW215139   6.029   5.220   3.078 -0.5651 -0.6494  1.0356
 4899SOL     OW15140   1.990   2.728   3.330 -0.0049 -0.0036 -0.1854
 4899SOL    HW115141   1.972   2.637   3.352  0.4518 -0.4512 -1.5688
 4899SOL    HW215142   1.984   2.775   3.413 -1.2780 -1.1235  0.3878
 4900SOL     OW15143   3.324   5.844   3.629  0.0762 -0.5763  0.4437
 4900SOL    HW115144   3.258   5.801   3.576  0.5035 -0.4706 -0.1819
 4900SOL    HW215145   3.374   5.897   3.568 -1.0484  1.6180  1.3295
 4901SOL     OW15146   3.313   5.187   5.640  0.4349  0.1464  0.2403
 4901SOL    HW115147   3.242   5.250   5.634  0.9355  0.6101 -1.2238
 4901SOL    HW215148   3.276   5.106   5.603  0.7750  0.5235 -0.9949
 4902SOL     OW15149   2.044   0.498   3.672  0.3020 -0.1651 -0.2721
 4902SOL    HW115150   2.006   0.581   3.701  0.1870  0.1927 -1.3849
 4902SOL    HW215151   1.976   0.457   3.618  0.0592 -1.3778  0.9000
 4903SOL     OW15152   3.296   2.489   4.190  0.1916  0.4497  0.2492
 4903SOL    HW115153   3.345   2.460   4.267 -0.1198  0.8314  0.5948
 4903SOL    HW215154   3.265   2.577   4.213  1.7380  1.3942 -1.0387
 4904SOL     OW15155   1.815   1.592   2.684 -0.6107 -0.2652  0.1118
 4904SOL    HW115156   1.910   1.587   2.679 -0.5536  1.2954 -2.2817
 4904SOL    HW215157   1.786   1.502   2.668  0.4583 -0.6381  0.1556
 4905SOL     OW15158   2.330   0.476   1.139 -0.4536  0.0240 -0.3443
 4905SOL    HW115159   2.348   0.386   1.110  0.4419  0.2860 -0.6414
 4905SOL    HW215160   2.236   0.485   1.130 -0.6075 -1.0203  0.0788
 4906SOL     OW15161   2.760   3.702   3.660  0.3799 -0.5895 -0.4835
 4906SOL    HW115162   2.821   3.681   3.731  1.8149 -0.2367 -1.5443
 4906SOL    HW215163   2.797   3.659   3.583 -0.7514 -0.3936 -1.1638
 4907SOL     OW15164   3.339   5.797   1.736 -0.0128  0.3936 -0.1619
 4907SOL    HW115165   3.411   5.859   1.746  0.9793 -0.6607 -0.5295
 4907SOL    HW215166   3.380   5.717   1.703 -1.4403 -0.0459 -0.9869
 4908SOL     OW15167   3.630   4.189   0.789 -0.3995 -0.5836  0.5748
 4908SOL    HW115168   3.685   4.159   0.717 -1.8094 -1.7807 -0.0519
 4908SOL    HW215169   3.543   4.199   0.750 -0.9508 -0.1974  1.8599
 4909SOL     OW15170   2.566   2.674   5.205 -0.0215  0.1550 -0.2688
 4909SOL    HW115171   2.499   2.658   5.270  0.1242 -1.4909 -0.4851
 4909SOL    HW215172   2.609   2.755   5.233  0.2329 -0.6578  1.8420
 4910SOL     OW15173   1.002   1.911   4.206 -0.0220  0.0849 -0.0975
 4910SOL    HW115174   0.962   1.975   4.265 -2.2280 -1.6645  0.4405
 4910SOL    HW215175   1.084   1.886   4.250  0.1412  1.4423  0.4044
 4911SOL     OW15176   3.595   5.551   5.445  0.5176 -0.4188  0.1533
 4911SOL    HW115177   3.559   5.465   5.465 -0.5149  0.1955  1.1239
 4911SOL    HW215178   3.534   5.612   5.486  1.1608  0.7822 -0.6145
 4912SOL     OW15179   2.067   3.492   3.226 -0.7318 -0.4354 -0.4314
 4912SOL    HW115180   2.162   3.502   3.220 -0.4201 -3.1489 -2.3284
 4912SOL    HW215181   2.033   3.551   3.159 -0.3811  0.4263  0.1397
 4913SOL     OW15182   2.620   4.656   1.342  0.7169 -0.0159 -0.1111
 4913SOL    HW115183   2.525   4.655   1.343  0.7043  0.6076 -0.2676
 4913SOL    HW215184   2.643   4.734   1.291  1.3088 -0.1588 -0.0737
 4914SOL     OW15185   2.290   5.834   1.719  0.3877  0.2123 -0.2816
 4914SOL    HW115186   2.200   5.809   1.700 -0.0166  1.1265  0.3419
 4914SOL    HW215187   2.339   5.811   1.640 -0.4543  0.0360 -0.7641
 4915SOL     OW15188   3.833   5.607   5.958 -0.0758 -0.0349 -0.6174
 4915SOL    HW115189   3.921   5.571   5.950  0.0151  0.2866 -1.0912
 4915SOL    HW215190   3.791   5.587   5.874 -0.2926  0.2503 -0.5796
 4916SOL     OW15191   4.455   3.685   1.635  0.3872  0.8808 -0.5625
 4916SOL    HW115192   4.380   3.653   1.685  0.9557  0.2141 -0.1203
 4916SOL    HW215193   4.421   3.697   1.546  0.0029 -0.4450 -0.6212
 4917SOL     OW15194   4.328   0.150   5.078  0.0567  0.8071 -0.1266
 4917SOL    HW115195   4.364   0.102   5.004 -2.5031 -1.1290 -0.2625
 4917SOL    HW215196   4.363   0.105   5.155 -0.1281  0.5005 -0.2205
 4918SOL     OW15197   4.610   5.171   5.517  0.0989 -0.0265  0.4043
 4918SOL    HW115198   4.683   5.110   5.527  0.7775  0.8171  0.7123
 4918SOL    HW215199   4.564   5.167   5.601  1.0651  1.0376  1.0059
 4919SOL     OW15200   0.017   6.008   5.901  0.6205  0.1743 -0.4008
 4919SOL    HW115201  -0.061   5.971   5.861  1.6856 -2.2144 -0.4276
 4919SOL    HW215202  -0.003   6.012   5.995  0.5061 -0.5113 -0.3959
 4920SOL     OW15203   4.637   4.236   0.208 -0.3729  0.0538 -0.0241
 4920SOL    HW115204   4.661   4.316   0.161  0.4282  1.2097  2.2034
 4920SOL    HW215205   4.721   4.195   0.230 -0.7228 -0.3642  0.5575
 4921SOL     OW15206   4.787   4.937   5.570  0.1985 -0.0174 -0.2709
 4921SOL    HW115207   4.862   4.910   5.517  1.3790  0.9447  0.8562
 4921SOL    HW215208   4.761   4.857   5.616  0.8456 -0.2541 -0.3026
 4922SOL     OW15209   5.629   0.469   1.657 -0.4561 -0.0472  0.3629
 4922SOL    HW115210   5.593   0.513   1.580 -1.0613 -0.3509  0.4705
 4922SOL    HW215211   5.593   0.380   1.653  1.5207 -0.8731 -0.3947
 4923SOL     OW15212   3.923   1.617   2.788  0.0826 -0.1155  0.2097
 4923SOL    HW115213   3.898   1.651   2.874  1.6162 -0.2236  0.7347
 4923SOL    HW215214   3.951   1.527   2.805 -1.7096 -0.9229 -0.7925
 4924SOL     OW15215   0.925   1.500   4.603  0.3177  0.3645  0.3592
 4924SOL    HW115216   0.995   1.502   4.537 -1.3083  0.6231 -1.4543
 4924SOL    HW215217   0.858   1.444   4.565 -0.5122  0.1566  2.0376
 4925SOL     OW15218   2.068   1.153   0.230  0.1660 -0.0002 -0.4371
 4925SOL    HW115219   2.131   1.109   0.288  0.3250  0.2046 -0.4525
 4925SOL    HW215220   2.054   1.238   0.271 -1.9867 -0.9172  0.9291
 4926SOL     OW15221   2.794   2.544   0.436 -0.0982  0.3042  0.0626
 4926SOL    HW115222   2.816   2.452   0.421  2.9934  1.0595 -0.7907
 4926SOL    HW215223   2.704   2.542   0.468 -0.7830 -2.8678 -1.6113
 4927SOL     OW15224   5.864   3.761   4.506 -0.2041 -0.0004 -0.2107
 4927SOL    HW115225   5.850   3.800   4.592  0.4703  0.3697 -0.2641
 4927SOL    HW215226   5.786   3.787   4.456 -0.5124 -0.0672  0.2275
 4928SOL     OW15227   3.867   1.170   0.853  0.0036  0.2545 -0.4210
 4928SOL    HW115228   3.944   1.194   0.801 -0.8142 -0.1780 -1.8900
 4928SOL    HW215229   3.835   1.253   0.888  1.3105  0.4059  0.5112
 4929SOL     OW15230   3.999   4.740   4.633  0.0623  0.3743  0.0414
 4929SOL    HW115231   3.915   4.745   4.679 -0.7859  0.0129 -1.3730
 4929SOL    HW215232   3.990   4.803   4.561  0.9390  0.1792 -0.2501
 4930SOL     OW15233   0.415   3.746   5.216  0.0094  0.1482 -0.6882
 4930SOL    HW115234   0.389   3.663   5.257  1.0124 -0.3627 -1.0447
 4930SOL    HW215235   0.366   3.749   5.134 -0.5675  0.2595 -0.3456
 4931SOL     OW15236   3.701   2.465   4.316  0.0211 -0.0594  0.1805
 4931SOL    HW115237   3.625   2.407   4.323  0.3786 -0.4298  1.0981
 4931SOL    HW215238   3.691   2.507   4.230 -1.1368 -0.2141  0.2221
 4932SOL     OW15239   0.323   5.432   4.768 -0.2943 -0.1592  0.1583
 4932SOL    HW115240   0.358   5.371   4.703 -0.7477  0.6745 -0.8965
 4932SOL    HW215241   0.324   5.382   4.850  0.5724 -1.1323 -0.4104
 4933SOL     OW15242   1.978   2.986   2.282 -1.5096 -0.4679  0.6796
 4933SOL    HW115243   1.948   3.026   2.364  0.7827  0.6794  1.0461
 4933SOL    HW215244   1.979   3.058   2.219 -1.3806 -0.9025  0.1781
 4934SOL     OW15245   0.969   0.975   1.755 -0.0908 -0.0392 -0.0431
 4934SOL    HW115246   0.906   1.043   1.731  0.6259  0.2938 -1.0691
 4934SOL    HW215247   0.939   0.897   1.707 -1.1930 -0.6274  1.5094
 4935SOL     OW15248   3.618   5.832   0.837  0.0789 -0.1926 -0.2758
 4935SOL    HW115249   3.680   5.769   0.874 -1.4224 -0.6633  1.5887
 4935SOL    HW215250   3.625   5.818   0.742  0.6847 -2.3229  0.0192
 4936SOL     OW15251   4.466   4.639   4.050 -0.0360  0.2035  0.0486
 4936SOL    HW115252   4.385   4.588   4.057 -0.4131  1.0065  2.2083
 4936SOL    HW215253   4.465   4.697   4.126  2.2882  0.6660 -0.1937
 4937SOL     OW15254   4.696   2.875   4.083  0.2509 -0.1975 -0.1155
 4937SOL    HW115255   4.738   2.855   4.166  0.8978 -0.2749 -0.4559
 4937SOL    HW215256   4.749   2.945   4.046  0.5900 -0.8775 -0.9427
 4938SOL     OW15257   3.590   5.699   1.230 -0.0096  0.5505  0.1767
 4938SOL    HW115258   3.650   5.641   1.183 -0.7523 -0.2646  0.2149
 4938SOL    HW215259   3.518   5.713   1.170  0.8266  2.6514 -0.4084
 4939SOL     OW15260   4.625   0.799   0.142  0.5947  0.1180  0.0861
 4939SOL    HW115261   4.665   0.886   0.149 -0.5059  0.6225  0.3969
 4939SOL    HW215262   4.544   0.814   0.095 -0.3364 -0.4722  1.4360
 4940SOL     OW15263   2.020   2.189   2.453  0.1694 -0.4492 -0.3493
 4940SOL    HW115264   1.928   2.214   2.461  0.0738 -0.8404 -0.1659
 4940SOL    HW215265   2.069   2.257   2.499  0.0314  0.1591 -1.0924
 4941SOL     OW15266   2.645   0.416   4.777 -0.0834  0.1048  0.1365
 4941SOL    HW115267   2.597   0.335   4.759  0.1935  0.5151 -3.1228
 4941SOL    HW215268   2.620   0.474   4.705  2.5598  1.5788  0.3080
 4942SOL     OW15269   5.683   2.175   1.927 -0.2597 -0.1980 -0.1679
 4942SOL    HW115270   5.721   2.256   1.960 -1.1014  0.2977 -0.3866
 4942SOL    HW215271   5.636   2.200   1.848  0.1567 -1.0507 -0.7031
 4943SOL     OW15272   4.901   0.488   5.008  1.1653  0.4896  0.5559
 4943SOL    HW115273   4.939   0.400   5.012  0.3897  0.1833  1.2660
 4943SOL    HW215274   4.968   0.545   5.046  1.9207  0.3078 -0.4582
 4944SOL     OW15275   3.080   5.291   1.286 -0.8118  0.3760 -0.5703
 4944SOL    HW115276   3.172   5.318   1.288 -0.7970  0.3731 -1.1113
 4944SOL    HW215277   3.065   5.252   1.372 -0.0755 -0.3760 -0.7635
 4945SOL     OW15278   3.191   5.165   2.575  0.3668 -0.2363 -0.5568
 4945SOL    HW115279   3.270   5.111   2.575  0.6568  0.1662  0.1459
 4945SOL    HW215280   3.169   5.176   2.483 -0.4037 -2.5565 -0.7215
 4946SOL     OW15281   5.746   1.888   5.162  0.5048  0.1475  0.5209
 4946SOL    HW115282   5.820   1.832   5.184  2.7055  1.8347 -1.8772
 4946SOL    HW215283   5.732   1.873   5.068 -0.9035  1.3183  0.5103
 4947SOL     OW15284   0.555   1.712   3.361 -0.1111 -0.1739  0.0059
 4947SOL    HW115285   0.462   1.733   3.353 -0.8580 -2.3199  1.9535
 4947SOL    HW215286   0.560   1.617   3.353  1.3825 -0.5045  3.2125
 4948SOL     OW15287   4.587   4.816   4.816 -0.1127  0.2298 -0.3081
 4948SOL    HW115288   4.562   4.751   4.750 -1.9797  1.0191 -0.4302
 4948SOL    HW215289   4.601   4.896   4.766 -0.1252  0.4900  0.1007
 4949SOL     OW15290   3.921   1.619   0.320  0.0121 -0.0715  0.4824
 4949SOL    HW115291   3.863   1.679   0.273 -0.1700  0.0530  0.8670
 4949SOL    HW215292   3.894   1.532   0.291 -0.1780 -0.0001  0.4475
 4950SOL     OW15293   6.118   4.026   2.980  0.2287  0.6427  0.3011
 4950SOL    HW115294   6.145   3.985   3.062  0.6803  1.1314  0.4014
 4950SOL    HW215295   6.088   4.114   3.006 -2.0183 -0.0479  0.2762
 4951SOL     OW15296   3.778   5.133   5.472  0.2509  0.1144 -0.7582
 4951SOL    HW115297   3.857   5.186   5.463  1.7254 -2.0406 -1.0233
 4951SOL    HW215298   3.707   5.197   5.470  1.9344  2.0965 -0.8387
 4952SOL     OW15299   1.826   5.608   0.417  0.6427  0.4790  0.0559
 4952SOL    HW115300   1.749   5.565   0.456 -0.7773  2.2032 -0.6964
 4952SOL    HW215301   1.900   5.556   0.447 -0.8183 -1.3524  0.7105
 4953SOL     OW15302   5.292   3.922   1.999  0.3348 -0.5122 -0.4011
 4953SOL    HW115303   5.352   3.938   2.072 -0.1953 -0.4772  0.0304
 4953SOL    HW215304   5.338   3.858   1.944  1.3986  0.5890 -0.8550
 4954SOL     OW15305   5.028   6.045   1.318  0.0319 -0.3173 -0.3337
 4954SOL    HW115306   5.061   6.064   1.406 -1.2632  2.7475 -0.3772
 4954SOL    HW215307   5.099   6.072   1.260  0.1845 -0.5961 -0.2784
 4955SOL     OW15308   1.646   3.328   0.081 -0.0490 -0.4966 -0.5503
 4955SOL    HW115309   1.625   3.317   0.174  0.3429 -0.9542 -0.5127
 4955SOL    HW215310   1.687   3.414   0.076  0.6302 -0.7889 -0.1677
 4956SOL     OW15311   4.289   4.658   4.434 -0.5627 -0.4172  0.5326
 4956SOL    HW115312   4.323   4.728   4.379 -0.5484  0.2282  1.3449
 4956SOL    HW215313   4.311   4.577   4.387 -2.4128  0.1410 -1.4753
 4957SOL     OW15314   0.997   3.510   5.799 -0.1082  0.3720  0.1113
 4957SOL    HW115315   1.004   3.437   5.737 -1.3266 -0.7561  1.2577
 4957SOL    HW215316   1.087   3.542   5.807  0.6169 -1.5256  0.1778
 4958SOL     OW15317   1.571   3.486   3.194  0.4164 -0.3017  0.7326
 4958SOL    HW115318   1.533   3.543   3.260 -0.2082 -0.4395  0.5034
 4958SOL    HW215319   1.626   3.425   3.243 -0.5402 -0.8058  1.1999
 4959SOL     OW15320   4.565   3.615   4.156 -0.3399  0.3969  0.1882
 4959SOL    HW115321   4.624   3.640   4.085 -1.7342  1.1896 -0.7486
 4959SOL    HW215322   4.618   3.620   4.235  0.1814  3.9586 -0.2252
 4960SOL     OW15323   1.797   0.671   1.093 -0.4242 -0.9472 -0.3771
 4960SOL    HW115324   1.724   0.726   1.064 -0.0832 -0.8614 -1.1034
 4960SOL    HW215325   1.756   0.591   1.126 -0.8810 -0.5786 -0.0400
 4961SOL     OW15326   1.282   1.654   0.487 -0.1427  0.2331  0.3214
 4961SOL    HW115327   1.329   1.694   0.560 -0.1808  0.3806  0.2662
 4961SOL    HW215328   1.190   1.677   0.502 -0.3589 -0.9611  1.0172
 4962SOL     OW15329   1.910   2.007   4.144  0.6293  0.0627 -0.0527
 4962SOL    HW115330   1.965   2.083   4.160 -0.7892  1.4150 -1.2924
 4962SOL    HW215331   1.824   2.031   4.178  0.2090 -1.0694 -0.2613
 4963SOL     OW15332   5.131   5.794   4.268 -0.2542 -0.4171 -0.5828
 4963SOL    HW115333   5.110   5.887   4.275 -1.7512 -0.5490 -2.3942
 4963SOL    HW215334   5.099   5.756   4.350 -2.7721  0.1978 -1.1847
 4964SOL     OW15335   4.003   3.953   0.714  0.4215 -0.0757 -0.1151
 4964SOL    HW115336   4.073   4.015   0.692  1.4810 -0.8975  0.8515
 4964SOL    HW215337   4.026   3.919   0.800  1.0802 -3.4412 -1.4573
 4965SOL     OW15338   1.402   4.875   6.092 -0.0077 -0.0818 -0.3967
 4965SOL    HW115339   1.321   4.851   6.138  1.3698 -0.3058  2.0931
 4965SOL    HW215340   1.438   4.792   6.061  0.2329 -0.2167  0.2323
 4966SOL     OW15341   3.664   1.585   4.778 -0.6891 -0.1678 -0.1277
 4966SOL    HW115342   3.670   1.513   4.841  0.7974  0.7062  0.7907
 4966SOL    HW215343   3.572   1.611   4.780 -1.0258 -1.3207  0.3250
 4967SOL     OW15344   1.610   3.981   5.350  0.1412 -0.3722 -0.4035
 4967SOL    HW115345   1.601   3.917   5.421 -1.2679 -1.4978 -1.5246
 4967SOL    HW215346   1.704   3.999   5.345  0.1723  0.6497  2.4709
 4968SOL     OW15347   2.341   5.087   0.086  0.1285 -0.2833  0.4221
 4968SOL    HW115348   2.399   5.011   0.088  0.1089 -0.2873  0.9286
 4968SOL    HW215349   2.372   5.138   0.011 -0.0678 -0.9473 -0.1195
 4969SOL     OW15350   1.830   5.828   2.942 -0.0060  0.0243 -0.2821
 4969SOL    HW115351   1.887   5.904   2.925 -0.0484  0.5510  1.6835
 4969SOL    HW215352   1.753   5.843   2.887  0.3189  1.0193 -0.4951
 4970SOL     OW15353   1.576   4.037   0.690  0.2237  1.6140  0.2251
 4970SOL    HW115354   1.603   4.124   0.720 -0.2722  1.1644  2.1151
 4970SOL    HW215355   1.625   3.977   0.745 -1.0551  0.7285  0.4391
 4971SOL     OW15356   3.070   3.758   0.971  0.0785 -0.2058 -0.4023
 4971SOL    HW115357   3.007   3.781   0.902  0.7217  2.6130 -0.1863
 4971SOL    HW215358   3.017   3.713   1.037 -0.5203 -3.1216 -2.6707
 4972SOL     OW15359   1.458   4.513   5.044 -0.3237 -0.3599 -0.1579
 4972SOL    HW115360   1.511   4.592   5.042  1.3943 -1.4485  0.6207
 4972SOL    HW215361   1.367   4.545   5.045  0.3083  1.5547 -0.6955
 4973SOL     OW15362   3.724   5.575   0.990  0.3233  0.4872  0.4615
 4973SOL    HW115363   3.820   5.577   0.994  0.4852 -3.1091  1.4328
 4973SOL    HW215364   3.701   5.484   1.009 -3.2365  0.7977 -1.4972
 4974SOL     OW15365   0.439   2.961   2.460  0.0727  0.3608  0.4565
 4974SOL    HW115366   0.501   2.892   2.437 -1.6169 -0.7814 -0.9210
 4974SOL    HW215367   0.411   2.996   2.376 -1.5744  0.4284  1.0095
 4975SOL     OW15368   2.193   0.808   3.551  0.2367  0.1174  0.0634
 4975SOL    HW115369   2.222   0.856   3.473 -0.3019 -0.5799 -0.5857
 4975SOL    HW215370   2.098   0.819   3.552  0.1580 -0.5257  0.1797
 4976SOL     OW15371   2.409   5.214   5.260 -0.5927 -0.1976  0.3096
 4976SOL    HW115372   2.436   5.288   5.206 -1.3169 -0.4622 -0.4234
 4976SOL    HW215373   2.406   5.140   5.200  1.3904 -1.1435  1.2715
 4977SOL     OW15374   4.122   2.876   6.054 -0.2681 -0.6331 -0.0294
 4977SOL    HW115375   4.081   2.929   6.123  1.0673 -1.0946  1.1737
 4977SOL    HW215376   4.053   2.863   5.989 -0.9672  1.5832  0.1891
 4978SOL     OW15377   0.136   5.866   2.109  0.8286  0.3235 -0.2585
 4978SOL    HW115378   0.088   5.924   2.168  0.0427 -0.7488  0.2070
 4978SOL    HW215379   0.199   5.821   2.165  1.5650  0.8439 -0.6495
 4979SOL     OW15380   1.856   5.988   4.335 -0.5758 -0.7890 -0.2453
 4979SOL    HW115381   1.929   5.995   4.396 -1.8865  1.6249  1.1639
 4979SOL    HW215382   1.896   5.953   4.255  2.3454  1.2737  0.1412
 4980SOL     OW15383   1.122   0.360   3.623  0.2934  0.7043 -0.0645
 4980SOL    HW115384   1.131   0.308   3.703  1.4069  0.3494 -0.3906
 4980SOL    HW215385   1.136   0.297   3.552 -1.2637  0.8950 -0.5773
 4981SOL     OW15386   1.731   5.674   4.777  0.0655 -0.0019  0.4652
 4981SOL    HW115387   1.674   5.694   4.703 -0.0703  1.0773  0.8457
 4981SOL    HW215388   1.683   5.609   4.828  0.0449 -0.5538 -0.2542
 4982SOL     OW15389   5.226   0.264   6.067  0.5477 -0.2546 -1.0386
 4982SOL    HW115390   5.278   0.206   6.122  0.5126 -1.1687 -1.9265
 4982SOL    HW215391   5.289   0.300   6.005  0.6040  0.8351 -0.3697
 4983SOL     OW15392   2.626   5.382   5.083  0.7979 -0.2466 -0.4543
 4983SOL    HW115393   2.580   5.464   5.062 -1.3971 -1.4058 -0.4399
 4983SOL    HW215394   2.655   5.349   4.998 -0.0625 -0.4309 -0.6819
 4984SOL     OW15395   5.178   3.553   4.748 -0.1952  0.1507  0.3959
 4984SOL    HW115396   5.090   3.526   4.722 -0.3831  2.2412 -1.4399
 4984SOL    HW215397   5.221   3.472   4.774 -2.6129 -0.9379  1.3116
 4985SOL     OW15398   0.984   1.671   3.252  0.6589  0.1808 -0.5825
 4985SOL    HW115399   0.987   1.658   3.158  2.1075 -0.8538 -0.4176
 4985SOL    HW215400   0.912   1.733   3.265  1.0499  1.0900 -2.4400
 4986SOL     OW15401   3.835   0.774   4.415  0.4127  0.0939  0.3133
 4986SOL    HW115402   3.745   0.742   4.411  0.5520 -0.2058 -2.0170
 4986SOL    HW215403   3.836   0.850   4.357  1.9109 -0.6288 -0.6601
 4987SOL     OW15404   1.722   2.734   3.519  0.6025  0.4176 -0.4551
 4987SOL    HW115405   1.665   2.731   3.596 -0.5476 -0.6087 -1.3241
 4987SOL    HW215406   1.810   2.719   3.554 -0.1294 -2.1308  0.4426
 4988SOL     OW15407   0.321   2.044   3.291  0.3331  0.5847 -0.1654
 4988SOL    HW115408   0.407   2.006   3.276  0.2861  0.2814  0.2863
 4988SOL    HW215409   0.279   1.984   3.354 -0.9728 -0.4309 -1.9053
 4989SOL     OW15410   2.102   3.591   1.157  0.4504  0.6593 -0.3259
 4989SOL    HW115411   2.106   3.686   1.157  0.2662  0.6688  0.0404
 4989SOL    HW215412   2.047   3.570   1.081 -2.7006  1.0263  1.6598
 4990SOL     OW15413   0.983   0.220   0.003  0.2001 -0.0298  0.1576
 4990SOL    HW115414   0.938   0.291   0.047 -0.0150  0.0338 -0.1601
 4990SOL    HW215415   0.926   0.144   0.016 -0.9921  0.4480 -1.8574
 4991SOL     OW15416   3.857   4.640   4.992  0.0696  0.2081 -0.0157
 4991SOL    HW115417   3.860   4.551   4.955  0.9793  0.3837 -0.3844
 4991SOL    HW215418   3.816   4.693   4.924 -1.0783 -0.0355  0.4605
 4992SOL     OW15419   0.625   5.642   1.353 -0.0975  0.1107  0.2303
 4992SOL    HW115420   0.572   5.605   1.282 -0.8508  0.8985  0.3571
 4992SOL    HW215421   0.702   5.585   1.358 -0.6967 -0.7784 -0.2915
 4993SOL     OW15422   0.434   4.776   2.185  0.0707 -0.6482  0.1776
 4993SOL    HW115423   0.419   4.860   2.228 -0.8845 -0.9014  0.3701
 4993SOL    HW215424   0.527   4.758   2.198  0.1382  0.0580  0.7116
 4994SOL     OW15425   2.378   5.623   0.769  0.0623 -0.3160 -0.3514
 4994SOL    HW115426   2.451   5.683   0.777 -0.3119  0.2095 -0.8066
 4994SOL    HW215427   2.303   5.671   0.805 -0.0505 -0.8666  0.1619
 4995SOL     OW15428   0.749   4.232   1.710  0.7702  0.1848  0.1187
 4995SOL    HW115429   0.701   4.310   1.736  0.0638 -0.1013 -0.2896
 4995SOL    HW215430   0.683   4.177   1.667  0.9636 -1.1304  1.3962
 4996SOL     OW15431   2.178   2.716   3.099 -0.4873 -0.5346  0.4450
 4996SOL    HW115432   2.115   2.717   3.171 -0.3121  1.5544  0.6254
 4996SOL    HW215433   2.255   2.762   3.134 -0.5143  0.7941 -1.1503
 4997SOL     OW15434   0.730   2.044   1.725 -0.1865 -0.3914  0.0256
 4997SOL    HW115435   0.824   2.024   1.733  0.2519 -0.3208 -3.6134
 4997SOL    HW215436   0.688   1.958   1.716 -0.2823 -0.3502  0.0801
 4998SOL     OW15437   4.113   5.871   2.447 -0.0191  0.4011 -0.1995
 4998SOL    HW115438   4.077   5.959   2.434  1.4122  0.7478 -2.3835
 4998SOL    HW215439   4.208   5.884   2.440  0.2194 -1.2545 -0.2225
 4999SOL     OW15440   3.661   4.793   4.033 -0.4167 -0.6778  0.1383
 4999SOL    HW115441   3.721   4.749   4.094 -1.6210  0.5537  2.3681
 4999SOL    HW215442   3.589   4.731   4.021  0.8295 -1.8311 -1.9066
 5000SOL     OW15443   5.819   0.908   5.550  0.1043 -0.6328  0.0705
 5000SOL    HW115444   5.823   0.851   5.473  0.0130 -0.0770 -0.3530
 5000SOL    HW215445   5.910   0.920   5.575  0.1455 -0.6734 -0.0560
 5001SOL     OW15446   3.814   5.273   0.027  0.6596  0.0612 -0.6267
 5001SOL    HW115447   3.729   5.308  -0.001  0.9643  0.0180 -1.6363
 5001SOL    HW215448   3.850   5.340   0.084 -0.2883 -0.1591  0.2761
 5002SOL     OW15449   4.761   0.679   0.375 -0.7280  0.2230  0.4063
 5002SOL    HW115450   4.829   0.743   0.396  0.2128 -1.1649  1.7851
 5002SOL    HW215451   4.710   0.721   0.305  2.1552  0.9127 -1.5000
 5003SOL     OW15452   2.526   4.557   3.634  0.0355  0.5317  0.5996
 5003SOL    HW115453   2.525   4.516   3.720  2.5108 -2.4034 -0.5564
 5003SOL    HW215454   2.578   4.637   3.646  0.1097  0.3139  1.8655
 5004SOL     OW15455   6.053   0.617   1.491  0.1989  0.3752  0.7220
 5004SOL    HW115456   5.992   0.659   1.430  0.5706  0.4892  0.4238
 5004SOL    HW215457   6.025   0.526   1.494 -0.5668  0.6162  1.3141
 5005SOL     OW15458   1.448   5.656   1.785  0.0157 -0.5223  0.4555
 5005SOL    HW115459   1.460   5.722   1.853 -2.6867  0.1646  0.3971
 5005SOL    HW215460   1.448   5.572   1.832  0.7586 -0.2635  0.9203
 5006SOL     OW15461   0.607   0.512   2.199  0.1136 -0.5162  0.3776
 5006SOL    HW115462   0.579   0.422   2.215 -0.3126 -0.6161 -0.8622
 5006SOL    HW215463   0.528   0.564   2.205 -0.0062 -0.5073 -0.9020
 5007SOL     OW15464   4.643   1.419   0.006 -0.2082 -0.2876  0.6046
 5007SOL    HW115465   4.665   1.392  -0.083 -0.3703  0.5479  0.2983
 5007SOL    HW215466   4.690   1.358   0.063  0.9560 -0.0267 -0.0548
 5008SOL     OW15467   3.545   1.929   3.436  0.0282 -0.4573 -0.8067
 5008SOL    HW115468   3.480   1.999   3.432  0.3186  0.0981  1.9210
 5008SOL    HW215469   3.495   1.850   3.454 -0.0594 -0.4242 -0.9025
 5009SOL     OW15470   0.536   5.338   0.082  0.4876  0.5366  0.3638
 5009SOL    HW115471   0.516   5.255   0.039 -1.1682  1.2498 -0.3257
 5009SOL    HW215472   0.522   5.404   0.014 -1.4942  1.6411  1.7420
 5010SOL     OW15473   1.204   1.227   2.273 -0.1347 -0.3621  0.2549
 5010SOL    HW115474   1.263   1.252   2.344  0.2141  1.1934 -0.5593
 5010SOL    HW215475   1.247   1.257   2.193 -2.7122  2.3659 -0.2812
 5011SOL     OW15476   4.793   3.570   1.957  0.0512  0.0036 -0.2000
 5011SOL    HW115477   4.733   3.618   2.013 -0.3137  0.1975 -0.7453
 5011SOL    HW215478   4.743   3.554   1.877  1.1344  1.3615 -1.2131
 5012SOL     OW15479   0.010   4.260   4.137 -0.0396 -0.5764  0.4240
 5012SOL    HW115480   0.075   4.316   4.178  0.4007 -0.8734  0.1482
 5012SOL    HW215481  -0.072   4.309   4.142  0.4306  0.2914 -0.2306
 5013SOL     OW15482   4.642   4.962   0.728  0.5126 -0.1992  0.0464
 5013SOL    HW115483   4.637   4.956   0.823  0.4003 -1.3287 -0.0149
 5013SOL    HW215484   4.561   5.007   0.702  0.6154  0.2455  0.4853
 5014SOL     OW15485   2.927   4.184   2.763 -0.6020 -0.2805 -0.0788
 5014SOL    HW115486   2.871   4.188   2.842  0.0029 -1.8568  0.4701
 5014SOL    HW215487   2.902   4.101   2.721 -0.2912  0.1275 -1.0835
 5015SOL     OW15488   4.323   3.431   4.843  0.4168 -0.7961  0.0148
 5015SOL    HW115489   4.325   3.420   4.938  0.7260 -0.7603  0.0134
 5015SOL    HW215490   4.242   3.480   4.826  1.2850  0.8584  0.4489
 5016SOL     OW15491   5.904   0.831   3.822 -0.2525 -0.7944  0.3516
 5016SOL    HW115492   5.810   0.848   3.819 -0.0488  0.3030 -1.8394
 5016SOL    HW215493   5.910   0.740   3.853 -2.1266 -1.3554 -0.7045
 5017SOL     OW15494   3.145   1.971   2.665 -0.0952 -0.5598  0.0933
 5017SOL    HW115495   3.228   1.924   2.666 -0.3527 -1.0155 -0.0097
 5017SOL    HW215496   3.169   2.062   2.683  0.3607 -0.7826  0.6198
 5018SOL     OW15497   6.013   1.879   4.070 -0.4091 -0.1778  0.0617
 5018SOL    HW115498   5.929   1.836   4.085  0.9479 -2.4767  1.7847
 5018SOL    HW215499   6.073   1.808   4.045  1.2506  1.2196 -0.1364
 5019SOL     OW15500   6.059   3.640   2.042  0.1636  0.0441  0.0239
 5019SOL    HW115501   6.142   3.629   2.088 -1.9499 -0.4313  4.1931
 5019SOL    HW215502   6.083   3.676   1.957  4.3869  4.6084  2.6556
 5020SOL     OW15503   5.828   2.579   1.663 -0.0685 -0.4906 -0.0214
 5020SOL    HW115504   5.801   2.658   1.616 -1.4873  0.1926  1.8468
 5020SOL    HW215505   5.747   2.543   1.699  0.7642 -1.9072  0.5116
 5021SOL     OW15506   0.233   0.927   2.064 -0.0458 -0.2570  0.8789
 5021SOL    HW115507   0.228   0.991   2.135  1.2837  0.3321  0.4679
 5021SOL    HW215508   0.268   0.976   1.990  0.4952 -1.3401  0.3979
 5022SOL     OW15509   1.749   1.599   5.051  0.1251  0.3008 -0.2217
 5022SOL    HW115510   1.784   1.563   4.969 -0.4390  0.6922 -0.6495
 5022SOL    HW215511   1.826   1.634   5.097  0.7832 -1.9516  0.5052
 5023SOL     OW15512   4.342   2.302   0.192  0.2028  0.4699  0.0620
 5023SOL    HW115513   4.379   2.314   0.104  0.4234 -2.8366 -0.4035
 5023SOL    HW215514   4.415   2.269   0.244 -0.4819  0.2140  0.8784
 5024SOL     OW15515   5.438   5.314   3.717 -0.0332  0.5955 -0.0633
 5024SOL    HW115516   5.532   5.331   3.708 -0.0571  0.4424 -0.6520
 5024SOL    HW215517   5.399   5.400   3.731  0.2321  0.6191  0.5686
 5025SOL     OW15518   5.870   2.801   3.489 -0.4621  0.6036  0.2647
 5025SOL    HW115519   5.793   2.781   3.542  0.0064  0.0867  0.7654
 5025SOL    HW215520   5.930   2.844   3.550  0.3898 -0.6951  0.3662
 5026SOL     OW15521   2.584   5.302   0.851 -0.7651 -0.1633  0.6017
 5026SOL    HW115522   2.499   5.302   0.806 -1.6856  0.4529  2.2775
 5026SOL    HW215523   2.564   5.273   0.940  1.0371 -1.4764  0.6387
 5027SOL     OW15524   4.908   1.622   3.463 -0.5110  0.2046 -0.3542
 5027SOL    HW115525   4.893   1.688   3.396  2.6604  0.6011 -0.8283
 5027SOL    HW215526   4.912   1.539   3.415  0.8388  0.3779 -0.5821
 5028SOL     OW15527   2.378   0.774   3.248  0.4607 -0.5564  0.7362
 5028SOL    HW115528   2.466   0.739   3.237  0.8098  0.3057  0.7139
 5028SOL    HW215529   2.386   0.839   3.318 -0.5187 -1.7197  1.9791
 5029SOL     OW15530   0.802   2.583   1.244 -0.1315 -0.3523  0.2773
 5029SOL    HW115531   0.790   2.573   1.338  0.9153  1.6464  0.6713
 5029SOL    HW215532   0.821   2.676   1.231 -0.9574 -0.4292 -2.0012
 5030SOL     OW15533   4.851   3.240   2.928 -0.0960 -0.2367  0.3080
 5030SOL    HW115534   4.772   3.244   2.875 -0.1250 -0.3586  0.3419
 5030SOL    HW215535   4.828   3.286   3.009 -0.3607 -0.8683  0.6059
 5031SOL     OW15536   3.546   1.394   1.915  0.7935 -0.5958  0.5721
 5031SOL    HW115537   3.456   1.366   1.901  0.8459  0.0789 -1.5136
 5031SOL    HW215538   3.584   1.327   1.972  0.0883 -3.1811 -1.7709
 5032SOL     OW15539   4.407   0.005   5.919 -0.0918  0.5154 -0.3422
 5032SOL    HW115540   4.439   0.005   6.010  1.5239 -1.2784 -0.8374
 5032SOL    HW215541   4.359  -0.077   5.911 -0.0601  0.5769 -1.1546
 5033SOL     OW15542   5.408   2.937   2.309  0.2450  0.0305 -0.1533
 5033SOL    HW115543   5.404   2.874   2.381 -0.0217  0.8877  0.5936
 5033SOL    HW215544   5.457   2.892   2.240 -1.5594 -1.7344 -0.3773
 5034SOL     OW15545   3.828   1.400   3.362  0.2536  0.2364 -0.2890
 5034SOL    HW115546   3.780   1.477   3.330 -0.4802 -0.3491 -0.6133
 5034SOL    HW215547   3.833   1.342   3.286  0.0451 -0.4077  0.1844
 5035SOL     OW15548   2.466   5.939   4.127  0.4968  0.1297  0.8188
 5035SOL    HW115549   2.451   6.033   4.127  2.8200  0.6117 -1.0196
 5035SOL    HW215550   2.558   5.930   4.103 -0.0187 -2.6404 -0.4948
 5036SOL     OW15551   3.627   3.994   5.523  0.3993  0.2250  0.0842
 5036SOL    HW115552   3.627   4.060   5.593 -0.1917  0.7853 -0.4329
 5036SOL    HW215553   3.570   4.031   5.455  0.8072 -0.4009 -0.6120
 5037SOL     OW15554   6.037   5.707   3.475  0.4951 -0.2929  0.6107
 5037SOL    HW115555   5.999   5.664   3.398  0.9680 -0.3160  0.3905
 5037SOL    HW215556   6.044   5.637   3.540  0.3541 -0.3337  0.5830
 5038SOL     OW15557   1.653   1.897   3.843 -0.0486  0.5019 -0.1777
 5038SOL    HW115558   1.595   1.881   3.769 -0.1812  1.8459 -0.3932
 5038SOL    HW215559   1.647   1.817   3.896 -2.7214  0.8652  0.2155
 5039SOL     OW15560   0.609   0.595   3.292 -0.3893  0.2490  0.1314
 5039SOL    HW115561   0.539   0.545   3.251 -0.1810 -0.0653  0.1587
 5039SOL    HW215562   0.567   0.639   3.367 -0.8491  1.1049 -0.6091
 5040SOL     OW15563   5.707   5.130   2.946 -0.4971 -0.3370  0.3685
 5040SOL    HW115564   5.708   5.181   3.027 -1.4826 -0.7704  0.6661
 5040SOL    HW215565   5.626   5.080   2.950  0.2212 -1.5929 -0.1211
 5041SOL     OW15566   3.559   0.419   0.245  0.1963  0.5576  0.1850
 5041SOL    HW115567   3.560   0.357   0.318  0.4678 -0.0413 -0.3200
 5041SOL    HW215568   3.477   0.399   0.198 -0.8342  2.0601  1.2535
 5042SOL     OW15569   3.629   3.759   4.408 -0.0054 -0.2055 -0.1905
 5042SOL    HW115570   3.705   3.798   4.365  0.7575  1.2941  2.2956
 5042SOL    HW215571   3.554   3.789   4.357  0.9090  0.3488 -1.2476
 5043SOL     OW15572   0.987   3.322   5.609  0.2681  0.4997  0.7402
 5043SOL    HW115573   1.053   3.253   5.608  0.2201  0.3737  2.4435
 5043SOL    HW215574   0.913   3.285   5.561  0.8404  0.0305  0.1963
 5044SOL     OW15575   0.514   4.498   4.426 -0.4091 -0.0850  0.0735
 5044SOL    HW115576   0.479   4.584   4.450  0.8874  0.0265  1.8067
 5044SOL    HW215577   0.599   4.494   4.471 -0.7764 -2.5705  0.6873
 5045SOL     OW15578   4.234   0.306   3.560 -0.1806  0.0654  0.7529
 5045SOL    HW115579   4.142   0.298   3.534  0.2390 -2.6776 -0.2659
 5045SOL    HW215580   4.246   0.239   3.627  1.5994 -1.5675 -1.0420
 5046SOL     OW15581   5.870   1.187   5.275  0.4387  0.2185  0.2793
 5046SOL    HW115582   5.849   1.256   5.212  2.6330  0.3091 -0.4397
 5046SOL    HW215583   5.963   1.201   5.296  0.9027 -2.4016  0.2392
 5047SOL     OW15584   1.366   0.444   0.643 -0.2346 -0.3011 -0.0310
 5047SOL    HW115585   1.333   0.356   0.626  2.0610 -1.2508  0.0458
 5047SOL    HW215586   1.447   0.450   0.591  0.3478  1.2623  0.9747
 5048SOL     OW15587   1.168   3.987   0.763  0.1485 -0.2513  0.3234
 5048SOL    HW115588   1.244   3.949   0.807  0.3364 -0.1485  0.0896
 5048SOL    HW215589   1.170   3.949   0.676 -1.7898 -2.6209  1.2113
 5049SOL     OW15590   0.064   3.167   0.087 -0.3193  0.0869 -0.1002
 5049SOL    HW115591   0.103   3.249   0.117 -0.1496 -0.1156  0.2346
 5049SOL    HW215592  -0.002   3.194   0.023  1.2577  0.3895 -1.6934
 5050SOL     OW15593   3.538   1.171   4.610 -0.1739 -0.3885 -0.6601
 5050SOL    HW115594   3.500   1.201   4.693  1.6490 -0.4759  0.2446
 5050SOL    HW215595   3.538   1.249   4.554 -1.1603 -0.2632 -0.5013
 5051SOL     OW15596   2.228   5.610   1.123 -0.3744 -0.0091  0.1422
 5051SOL    HW115597   2.141   5.601   1.084  0.0322  0.1121 -0.8383
 5051SOL    HW215598   2.280   5.652   1.055  1.0049 -2.0327 -0.1386
 5052SOL     OW15599   1.369   0.889   4.211  0.1423 -0.2168  0.6509
 5052SOL    HW115600   1.323   0.962   4.254 -0.2636  0.0140 -0.1445
 5052SOL    HW215601   1.434   0.860   4.275  0.8539  1.3635  0.6997
 5053SOL     OW15602   4.359   3.788   0.384 -0.5841  0.1352 -0.2869
 5053SOL    HW115603   4.428   3.810   0.446  0.1250 -0.6211 -0.7847
 5053SOL    HW215604   4.369   3.694   0.370 -1.9960 -0.0768 -0.0438
 5054SOL     OW15605   3.048   2.801   0.731  0.2800  0.2276  0.2942
 5054SOL    HW115606   3.065   2.746   0.654  3.2057  0.5066  0.6332
 5054SOL    HW215607   3.042   2.739   0.803  0.0781  0.1270  0.1916
 5055SOL     OW15608   3.174   5.473   2.216  0.0701 -0.3786  0.0322
 5055SOL    HW115609   3.234   5.435   2.280  1.2429  1.0646 -0.1601
 5055SOL    HW215610   3.227   5.483   2.137 -0.7676 -0.1808 -0.5178
 5056SOL     OW15611   5.947   0.192   2.118  0.9772 -0.2582  0.0029
 5056SOL    HW115612   5.950   0.104   2.156  1.7712 -0.8346 -1.3447
 5056SOL    HW215613   5.976   0.249   2.189 -1.0499 -0.8604  1.4081
 5057SOL     OW15614   5.927   0.476   1.890  0.2474 -0.3824 -0.0824
 5057SOL    HW115615   5.915   0.554   1.835  1.7008  1.4790  2.0288
 5057SOL    HW215616   5.838   0.449   1.912 -0.3101  0.1269 -1.5691
 5058SOL     OW15617   2.100   1.076   1.647 -0.4786 -0.2243  0.1227
 5058SOL    HW115618   2.145   1.160   1.660  1.4313 -1.0109 -0.9634
 5058SOL    HW215619   2.045   1.090   1.570 -0.7563  0.2548  0.4077
 5059SOL     OW15620   1.947   0.813   4.098  0.2415 -0.2454  0.1898
 5059SOL    HW115621   1.932   0.808   4.004  0.7590  1.9732 -0.0615
 5059SOL    HW215622   2.025   0.759   4.113  0.3691 -0.3166 -0.6958
 5060SOL     OW15623   2.023   1.008   2.923 -0.0933 -0.0165 -0.3432
 5060SOL    HW115624   1.991   0.951   2.854  1.0328 -0.4532 -0.5305
 5060SOL    HW215625   2.099   0.963   2.959  1.0377  1.4838 -0.7151
 5061SOL     OW15626   5.803   5.936   4.812  0.2235  0.1464  0.2094
 5061SOL    HW115627   5.802   5.856   4.760  0.6797  0.4074 -0.2170
 5061SOL    HW215628   5.883   5.931   4.864 -0.3050 -0.1806  1.0115
 5062SOL     OW15629   0.810   5.050   2.298  0.1314  0.4347  0.1183
 5062SOL    HW115630   0.761   5.123   2.260 -2.7392  0.0084  2.5889
 5062SOL    HW215631   0.756   4.973   2.280  1.3093 -0.5318  0.5847
 5063SOL     OW15632   4.802   2.083   2.014 -0.2371 -0.2580  0.2102
 5063SOL    HW115633   4.708   2.067   2.013 -0.1239 -1.0603 -1.4543
 5063SOL    HW215634   4.817   2.135   2.093 -2.1848  0.6474  0.0371
 5064SOL     OW15635   1.601   3.758   5.507  0.3146  0.0257 -0.2577
 5064SOL    HW115636   1.516   3.714   5.504  0.2732  0.0547  0.2862
 5064SOL    HW215637   1.612   3.782   5.599  1.6469 -1.4631  0.0357
 5065SOL     OW15638   2.550   4.510   0.414 -0.5500  0.6746 -0.1231
 5065SOL    HW115639   2.593   4.434   0.454 -1.5568  0.8584  1.3995
 5065SOL    HW215640   2.468   4.475   0.379 -0.3564  0.8013 -0.7063
 5066SOL     OW15641   1.791   4.787   2.967 -0.2517  0.6340 -0.3986
 5066SOL    HW115642   1.874   4.766   2.925 -0.4035  0.6324 -0.7031
 5066SOL    HW215643   1.724   4.757   2.905 -0.5183 -1.0187  0.6117
 5067SOL     OW15644   0.420   3.457   2.893  0.5526  0.4230  0.3110
 5067SOL    HW115645   0.371   3.522   2.944  1.9059  0.7787  1.2074
 5067SOL    HW215646   0.509   3.462   2.927  1.0289 -0.8295 -0.6760
 5068SOL     OW15647   3.343   3.823   2.099  0.3606  0.0814 -0.1100
 5068SOL    HW115648   3.419   3.878   2.082  0.2687 -0.2394 -1.7648
 5068SOL    HW215649   3.370   3.764   2.169  0.9008  1.3469  0.7713
 5069SOL     OW15650   4.175   5.271   3.933 -0.5026  0.5513 -0.1294
 5069SOL    HW115651   4.270   5.264   3.925 -0.4306  1.7457 -0.3772
 5069SOL    HW215652   4.141   5.220   3.860 -0.0763 -0.3755  0.3018
 5070SOL     OW15653   4.901   0.276   1.151  0.3759 -0.5929  0.1384
 5070SOL    HW115654   4.907   0.293   1.057 -1.5790 -0.6127 -0.0320
 5070SOL    HW215655   4.983   0.309   1.187  0.1204  1.7702 -1.2402
 5071SOL     OW15656   5.482   3.014   1.148  0.4203 -0.1329 -0.0975
 5071SOL    HW115657   5.558   2.956   1.145  1.5632  1.2960 -3.4312
 5071SOL    HW215658   5.504   3.077   1.217  2.0375 -0.0677 -0.6273
 5072SOL     OW15659   2.532   1.808   4.422  0.4978  0.8839  0.7760
 5072SOL    HW115660   2.447   1.844   4.446  1.2479  2.4009  1.2951
 5072SOL    HW215661   2.595   1.878   4.443  1.9736 -0.5296  1.3148
 5073SOL     OW15662   3.633   1.199   0.707 -0.0428 -0.1421 -1.0206
 5073SOL    HW115663   3.584   1.263   0.758 -0.7080  0.2298 -2.0878
 5073SOL    HW215664   3.713   1.185   0.757 -0.1493  1.0838 -0.4562
 5074SOL     OW15665   1.959   1.938   0.414  0.0209  0.5964  0.2914
 5074SOL    HW115666   2.039   1.944   0.361 -0.4787 -0.5763 -0.6084
 5074SOL    HW215667   1.897   1.997   0.371 -0.2774 -0.1041 -0.2470
 5075SOL     OW15668   2.622   0.228   3.185 -0.7209  0.3150 -0.2597
 5075SOL    HW115669   2.658   0.229   3.274  1.2961 -2.0133 -0.9401
 5075SOL    HW215670   2.661   0.304   3.142  2.1562 -1.1240 -0.4188
 5076SOL     OW15671   3.917   5.012   2.024 -0.2834  0.1351  0.7595
 5076SOL    HW115672   3.928   4.948   2.093 -1.7691 -0.7589  0.2283
 5076SOL    HW215673   3.839   5.062   2.049 -0.9104 -0.2747 -0.2872
 5077SOL     OW15674   2.130   3.680   0.848  0.0615 -0.3729 -0.2602
 5077SOL    HW115675   2.091   3.594   0.863  0.3591 -0.4283  0.1880
 5077SOL    HW215676   2.224   3.666   0.853  0.1296 -0.1172 -0.7094
 5078SOL     OW15677   3.883   0.087   1.165 -0.3889  0.4203  0.0455
 5078SOL    HW115678   3.877   0.000   1.206 -0.0662  1.1709  1.7713
 5078SOL    HW215679   3.974   0.093   1.137 -0.7746 -0.3676 -1.4756
 5079SOL     OW15680   1.376   5.091   0.700 -0.2135 -0.2010 -0.0921
 5079SOL    HW115681   1.437   5.116   0.631 -0.9923  1.3692 -0.2732
 5079SOL    HW215682   1.399   5.147   0.775  1.2401 -2.5356  1.3233
 5080SOL     OW15683   4.580   3.686   2.410 -0.0815 -0.2460 -0.0041
 5080SOL    HW115684   4.658   3.726   2.448 -0.4444 -0.8561  1.4608
 5080SOL    HW215685   4.523   3.760   2.387  0.3643  0.1515  0.1760
 5081SOL     OW15686   0.271   5.653   5.024  0.3079  0.1071  0.3405
 5081SOL    HW115687   0.254   5.578   4.967  0.5639 -0.2179  0.6869
 5081SOL    HW215688   0.365   5.667   5.018  0.1267  1.0888 -0.5635
 5082SOL     OW15689   5.354   2.003   5.504 -0.3555  0.3807  0.2677
 5082SOL    HW115690   5.364   1.909   5.510 -1.0873  0.2681 -0.0667
 5082SOL    HW215691   5.275   2.022   5.556  1.3939  1.1944  2.7949
 5083SOL     OW15692   2.823   5.226   0.716  0.1002 -0.1527  0.3283
 5083SOL    HW115693   2.743   5.243   0.766  1.5024  0.3735  2.5661
 5083SOL    HW215694   2.865   5.312   0.709 -0.0347 -0.2209 -1.8324
 5084SOL     OW15695   2.630   5.707   5.773  0.3611 -0.0653 -0.4141
 5084SOL    HW115696   2.705   5.766   5.765  0.4418 -0.2192 -0.8205
 5084SOL    HW215697   2.649   5.653   5.850  0.5963 -0.0048 -0.4306
 5085SOL     OW15698   4.652   3.709   4.667 -0.3261 -0.2180 -0.4776
 5085SOL    HW115699   4.742   3.728   4.642 -0.9963  1.2422 -2.0600
 5085SOL    HW215700   4.629   3.779   4.728 -0.8514  0.3994 -1.3519
 5086SOL     OW15701   1.867   3.539   0.693 -0.5760 -0.7259 -0.0260
 5086SOL    HW115702   1.798   3.482   0.659 -0.6413 -1.4344  1.2417
 5086SOL    HW215703   1.942   3.523   0.636 -1.4492  0.1117 -1.4764
 5087SOL     OW15704   3.160   1.838   2.420  0.1836 -0.2303 -0.7908
 5087SOL    HW115705   3.184   1.747   2.438  0.9118 -0.0342 -0.7118
 5087SOL    HW215706   3.153   1.879   2.506 -1.0627 -0.4289 -0.7919
 5088SOL     OW15707   2.206   3.030   0.533 -0.0886  0.0929  0.4304
 5088SOL    HW115708   2.241   3.113   0.500 -1.5854  0.1675 -1.0602
 5088SOL    HW215709   2.180   2.982   0.455  1.0545 -1.9710  1.2389
 5089SOL     OW15710   1.352   3.888   1.537  0.3795 -0.2894  0.3462
 5089SOL    HW115711   1.428   3.946   1.545  2.6898 -3.2594  1.7141
 5089SOL    HW215712   1.296   3.912   1.611  1.0182  0.5087  0.5905
 5090SOL     OW15713   4.579   2.223   1.759 -0.2228  0.2565  0.2762
 5090SOL    HW115714   4.517   2.224   1.832  1.5695 -1.4742  1.9711
 5090SOL    HW215715   4.596   2.129   1.744 -1.7411  0.4033 -3.5628
 5091SOL     OW15716   3.463   2.205   5.110  0.6470 -0.1552 -0.7264
 5091SOL    HW115717   3.387   2.248   5.070  2.3000  0.4933 -3.3799
 5091SOL    HW215718   3.504   2.272   5.164 -0.4683 -0.4423  0.5350
 5092SOL     OW15719   5.539   0.398   0.005  0.2009 -0.3863 -0.0476
 5092SOL    HW115720   5.552   0.467  -0.060 -0.7536 -0.7909 -0.6916
 5092SOL    HW215721   5.607   0.334  -0.013 -0.2700 -0.6616 -0.8985
 5093SOL     OW15722   0.492   5.663   4.147 -0.4358  0.0303  0.3860
 5093SOL    HW115723   0.397   5.666   4.133 -0.6154  1.3097  1.6790
 5093SOL    HW215724   0.504   5.604   4.221 -0.3092  0.4972  0.7452
 5094SOL     OW15725   2.695   4.875   1.164  0.3341  0.6372 -0.6682
 5094SOL    HW115726   2.790   4.879   1.166  0.5139 -1.1913 -2.1734
 5094SOL    HW215727   2.671   4.900   1.074 -0.4222 -0.7352 -0.8871
 5095SOL     OW15728   5.515   5.067   4.870  0.2803 -0.0824 -0.0244
 5095SOL    HW115729   5.487   5.021   4.949  1.3998 -0.4380  0.1823
 5095SOL    HW215730   5.536   4.998   4.808  0.6975  0.1633 -0.1642
 5096SOL     OW15731   4.920   5.759   2.438  0.1216 -0.6942 -0.4731
 5096SOL    HW115732   4.991   5.698   2.455 -0.4017 -0.9971  0.7522
 5096SOL    HW215733   4.842   5.704   2.431 -0.1580 -0.2769 -0.7189
 5097SOL     OW15734   2.453   2.593   4.594  0.0495  0.2074  0.4005
 5097SOL    HW115735   2.546   2.584   4.611 -0.0436 -0.6369  0.5211
 5097SOL    HW215736   2.439   2.548   4.511 -0.4011 -0.5147  0.8583
 5098SOL     OW15737   4.436   0.983   1.533 -0.4849 -0.2212  0.6211
 5098SOL    HW115738   4.531   0.979   1.518 -0.2339 -1.8686  2.3211
 5098SOL    HW215739   4.403   0.901   1.498 -1.7190  1.3026 -2.1216
 5099SOL     OW15740   0.850   4.973   2.666  0.1857 -0.7625 -0.6281
 5099SOL    HW115741   0.933   4.955   2.622 -0.7757 -0.4497 -2.6846
 5099SOL    HW215742   0.837   5.067   2.655 -0.1499 -0.7056  0.2283
 5100SOL     OW15743   4.479   5.185   3.850 -0.1199  0.1465  0.2393
 5100SOL    HW115744   4.530   5.245   3.905  1.6099 -0.1381 -0.9528
 5100SOL    HW215745   4.530   5.103   3.852 -1.1219 -0.4983 -0.1416
 5101SOL     OW15746   3.291   2.768   3.803 -0.1670 -0.2880 -0.5591
 5101SOL    HW115747   3.385   2.771   3.789  0.2606  1.8701  1.9425
 5101SOL    HW215748   3.278   2.695   3.864 -0.1888 -0.7727 -1.1315
 5102SOL     OW15749   4.497   3.645   5.506 -0.3282 -0.0551 -0.6031
 5102SOL    HW115750   4.493   3.679   5.417  0.3980  0.9716 -0.2602
 5102SOL    HW215751   4.528   3.718   5.559 -0.2325 -0.8033  0.4184
 5103SOL     OW15752   4.201   2.623   4.961  0.1295  0.2278  0.1609
 5103SOL    HW115753   4.175   2.569   4.887  3.1552  1.8696 -2.3466
 5103SOL    HW215754   4.248   2.564   5.019  0.7718 -0.4307 -1.0065
 5104SOL     OW15755   4.966   3.451   2.817 -0.1946  0.2178  0.3612
 5104SOL    HW115756   4.911   3.374   2.824 -0.0239  0.0356 -0.2695
 5104SOL    HW215757   4.991   3.471   2.907 -2.0174  0.8510  0.7577
 5105SOL     OW15758   4.709   1.268   1.466  0.4001 -0.2442  0.1788
 5105SOL    HW115759   4.767   1.344   1.463  1.3938 -1.0016 -0.3709
 5105SOL    HW215760   4.622   1.303   1.447  0.6296  0.9383  1.1727
 5106SOL     OW15761   1.671   2.129   4.254  0.2181  0.3365  0.0823
 5106SOL    HW115762   1.619   2.146   4.175  0.4206 -0.5888 -0.2664
 5106SOL    HW215763   1.607   2.113   4.322  0.0078 -1.4065 -0.4803
 5107SOL     OW15764   5.880   5.109   4.714 -0.5475  0.1517  0.3688
 5107SOL    HW115765   5.897   5.201   4.735  0.9994 -0.1949  0.7068
 5107SOL    HW215766   5.962   5.077   4.677 -1.0390 -1.1234  0.3426
 5108SOL     OW15767   3.650   6.093   2.934 -0.0834 -0.2165  0.1018
 5108SOL    HW115768   3.661   6.111   2.841  2.0855 -0.7439  0.2021
 5108SOL    HW215769   3.625   6.001   2.938 -3.2233  0.5169 -0.0280
 5109SOL     OW15770   3.251   4.468   5.578  0.8600  0.1468  0.4505
 5109SOL    HW115771   3.292   4.399   5.524  0.7055  0.4075 -0.0054
 5109SOL    HW215772   3.217   4.531   5.514  2.4275  1.4918  0.8819
 5110SOL     OW15773   1.959   5.676   1.508  0.0183  0.1266 -0.0536
 5110SOL    HW115774   2.046   5.637   1.512 -0.4744 -0.9090  0.9963
 5110SOL    HW215775   1.944   5.691   1.414  0.2907 -2.0567 -0.4865
 5111SOL     OW15776   0.624   4.431   2.439  0.5340 -0.1506  0.0765
 5111SOL    HW115777   0.623   4.365   2.370  0.1400  0.2799 -0.3423
 5111SOL    HW215778   0.690   4.495   2.410  0.0482  0.2635 -0.1316
 5112SOL     OW15779   5.078   1.777   0.132 -0.1531  0.3982 -0.0421
 5112SOL    HW115780   5.088   1.716   0.058 -3.2829  1.3019 -1.3749
 5112SOL    HW215781   5.105   1.726   0.208  1.5323 -1.1500 -1.5592
 5113SOL     OW15782   0.458   0.347   3.887  0.4765  0.0825  0.4112
 5113SOL    HW115783   0.552   0.363   3.891  0.6434 -1.0433  1.9012
 5113SOL    HW215784   0.448   0.257   3.920 -1.0046 -0.3203 -0.9845
 5114SOL     OW15785   6.000   6.020   0.531  0.3083  0.5314  0.5148
 5114SOL    HW115786   5.955   6.054   0.608 -0.0796 -0.5885  0.7968
 5114SOL    HW215787   6.092   6.044   0.544  0.4879 -0.7998  2.0144
 5115SOL     OW15788   3.837   2.577   0.558 -0.1392  0.0310  0.4563
 5115SOL    HW115789   3.928   2.591   0.530 -0.2415 -0.7623 -0.3349
 5115SOL    HW215790   3.834   2.486   0.586 -0.6707  0.0758  0.5543
 5116SOL     OW15791   2.814   5.180   1.445 -0.1534  0.0978  0.1558
 5116SOL    HW115792   2.832   5.268   1.479  0.3640  0.1646 -0.2698
 5116SOL    HW215793   2.729   5.157   1.482 -0.3904  0.8633  0.1118
 5117SOL     OW15794   1.711   0.906   2.187 -0.5877 -0.1339  0.7907
 5117SOL    HW115795   1.661   0.839   2.141 -0.3958 -0.1418  0.5924
 5117SOL    HW215796   1.683   0.898   2.278 -0.1994 -0.8153  0.8535
 5118SOL     OW15797   3.778   5.718   0.065  0.2818  0.4314  0.1041
 5118SOL    HW115798   3.685   5.739   0.052  0.4333  0.9597 -0.1431
 5118SOL    HW215799   3.801   5.664  -0.011 -0.1933 -0.9581  0.9067
 5119SOL     OW15800   3.521   0.520   0.605 -0.5455  0.5250 -0.1075
 5119SOL    HW115801   3.440   0.571   0.611 -0.3380  0.9311 -0.6942
 5119SOL    HW215802   3.582   0.577   0.558 -0.2890 -0.2339 -0.7219
 5120SOL     OW15803   1.085   5.042   1.019  0.4410 -0.3652  0.4873
 5120SOL    HW115804   1.056   4.984   0.949  1.4607 -1.0176  0.5892
 5120SOL    HW215805   1.031   5.018   1.094  1.7616 -2.1685  0.9242
 5121SOL     OW15806   2.076   1.833   3.674  0.0775 -0.4576  0.3850
 5121SOL    HW115807   2.105   1.871   3.757  0.3833  0.5814 -0.1877
 5121SOL    HW215808   2.135   1.759   3.660  1.3837  0.6152  0.0777
 5122SOL     OW15809   3.641   0.944   0.473 -0.0162 -0.4093 -0.1943
 5122SOL    HW115810   3.559   0.911   0.510  0.0385 -1.6460 -1.1252
 5122SOL    HW215811   3.619   0.970   0.384  0.1811  1.1652  0.1804
 5123SOL     OW15812   2.162   5.154   2.606 -0.3228 -0.3886 -0.0742
 5123SOL    HW115813   2.184   5.201   2.526 -1.9562 -1.4582 -1.2127
 5123SOL    HW215814   2.117   5.219   2.660  0.3630  0.2157 -0.2221
 5124SOL     OW15815   4.165   2.032   5.514  0.1459  0.0155 -0.2721
 5124SOL    HW115816   4.134   2.025   5.605  0.4091 -1.5029 -0.2724
 5124SOL    HW215817   4.099   2.086   5.470 -0.5342 -0.0915  0.5867
 5125SOL     OW15818   4.169   3.516   2.882  0.0829 -0.1524  0.5333
 5125SOL    HW115819   4.081   3.548   2.904  0.8162  2.8528 -0.5375
 5125SOL    HW215820   4.153   3.442   2.823 -1.6963 -0.8320  1.7641
 5126SOL     OW15821   2.124   5.354   3.671 -0.0875  0.0025  0.4488
 5126SOL    HW115822   2.170   5.395   3.744  0.5418  0.1558 -0.0238
 5126SOL    HW215823   2.192   5.340   3.605 -0.5238 -0.7476  0.1564
 5127SOL     OW15824   2.739   0.378   2.188  0.1578  0.4894 -0.7273
 5127SOL    HW115825   2.798   0.445   2.222 -0.0215  0.3929 -0.2037
 5127SOL    HW215826   2.783   0.343   2.111  1.1523 -0.1050  0.0764
 5128SOL     OW15827   2.655   6.029   4.346  0.1800 -0.1374  0.1556
 5128SOL    HW115828   2.740   6.069   4.364  0.2677  0.9693 -2.3510
 5128SOL    HW215829   2.624   6.073   4.268 -2.4784 -0.9270  0.6744
 5129SOL     OW15830   4.830   5.513   4.409 -0.6212 -0.0032 -0.2964
 5129SOL    HW115831   4.892   5.582   4.432 -0.8964  1.0479 -2.4297
 5129SOL    HW215832   4.865   5.434   4.451  0.5305  1.1118  0.9413
 5130SOL     OW15833   3.296   3.530   5.958 -0.0073 -0.3951 -0.3215
 5130SOL    HW115834   3.263   3.490   5.878 -1.0349 -3.0904  1.3191
 5130SOL    HW215835   3.279   3.466   6.026  0.5966  1.8797  2.1516
 5131SOL     OW15836   1.865   4.321   3.732  0.0636  0.4039  0.2570
 5131SOL    HW115837   1.923   4.381   3.684 -0.8008  1.6320  0.6963
 5131SOL    HW215838   1.798   4.296   3.669  1.0418 -1.0280 -0.2551
 5132SOL     OW15839   4.017   0.688   1.430  0.3259  0.0293 -0.2222
 5132SOL    HW115840   4.020   0.697   1.334  0.0214 -1.5224 -0.4020
 5132SOL    HW215841   3.955   0.616   1.445  0.7135 -0.0399  1.1314
 5133SOL     OW15842   3.240   4.107   2.421 -0.1439 -0.4585 -0.0529
 5133SOL    HW115843   3.299   4.153   2.362  2.1472  0.4148  2.6606
 5133SOL    HW215844   3.165   4.165   2.431  0.3835  0.3158 -0.5478
 5134SOL     OW15845   4.397   2.373   5.861 -0.2067 -0.2089  0.0036
 5134SOL    HW115846   4.415   2.309   5.792 -0.1886 -0.9055  0.6351
 5134SOL    HW215847   4.397   2.321   5.942  0.0881  0.6371  0.5639
 5135SOL     OW15848   2.834   0.300   5.177  0.1970  0.4276 -0.2236
 5135SOL    HW115849   2.884   0.363   5.228  0.5576 -0.5223  0.6282
 5135SOL    HW215850   2.898   0.233   5.151  0.0299  0.8670 -1.9502
 5136SOL     OW15851   2.772   3.988   4.986  0.2519  0.2073 -0.2723
 5136SOL    HW115852   2.698   3.984   5.047 -0.3722  3.2099 -0.6849
 5136SOL    HW215853   2.740   3.946   4.906 -0.0807 -0.7835  0.3654
 5137SOL     OW15854   1.097   2.688   1.000 -0.1791  0.7099 -0.2842
 5137SOL    HW115855   1.037   2.761   1.018 -1.0191  0.2024 -0.9416
 5137SOL    HW215856   1.139   2.711   0.917 -0.3607  0.5001 -0.4351
 5138SOL     OW15857   0.732   0.338   3.958 -0.1177  0.1317 -0.5713
 5138SOL    HW115858   0.701   0.401   4.023 -0.2128 -0.5895  0.0823
 5138SOL    HW215859   0.827   0.346   3.961 -0.0427 -1.0495  0.8218
 5139SOL     OW15860   1.573   0.530   3.596 -0.3306 -0.2055 -0.7080
 5139SOL    HW115861   1.575   0.591   3.670 -0.8361 -0.4565 -0.4865
 5139SOL    HW215862   1.664   0.527   3.566 -0.3583  0.9074 -0.9333
 5140SOL     OW15863   4.972   2.072   2.486 -0.1879  0.0816  0.5652
 5140SOL    HW115864   5.063   2.091   2.508 -0.3709  0.0118  1.3942
 5140SOL    HW215865   4.960   2.111   2.399  1.2522 -1.7966 -0.5749
 5141SOL     OW15866   3.262   3.709   4.215  0.1237  0.2193 -0.7570
 5141SOL    HW115867   3.312   3.629   4.230 -1.4176 -0.4966  0.8221
 5141SOL    HW215868   3.317   3.779   4.251 -0.0630 -0.5775  1.1662
 5142SOL     OW15869   5.579   2.159   5.569  0.9075 -0.5019 -0.0558
 5142SOL    HW115870   5.504   2.105   5.543  0.7937  0.5979 -2.3622
 5142SOL    HW215871   5.642   2.148   5.498  2.4531 -0.4470  1.2526
 5143SOL     OW15872   5.815   1.212   3.160 -0.0753 -0.5985 -0.0224
 5143SOL    HW115873   5.852   1.256   3.237 -1.1653  0.8668 -0.2891
 5143SOL    HW215874   5.826   1.274   3.089 -1.5304 -0.7871 -0.4541
 5144SOL     OW15875   3.669   1.191   2.071 -0.1181  0.5992  0.5190
 5144SOL    HW115876   3.611   1.115   2.060  0.1771  0.3796  0.4630
 5144SOL    HW215877   3.740   1.177   2.009  0.4469  0.4216  1.1899
 5145SOL     OW15878   3.144   3.163   2.429 -0.1734  0.0734 -0.8400
 5145SOL    HW115879   3.058   3.132   2.400  0.2652 -0.0354 -2.0989
 5145SOL    HW215880   3.201   3.086   2.419  0.3822  0.5618 -1.4765
 5146SOL     OW15881   5.706   3.775   3.259  0.4726  0.3539 -0.0732
 5146SOL    HW115882   5.789   3.758   3.213 -0.7178 -3.4204 -1.1835
 5146SOL    HW215883   5.708   3.716   3.335 -1.5065 -0.5709 -0.6632
 5147SOL     OW15884   3.507   0.718   1.307  0.1613  0.1591 -0.3461
 5147SOL    HW115885   3.486   0.626   1.291 -1.5690  0.7392 -1.6982
 5147SOL    HW215886   3.602   0.722   1.298  0.2062 -1.3738 -0.9862
 5148SOL     OW15887   1.792   5.013   3.160  0.2174 -0.4748  0.5642
 5148SOL    HW115888   1.778   4.931   3.112 -0.4101 -0.8905  1.4271
 5148SOL    HW215889   1.719   5.069   3.135  1.0383  0.1115 -0.5882
 5149SOL     OW15890   0.786   1.243   4.231  0.2289  0.3379  0.4499
 5149SOL    HW115891   0.802   1.299   4.154  2.6286 -0.3176  0.3907
 5149SOL    HW215892   0.799   1.154   4.198 -1.2609 -0.1402  1.0818
 5150SOL     OW15893   4.112   2.690   1.744  0.0082  0.5069  0.1517
 5150SOL    HW115894   4.055   2.620   1.712  1.5781 -1.2878  1.0893
 5150SOL    HW215895   4.197   2.672   1.704  0.8981  0.7646  1.8329
 5151SOL     OW15896   0.746   4.178   4.424  0.2803  1.0243 -0.0861
 5151SOL    HW115897   0.752   4.232   4.503 -0.1457  0.0366  0.6570
 5151SOL    HW215898   0.835   4.149   4.407  0.2593  0.5403  0.5670
 5152SOL     OW15899   3.965   3.169   1.351  0.5539  0.1264 -0.1154
 5152SOL    HW115900   3.881   3.133   1.323 -0.0751  0.9555  0.6507
 5152SOL    HW215901   3.952   3.191   1.443  1.2065  1.4128 -0.3032
 5153SOL     OW15902   0.087   2.017   3.518  0.0293  0.2511 -0.4598
 5153SOL    HW115903  -0.000   1.986   3.493  0.5541 -0.7905 -1.0403
 5153SOL    HW215904   0.120   1.952   3.579  1.4568 -0.8603 -2.2970
 5154SOL     OW15905   0.638   0.035   3.033 -0.1339  0.2510 -0.4071
 5154SOL    HW115906   0.653  -0.046   3.082  0.2987  0.3445 -0.3834
 5154SOL    HW215907   0.542   0.045   3.031 -0.2637 -0.9050 -1.4561
 5155SOL     OW15908   0.070   5.931   4.581  0.6280  0.7429  0.6932
 5155SOL    HW115909   0.011   5.857   4.569 -0.4769  1.6247  0.4930
 5155SOL    HW215910   0.157   5.895   4.568  0.2442 -0.8662  2.2480
 5156SOL     OW15911   3.177   3.552   3.306  0.7464 -0.6125  0.6821
 5156SOL    HW115912   3.171   3.555   3.210 -0.5721  0.0879  0.7788
 5156SOL    HW215913   3.254   3.604   3.326 -0.5149  1.5708  0.1321
 5157SOL     OW15914   4.391   2.275   1.037  0.5871  0.5176  0.0144
 5157SOL    HW115915   4.364   2.297   1.126  1.1464 -0.3965  0.4302
 5157SOL    HW215916   4.443   2.350   1.009  0.4104  0.8122  0.4594
 5158SOL     OW15917   0.479   2.495   1.404  0.0072 -0.0025  0.0939
 5158SOL    HW115918   0.530   2.481   1.484 -2.5290  0.2625  1.8825
 5158SOL    HW215919   0.487   2.588   1.386 -0.1995  0.1222  0.6349
 5159SOL     OW15920   3.514   2.774   5.203  0.4376 -0.2299 -0.5923
 5159SOL    HW115921   3.605   2.800   5.215 -0.0097  0.4060  2.0247
 5159SOL    HW215922   3.493   2.722   5.281 -1.5505 -0.0142 -0.9310
 5160SOL     OW15923   3.717   0.948   1.476 -0.0317  0.1767 -0.0159
 5160SOL    HW115924   3.696   0.903   1.394 -0.1632 -0.9372  0.6094
 5160SOL    HW215925   3.764   1.027   1.449  0.8945 -0.7257 -1.1125
 5161SOL     OW15926   4.891   0.941   2.928 -0.3735  0.6063 -0.4461
 5161SOL    HW115927   4.837   0.963   2.853 -0.7877  0.5063 -0.1783
 5161SOL    HW215928   4.851   0.862   2.965 -0.5045  0.9657  0.2029
 5162SOL     OW15929   2.926   1.961   0.237 -0.1064  0.4383 -0.3360
 5162SOL    HW115930   2.835   1.993   0.232  0.1297  1.1236 -0.3466
 5162SOL    HW215931   2.919   1.866   0.225 -0.8908  0.3998  0.3071
 5163SOL     OW15932   0.492   0.871   2.405 -0.0555 -0.3318  0.0434
 5163SOL    HW115933   0.407   0.833   2.428 -1.0743  1.2068 -0.9835
 5163SOL    HW215934   0.506   0.939   2.470  1.3502 -1.8149  1.3598
 5164SOL     OW15935   3.782   4.639   2.716  0.2331 -0.5789 -0.3102
 5164SOL    HW115936   3.699   4.683   2.735  0.6794 -0.9642  3.3259
 5164SOL    HW215937   3.838   4.708   2.683 -0.0281  1.0391  2.3050
 5165SOL     OW15938   3.671   0.459   6.122 -0.6370 -0.0967  0.2477
 5165SOL    HW115939   3.672   0.363   6.126 -0.3564 -0.2814 -2.4028
 5165SOL    HW215940   3.586   0.481   6.083 -1.3377  0.8832  2.1815
 5166SOL     OW15941   4.646   3.053   5.155  0.2163  0.2157  0.6831
 5166SOL    HW115942   4.590   3.130   5.153  0.4435  0.3669 -0.2238
 5166SOL    HW215943   4.585   2.979   5.163 -0.0319  0.4503  0.9800
 5167SOL     OW15944   0.130   5.607   3.863 -0.3636 -0.5212 -0.3686
 5167SOL    HW115945   0.166   5.519   3.872 -3.0452 -1.4832  3.2578
 5167SOL    HW215946   0.141   5.647   3.950 -1.6960  1.6706 -1.1134
 5168SOL     OW15947   0.397   3.757   3.832 -0.0093  0.2261 -0.5680
 5168SOL    HW115948   0.434   3.698   3.897  1.2592  2.5109  0.9148
 5168SOL    HW215949   0.334   3.703   3.784 -1.2139 -1.5282  2.6700
 5169SOL     OW15950   3.844   0.351   3.808  0.0031 -0.1219  0.7561
 5169SOL    HW115951   3.857   0.287   3.878  0.7032  0.2478  0.9756
 5169SOL    HW215952   3.924   0.346   3.756 -0.7863 -0.8681 -0.4188
 5170SOL     OW15953   5.171   3.710   5.834  0.0094 -0.3405 -0.4646
 5170SOL    HW115954   5.086   3.740   5.865 -0.1054 -0.9519 -0.1758
 5170SOL    HW215955   5.202   3.650   5.902 -0.3331 -1.8635 -1.5909
 5171SOL     OW15956   0.799   1.872   0.869  0.0448  0.0912  0.3379
 5171SOL    HW115957   0.704   1.867   0.871 -0.0570  1.7826  1.1621
 5171SOL    HW215958   0.818   1.962   0.844  1.4040  0.4919  2.5935
 5172SOL     OW15959   1.039   1.755   0.806  0.1686 -0.5472 -0.9260
 5172SOL    HW115960   0.947   1.779   0.798 -0.1666 -1.1907  0.5492
 5172SOL    HW215961   1.068   1.740   0.717 -0.1802  2.9706 -1.7746
 5173SOL     OW15962   2.829   4.447   2.387 -0.0874 -0.2409 -0.2745
 5173SOL    HW115963   2.794   4.360   2.406 -0.4725 -0.8298 -3.1478
 5173SOL    HW215964   2.761   4.507   2.417  0.3256 -0.8263  2.0587
 5174SOL     OW15965   4.931   2.153   1.315  0.9116 -0.6135  0.3281
 5174SOL    HW115966   4.945   2.061   1.294 -2.3587 -1.4331  1.1079
 5174SOL    HW215967   4.981   2.167   1.396  0.5382 -2.0540  0.8374
 5175SOL     OW15968   2.400   0.991   5.686  0.0272  0.0009  0.1281
 5175SOL    HW115969   2.427   0.976   5.596 -0.3563 -0.0926  0.0263
 5175SOL    HW215970   2.311   0.956   5.690 -0.4304  1.1405  0.2168
 5176SOL     OW15971   0.627   3.819   5.815 -0.5194 -0.2961  0.6419
 5176SOL    HW115972   0.582   3.901   5.792 -1.3745 -0.5974  1.2290
 5176SOL    HW215973   0.683   3.843   5.889 -0.2700 -0.0890  0.3873
 5177SOL     OW15974   5.870   3.712   2.454 -0.4372 -0.1227 -0.1785
 5177SOL    HW115975   5.878   3.621   2.485 -1.2977 -0.9283 -2.1235
 5177SOL    HW215976   5.791   3.745   2.495 -1.1279 -0.9060 -0.8218
 5178SOL     OW15977   3.313   4.073   1.383  0.1157 -0.6455 -0.1825
 5178SOL    HW115978   3.303   4.152   1.330 -0.5067 -1.6685 -1.6724
 5178SOL    HW215979   3.251   4.084   1.455 -0.8142 -0.2658 -1.0183
 5179SOL     OW15980   4.889   4.644   2.482  0.2399 -0.1962  0.4072
 5179SOL    HW115981   4.835   4.708   2.528 -0.5740 -0.8144  0.3386
 5179SOL    HW215982   4.840   4.562   2.489  0.7617 -0.5899 -0.3934
 5180SOL     OW15983   2.906   2.580   4.050 -0.2300  0.0850  0.1879
 5180SOL    HW115984   2.835   2.581   3.987  0.3464  0.5172 -0.4624
 5180SOL    HW215985   2.915   2.488   4.075 -1.5734  0.1396  0.9285
 5181SOL     OW15986   5.710   2.581   5.647 -0.1193 -0.0356 -0.2662
 5181SOL    HW115987   5.659   2.658   5.626  0.3077 -0.0747 -1.5233
 5181SOL    HW215988   5.652   2.527   5.700 -0.7442  0.7245 -0.1677
 5182SOL     OW15989   1.387   3.300   3.066 -0.0320  0.4883 -0.0570
 5182SOL    HW115990   1.458   3.346   3.021 -0.5058  0.5838 -0.7184
 5182SOL    HW215991   1.316   3.364   3.070 -0.2626  0.2230  0.1328
 5183SOL     OW15992   4.272   2.696   3.797  0.1022  0.2508  0.3895
 5183SOL    HW115993   4.183   2.730   3.790  0.6010  1.2820 -1.5759
 5183SOL    HW215994   4.318   2.762   3.850 -0.0612  0.1817  0.6215
 5184SOL     OW15995   0.080   0.104   6.093 -0.1911  0.2154  0.4548
 5184SOL    HW115996   0.115   0.177   6.042 -2.1954  1.1723  0.3938
 5184SOL    HW215997   0.117   0.026   6.051  4.4677  1.0791  2.3008
 5185SOL     OW15998   3.115   0.339   0.684  0.4334 -0.5383  0.3978
 5185SOL    HW115999   3.086   0.419   0.640  0.9113 -0.5528  0.0552
 5185SOL    HW216000   3.202   0.360   0.718  0.8195 -1.0989 -0.2185
 5186SOL     OW16001   1.033   2.734   1.728 -0.1597 -0.2617 -0.0945
 5186SOL    HW116002   1.048   2.641   1.710 -0.6595 -0.2335 -0.6943
 5186SOL    HW216003   1.107   2.778   1.686  0.2795 -0.4131  0.5153
 5187SOL     OW16004   0.111   3.912   3.196 -0.1520  0.1403 -0.5069
 5187SOL    HW116005   0.198   3.942   3.224  0.6928 -0.6984 -2.1052
 5187SOL    HW216006   0.107   3.820   3.221  0.5128 -0.5528 -2.7350
 5188SOL     OW16007   1.996   5.073   4.847 -0.3419 -0.7538  0.4414
 5188SOL    HW116008   1.934   5.110   4.785  0.9611  1.0637  0.1430
 5188SOL    HW216009   1.944   5.054   4.925 -1.3446  0.5169  0.1167
 5189SOL     OW16010   5.639   0.425   2.690  0.1016 -0.3370  0.4469
 5189SOL    HW116011   5.681   0.403   2.773 -2.0418  0.2697  1.7594
 5189SOL    HW216012   5.557   0.377   2.691 -1.3908  2.0620  0.1429
 5190SOL     OW16013   4.526   0.574   2.016  0.3472  0.2767  0.0246
 5190SOL    HW116014   4.518   0.643   2.081 -1.1311 -0.3762  0.5662
 5190SOL    HW216015   4.533   0.620   1.933  1.0439  1.0905  0.5128
 5191SOL     OW16016   0.133   1.705   4.535  0.0069 -0.3796  0.2837
 5191SOL    HW116017   0.199   1.650   4.576  0.0813 -0.4538  0.0655
 5191SOL    HW216018   0.078   1.644   4.486  2.0923 -0.0080 -2.8128
 5192SOL     OW16019   0.998   1.464   5.332 -0.1468 -0.6432  0.4441
 5192SOL    HW116020   1.031   1.510   5.255 -0.4142 -1.1825  0.0025
 5192SOL    HW216021   1.053   1.495   5.404 -0.4684  0.5333  0.1958
 5193SOL     OW16022   0.116   1.833   1.617 -0.4429  0.2046  0.6206
 5193SOL    HW116023   0.105   1.739   1.625 -1.7060  0.0318 -1.8787
 5193SOL    HW216024   0.072   1.855   1.534  1.7869  2.6439 -0.0671
 5194SOL     OW16025   4.322   3.114   4.219  0.1107  0.2240  0.4575
 5194SOL    HW116026   4.380   3.059   4.271 -0.9965 -0.7499  0.7010
 5194SOL    HW216027   4.378   3.186   4.188  1.2148 -0.1974  1.4214
 5195SOL     OW16028   1.393   4.600   2.158  0.3503 -0.4718 -0.5783
 5195SOL    HW116029   1.418   4.530   2.218 -0.9969 -1.7124 -1.3628
 5195SOL    HW216030   1.475   4.638   2.128  1.0724 -0.8500  0.8580
 5196SOL     OW16031   0.604   0.752   3.659 -0.3703  0.0150 -0.3275
 5196SOL    HW116032   0.631   0.732   3.749 -1.2722 -0.4388 -0.1478
 5196SOL    HW216033   0.558   0.673   3.630  0.9867 -0.3382 -1.6402
 5197SOL     OW16034   0.856   1.385   4.008  0.0576  0.2286  0.2638
 5197SOL    HW116035   0.947   1.416   4.010  0.5583 -0.5112 -3.3812
 5197SOL    HW216036   0.807   1.458   3.969 -0.7268  0.2030  1.1706
 5198SOL     OW16037   5.903   2.806   1.023 -0.1261 -0.3901  0.0551
 5198SOL    HW116038   5.930   2.756   0.947 -1.3628 -2.1356  0.7117
 5198SOL    HW216039   5.983   2.817   1.074  0.6647  0.5991 -1.3347
 5199SOL     OW16040   2.698   6.091   4.024  0.1240  0.3622  0.1933
 5199SOL    HW116041   2.667   6.124   3.940 -1.4263  0.3122  0.6995
 5199SOL    HW216042   2.682   6.163   4.085  1.3129  0.4270  0.4505
 5200SOL     OW16043   2.176   2.007   0.255 -0.3546 -0.0191  0.1655
 5200SOL    HW116044   2.142   2.096   0.242 -0.9233 -0.1880  0.4930
 5200SOL    HW216045   2.198   1.977   0.167 -0.9275  0.1407 -0.0370
 5201SOL     OW16046   0.873   0.636   3.208 -0.3766  0.3103  0.0338
 5201SOL    HW116047   0.787   0.625   3.249 -1.1767  2.2018 -1.0059
 5201SOL    HW216048   0.923   0.688   3.272 -0.5336  0.5113 -0.0045
 5202SOL     OW16049   5.029   1.929   1.989 -0.3083 -0.4956 -0.0750
 5202SOL    HW116050   4.950   1.983   1.991 -0.2711 -0.2393 -2.5128
 5202SOL    HW216051   5.029   1.889   1.902  1.1230 -2.2657  0.6568
 5203SOL     OW16052   3.512   4.860   5.438 -0.1054  0.0697  0.2190
 5203SOL    HW116053   3.557   4.944   5.446  1.1609 -0.6387  0.8750
 5203SOL    HW216054   3.554   4.818   5.363 -0.1946 -0.2876  0.3683
 5204SOL     OW16055   5.939   4.479   0.854 -0.0091 -0.2684  0.3129
 5204SOL    HW116056   5.973   4.461   0.767  0.4339  2.6822 -0.2074
 5204SOL    HW216057   5.844   4.471   0.846 -0.0348  0.8503 -0.7026
 5205SOL     OW16058   3.544   2.990   0.356  0.0698 -0.1143 -0.5089
 5205SOL    HW116059   3.634   2.986   0.388 -0.3073 -1.6638  0.4471
 5205SOL    HW216060   3.496   2.928   0.411 -1.4520  0.1799 -1.4456
 5206SOL     OW16061   1.956   3.477   0.942  0.5542  0.1182 -0.1749
 5206SOL    HW116062   1.918   3.510   0.861  0.6287  1.6552  0.3984
 5206SOL    HW216063   1.887   3.422   0.980 -0.2463  1.0321 -0.2794
 5207SOL     OW16064   5.142   2.396   1.810 -0.4461 -0.0785  0.5395
 5207SOL    HW116065   5.113   2.426   1.724  0.6335  1.5125  0.6811
 5207SOL    HW216066   5.169   2.305   1.796  1.2528  0.6292 -1.2274
 5208SOL     OW16067   2.544   4.439   4.709 -0.6585  0.0683  0.0078
 5208SOL    HW116068   2.602   4.366   4.731 -0.9896  0.6823  3.5059
 5208SOL    HW216069   2.588   4.516   4.745 -2.1403  1.0031 -0.1021
 5209SOL     OW16070   5.048   2.466   4.532 -0.3556 -0.4495 -0.1271
 5209SOL    HW116071   5.121   2.526   4.521  0.4395 -1.3838 -0.0577
 5209SOL    HW216072   5.020   2.444   4.443 -0.8205  0.2180 -0.1501
 5210SOL     OW16073   4.993   3.744   0.171 -0.1005  0.7076  0.4300
 5210SOL    HW116074   4.995   3.813   0.238 -3.3501  1.9936 -0.5768
 5210SOL    HW216075   4.970   3.665   0.219 -0.5365  1.2245  1.1018
 5211SOL     OW16076   4.470   0.923   2.637 -0.4220  0.0940 -0.4237
 5211SOL    HW116077   4.437   0.844   2.595 -1.2310  0.5457 -0.6770
 5211SOL    HW216078   4.394   0.957   2.685  0.1056  0.3420  0.2388
 5212SOL     OW16079   2.915   4.346   3.041  0.2093 -0.3508  0.8078
 5212SOL    HW116080   2.821   4.326   3.042  0.0328  0.4911  1.6238
 5212SOL    HW216081   2.946   4.322   3.128  0.5026  0.5383  0.9480
 5213SOL     OW16082   5.664   4.672   4.388  0.3947  0.2360  0.0856
 5213SOL    HW116083   5.688   4.765   4.387 -0.3912  0.4872 -2.4078
 5213SOL    HW216084   5.734   4.630   4.438  1.1709  2.0537  0.6226
 5214SOL     OW16085   1.192   1.529   5.592 -0.3838  0.1347  0.0708
 5214SOL    HW116086   1.272   1.564   5.552 -0.0536 -0.2627  0.3853
 5214SOL    HW216087   1.195   1.560   5.682 -0.4380 -0.1281  0.1627
 5215SOL     OW16088   3.788   2.477   0.219  0.6734 -0.7191  0.0631
 5215SOL    HW116089   3.698   2.510   0.216  0.6847 -0.4865  1.5617
 5215SOL    HW216090   3.809   2.475   0.312  1.9001 -1.6735 -0.2217
 5216SOL     OW16091   1.823   1.803   3.570  0.0099  0.4209  0.1447
 5216SOL    HW116092   1.865   1.770   3.491  0.5970  1.5189 -0.0126
 5216SOL    HW216093   1.895   1.818   3.631 -0.3166  0.7190  0.4654
 5217SOL     OW16094   0.147   5.148   5.250 -0.6125  0.8564 -0.0868
 5217SOL    HW116095   0.096   5.095   5.189 -0.9793 -0.7034  1.4983
 5217SOL    HW216096   0.091   5.158   5.326  0.3004  1.7257  0.4960
 5218SOL     OW16097   1.189   0.788   0.098 -0.7352  0.3418 -0.1133
 5218SOL    HW116098   1.283   0.800   0.111 -0.5199 -0.4158 -0.9260
 5218SOL    HW216099   1.152   0.798   0.185 -0.0525  1.8868  0.0502
 5219SOL     OW16100   2.499   4.742   4.320  0.3838 -0.0207  0.7529
 5219SOL    HW116101   2.506   4.817   4.261  2.5864  0.3144  1.3501
 5219SOL    HW216102   2.523   4.776   4.406  2.0351 -1.4542  0.9317
 5220SOL     OW16103   2.092   0.426   4.700  0.3991 -0.0808 -0.2250
 5220SOL    HW116104   2.067   0.497   4.760 -1.7410 -0.4714 -0.5621
 5220SOL    HW216105   2.182   0.405   4.723 -0.1560  0.1853  2.4647
 5221SOL     OW16106   0.490   0.565   5.815  0.4675  0.1740  0.0400
 5221SOL    HW116107   0.581   0.540   5.834  0.1757  0.3428  1.7956
 5221SOL    HW216108   0.497   0.647   5.766  1.3020 -1.0935 -2.1560
 5222SOL     OW16109   2.588   3.405   2.317 -0.3058 -0.2709 -0.2010
 5222SOL    HW116110   2.551   3.317   2.319 -2.4755  0.5912  2.0070
 5222SOL    HW216111   2.653   3.405   2.387 -2.7342  0.7346  2.2113
 5223SOL     OW16112   1.903   2.355   6.042  0.5788 -0.7219 -0.6950
 5223SOL    HW116113   1.843   2.361   5.967 -3.7032  0.8051  2.4531
 5223SOL    HW216114   1.901   2.262   6.066  1.0621 -1.0157 -1.7242
 5224SOL     OW16115   2.107   2.782   1.599 -0.3656  0.3821  0.5158
 5224SOL    HW116116   2.105   2.687   1.601  1.5008  0.3173  0.7369
 5224SOL    HW216117   2.016   2.807   1.580 -0.8142 -1.4291  0.0508
 5225SOL     OW16118   4.617   3.029   1.998 -0.3811 -0.4037  0.1974
 5225SOL    HW116119   4.648   3.021   1.908 -0.3307  0.2458  0.1511
 5225SOL    HW216120   4.569   3.112   2.000  1.2525  0.5770  1.2321
 5226SOL     OW16121   1.826   2.686   1.208  0.2022 -0.2583 -0.2877
 5226SOL    HW116122   1.746   2.637   1.230 -0.5719  0.6365 -1.0006
 5226SOL    HW216123   1.877   2.626   1.154 -0.9255 -0.1745 -1.5025
 5227SOL     OW16124   0.081   3.783   2.892 -0.0619  0.1128  0.5699
 5227SOL    HW116125   0.061   3.873   2.916 -1.1590  0.4675 -1.4345
 5227SOL    HW216126   0.175   3.773   2.909  0.3513  2.0369 -0.3395
 5228SOL     OW16127   2.399   2.202   2.044 -0.6677  0.0520  0.1937
 5228SOL    HW116128   2.478   2.178   2.092 -0.9914 -1.1418  0.1715
 5228SOL    HW216129   2.332   2.211   2.112 -1.3735 -2.6471 -0.0140
 5229SOL     OW16130   2.089   0.592   1.098 -0.3999  0.1378  0.0213
 5229SOL    HW116131   2.126   0.644   1.027  0.3098  1.5606  1.3671
 5229SOL    HW216132   2.001   0.628   1.111 -0.5257 -0.1146 -0.1197
 5230SOL     OW16133   1.185   3.905   1.761  0.3200 -0.0117  0.1778
 5230SOL    HW116134   1.145   3.822   1.789 -1.1978  0.7064  0.2433
 5230SOL    HW216135   1.118   3.948   1.709  0.7907  1.5148  0.7678
 5231SOL     OW16136   3.726   0.201   0.395  0.3967 -0.5409  0.2393
 5231SOL    HW116137   3.776   0.147   0.334  1.2109 -0.0112  0.4349
 5231SOL    HW216138   3.653   0.144   0.422  1.2831 -1.5815  0.5230
 5232SOL     OW16139   5.019   0.079   2.148  0.7435  0.0086 -0.0596
 5232SOL    HW116140   4.941   0.102   2.097  0.6311 -3.2459 -1.5891
 5232SOL    HW216141   4.988   0.012   2.209  1.9039  0.3168  0.8885
 5233SOL     OW16142   2.198   4.003   1.544  0.3886 -0.0299 -0.9791
 5233SOL    HW116143   2.282   4.038   1.573  0.2232 -0.4640  0.0790
 5233SOL    HW216144   2.174   3.939   1.611 -1.5336  1.2091 -0.4098
 5234SOL     OW16145   1.768   5.484   1.625 -0.0994 -0.9505 -0.5188
 5234SOL    HW116146   1.836   5.507   1.562  1.1182 -0.6365  0.8515
 5234SOL    HW216147   1.796   5.526   1.707 -1.6155 -1.3557  0.2460
 5235SOL     OW16148   5.122   3.879   5.098 -0.3340  0.6359  0.4145
 5235SOL    HW116149   5.210   3.840   5.099 -1.1821 -1.4208 -0.1538
 5235SOL    HW216150   5.124   3.945   5.168  1.5438  0.3951  0.6333
 5236SOL     OW16151   4.466   1.516   1.953 -0.2575 -0.0829  0.1109
 5236SOL    HW116152   4.507   1.496   2.037 -0.7429  1.2714  0.6882
 5236SOL    HW216153   4.379   1.548   1.976 -0.4121  0.2728 -0.9175
 5237SOL     OW16154   0.449   3.884   0.897 -0.0578  0.3410 -0.7073
 5237SOL    HW116155   0.535   3.868   0.859  0.0894  0.1669 -0.3057
 5237SOL    HW216156   0.467   3.925   0.982 -0.4003  1.3558 -1.1084
 5238SOL     OW16157   1.389   2.911   4.419 -0.0285  0.0930  0.0234
 5238SOL    HW116158   1.427   2.929   4.505 -1.0053 -2.4999  1.0845
 5238SOL    HW216159   1.314   2.970   4.413 -0.0945  0.1305  1.0630
 5239SOL     OW16160   1.144   4.943   3.880 -0.2950  0.0730 -0.8575
 5239SOL    HW116161   1.100   5.002   3.942  0.1118  1.7596 -2.0761
 5239SOL    HW216162   1.082   4.933   3.808  0.0452 -0.1750 -1.1196
 5240SOL     OW16163   3.913   3.727   2.642  0.1203 -0.3451 -0.2567
 5240SOL    HW116164   4.001   3.765   2.652  0.4618 -1.5069  1.5898
 5240SOL    HW216165   3.930   3.639   2.608 -0.2897 -0.6892  0.4124
 5241SOL     OW16166   0.753   0.845   0.123  0.2600 -0.3532 -0.2688
 5241SOL    HW116167   0.698   0.883   0.191 -0.0928 -0.4307 -0.5039
 5241SOL    HW216168   0.700   0.851   0.043 -0.0374 -1.8420 -0.2132
 5242SOL     OW16169   3.561   2.244   1.312  0.4585  0.0345 -0.4366
 5242SOL    HW116170   3.655   2.257   1.322  0.1429  0.6061  3.0311
 5242SOL    HW216171   3.545   2.157   1.347 -0.3305  0.0227 -0.8062
 5243SOL     OW16172   1.206   0.841   2.728 -0.2615 -0.4321  0.1287
 5243SOL    HW116173   1.213   0.755   2.769  1.2633 -0.5609 -0.3178
 5243SOL    HW216174   1.189   0.901   2.800  0.6070 -0.8823  0.7272
 5244SOL     OW16175   3.860   0.172   5.081 -0.3768 -0.6961  0.3539
 5244SOL    HW116176   3.889   0.080   5.084  1.1303 -0.2280  1.3865
 5244SOL    HW216177   3.941   0.221   5.065 -1.0642  0.5059  0.5202
 5245SOL     OW16178   2.243   3.209   5.026  0.3746  0.3769 -0.9831
 5245SOL    HW116179   2.272   3.123   5.057 -0.2701  0.5232  0.0941
 5245SOL    HW216180   2.177   3.236   5.090  0.3157  1.5200 -1.5054
 5246SOL     OW16181   5.050   5.908   5.262 -0.0389 -0.1331  1.1194
 5246SOL    HW116182   4.965   5.874   5.290  0.8424 -0.7341  3.2423
 5246SOL    HW216183   5.090   5.834   5.215 -0.2408 -0.2171  1.0745
 5247SOL     OW16184   0.836   4.576   0.694  0.0413  0.3912 -0.2181
 5247SOL    HW116185   0.768   4.543   0.635 -0.5445  1.9580 -0.4894
 5247SOL    HW216186   0.902   4.614   0.636  0.6993 -0.2907  0.0756
 5248SOL     OW16187   5.816   5.064   1.946 -0.0174 -0.3831  0.4533
 5248SOL    HW116188   5.734   5.014   1.949 -0.5626  0.3915 -0.7425
 5248SOL    HW216189   5.856   5.039   1.863  0.2738  0.2847  0.3901
 5249SOL     OW16190   0.086   4.384   3.049 -0.6332  0.4999  0.2937
 5249SOL    HW116191   0.057   4.437   2.975 -0.1209  1.4352  0.7411
 5249SOL    HW216192   0.014   4.388   3.111 -1.6483 -1.4210 -0.6803
 5250SOL     OW16193   2.993   0.084   2.109  0.7952 -0.3556 -0.4464
 5250SOL    HW116194   2.923   0.019   2.114  0.6305 -0.0997  1.9517
 5250SOL    HW216195   3.012   0.106   2.200  1.3996  2.3757 -1.1199
 5251SOL     OW16196   3.514   1.139   3.448  0.3923  0.1345 -0.0310
 5251SOL    HW116197   3.462   1.062   3.426  1.8677 -0.9586  0.1229
 5251SOL    HW216198   3.573   1.108   3.517 -0.0754  1.8574  1.1991
 5252SOL     OW16199   0.710   2.874   4.742  0.2175  0.2588  0.4908
 5252SOL    HW116200   0.742   2.794   4.701  1.3308  1.1338 -0.3877
 5252SOL    HW216201   0.719   2.858   4.836  1.2383 -0.3245  0.3008
 5253SOL     OW16202   1.850   2.855   1.449 -0.2582  0.0441  0.7423
 5253SOL    HW116203   1.849   2.788   1.380  1.4248  0.6978  0.0366
 5253SOL    HW216204   1.861   2.938   1.402  0.3553  0.5540  1.7490
 5254SOL     OW16205   5.654   5.046   5.219  0.1414 -0.4064 -0.1046
 5254SOL    HW116206   5.674   5.120   5.276 -0.2114 -0.4333  0.0584
 5254SOL    HW216207   5.722   4.981   5.239  0.9970  0.2085 -0.9001
 5255SOL     OW16208   0.566   5.037   3.457 -0.5768  0.2040  0.2242
 5255SOL    HW116209   0.591   4.990   3.536  1.1616 -0.2683 -0.5590
 5255SOL    HW216210   0.471   5.027   3.451 -0.4165 -2.1166  0.7708
 5256SOL     OW16211   3.305   1.416   4.410 -1.1477  0.0255  0.7470
 5256SOL    HW116212   3.271   1.328   4.424 -1.1625 -0.1842 -0.5168
 5256SOL    HW216213   3.241   1.474   4.451 -2.3757 -0.4358 -0.4547
 5257SOL     OW16214   5.906   3.132   4.043 -0.0708 -0.2575  0.0859
 5257SOL    HW116215   5.892   3.215   3.998  1.5259  0.4467  0.7875
 5257SOL    HW216216   5.853   3.069   3.994  0.5060  0.7169 -1.9294
 5258SOL     OW16217   5.513   0.363   1.319  0.5635  0.3459 -0.0986
 5258SOL    HW116218   5.496   0.439   1.375  2.3400  0.9282 -0.2893
 5258SOL    HW216219   5.469   0.384   1.237  0.2075  0.6973  0.1724
 5259SOL     OW16220   4.485   5.034   0.078  0.3066 -0.2874 -0.1570
 5259SOL    HW116221   4.559   5.023   0.138 -0.1927 -1.3713  0.3009
 5259SOL    HW216222   4.493   4.960   0.017  0.2884  0.2878 -0.8696
 5260SOL     OW16223   4.294   2.333   2.474  0.6051 -0.2764 -0.3022
 5260SOL    HW116224   4.238   2.256   2.484 -0.2618  0.2455 -1.0446
 5260SOL    HW216225   4.234   2.408   2.479  1.3676  0.3400 -0.0871
 5261SOL     OW16226   4.506   4.670   5.677 -0.2075 -0.3546  0.4300
 5261SOL    HW116227   4.489   4.764   5.671 -0.0491 -0.2087  1.8766
 5261SOL    HW216228   4.530   4.656   5.769 -0.6028 -1.8676  0.3300
 5262SOL     OW16229   4.493   2.644   1.271  0.1818 -0.0607  0.6064
 5262SOL    HW116230   4.476   2.738   1.279  1.8394  0.1867  1.7505
 5262SOL    HW216231   4.584   2.638   1.241 -0.1559 -1.3150 -0.2511
 5263SOL     OW16232   2.157   3.202   5.815 -0.6193  0.0464  0.2318
 5263SOL    HW116233   2.087   3.259   5.846  0.2803  0.3426  1.7985
 5263SOL    HW216234   2.205   3.256   5.751 -2.4653 -0.5612 -1.7866
 5264SOL     OW16235   0.182   3.533   2.148  0.2726 -0.2453 -0.0553
 5264SOL    HW116236   0.193   3.517   2.242  0.9534 -1.9739 -0.3987
 5264SOL    HW216237   0.225   3.460   2.105 -1.9024 -0.6817 -1.6947
 5265SOL     OW16238   1.873   5.331   0.716 -0.1221  0.5276 -0.1000
 5265SOL    HW116239   1.822   5.413   0.713 -2.8833 -1.0644 -0.1702
 5265SOL    HW216240   1.846   5.283   0.638  1.6473 -0.3711 -0.1967
 5266SOL     OW16241   2.792   0.754   0.202 -0.1640 -0.1064 -0.0222
 5266SOL    HW116242   2.851   0.815   0.246  1.0109 -0.5200 -0.9905
 5266SOL    HW216243   2.780   0.791   0.115 -0.5092 -0.5754 -0.1776
 5267SOL     OW16244   4.754   0.454   4.465  0.2686 -0.3426 -0.1239
 5267SOL    HW116245   4.777   0.393   4.395  3.0971 -0.1591  0.5309
 5267SOL    HW216246   4.836   0.469   4.512 -0.5621  2.9577  0.5550
 5268SOL     OW16247   5.080   5.687   2.138 -0.0887  0.0940 -0.2476
 5268SOL    HW116248   5.159   5.640   2.110  0.4569  0.9675 -0.2303
 5268SOL    HW216249   5.031   5.624   2.190  1.2489 -0.0866  0.8599
 5269SOL     OW16250   5.403   0.343   3.848  0.1068 -0.1328 -0.2507
 5269SOL    HW116251   5.464   0.416   3.842 -1.2888  1.1648  0.5924
 5269SOL    HW216252   5.435   0.290   3.921  0.6226  0.1211 -0.2888
 5270SOL     OW16253   0.330   5.794   0.661 -0.2469  0.0841  0.3366
 5270SOL    HW116254   0.237   5.769   0.665 -0.0596 -0.7694 -0.4009
 5270SOL    HW216255   0.376   5.711   0.651  0.5855  0.5297  0.4317
 5271SOL     OW16256   5.431   4.825   6.031  0.7759  0.2008  0.3586
 5271SOL    HW116257   5.376   4.873   6.093 -1.2090  0.0132 -1.1740
 5271SOL    HW216258   5.370   4.788   5.967  2.7494  0.9425 -2.1276
 5272SOL     OW16259   4.777   2.812   5.009  0.0844  0.1984  0.1230
 5272SOL    HW116260   4.855   2.797   5.063 -1.6307 -0.6479  2.5496
 5272SOL    HW216261   4.723   2.872   5.060 -1.0948  0.3995 -1.2726
 5273SOL     OW16262   4.798   5.039   1.892  0.4710  0.0576 -0.3639
 5273SOL    HW116263   4.705   5.052   1.909  0.5378 -1.4651  1.5252
 5273SOL    HW216264   4.804   5.029   1.797 -1.4118 -0.6067 -0.4515
 5274SOL     OW16265   5.682   0.944   4.015 -0.4731 -0.2766  0.1964
 5274SOL    HW116266   5.632   0.866   4.036 -2.3554  0.3338 -1.6873
 5274SOL    HW216267   5.755   0.944   4.078 -1.4760 -2.4887  1.4581
 5275SOL     OW16268   0.387   0.392   4.305  0.2130  0.3022 -0.7690
 5275SOL    HW116269   0.418   0.409   4.394  0.8211  0.6789 -1.0436
 5275SOL    HW216270   0.405   0.298   4.291  0.0568  0.2274 -0.4725
 5276SOL     OW16271   5.421   5.758   1.941 -0.2482 -0.9073  0.0956
 5276SOL    HW116272   5.388   5.673   1.970 -3.0205 -0.4544 -1.3445
 5276SOL    HW216273   5.439   5.806   2.022 -2.7564 -1.4251  1.0401
 5277SOL     OW16274   1.553   1.249   4.843  0.6256 -0.1563  0.1128
 5277SOL    HW116275   1.493   1.184   4.805  0.7546  0.0787 -0.5107
 5277SOL    HW216276   1.580   1.302   4.768  1.1129  0.1406  0.4970
 5278SOL     OW16277   0.133   3.106   0.857  0.4329 -0.4116  0.3490
 5278SOL    HW116278   0.096   3.124   0.944 -0.2940  0.3217 -0.0923
 5278SOL    HW216279   0.061   3.066   0.808  0.6682 -0.3130 -0.0802
 5279SOL     OW16280   5.548   4.944   5.760 -0.2110 -0.2890  0.2267
 5279SOL    HW116281   5.485   4.900   5.818  0.7682 -0.3297  1.2885
 5279SOL    HW216282   5.554   5.033   5.795  1.7920 -0.8190  1.4264
 5280SOL     OW16283   2.339   3.056   4.191  0.2458 -0.3154  0.3803
 5280SOL    HW116284   2.285   3.132   4.169  2.1031  1.2865  0.9681
 5280SOL    HW216285   2.416   3.065   4.134  0.6275 -1.5999  0.6622
 5281SOL     OW16286   5.996   5.098   2.166  0.3970  0.2444 -0.3598
 5281SOL    HW116287   5.966   5.095   2.257  0.5265 -2.0624 -0.3425
 5281SOL    HW216288   5.933   5.045   2.118  1.1121  0.2844 -1.3702
 5282SOL     OW16289   3.459   1.774   0.200  0.6451  0.1154  0.3346
 5282SOL    HW116290   3.404   1.709   0.245  0.9243 -0.3966 -0.0495
 5282SOL    HW216291   3.407   1.855   0.203  1.2994  0.5435  2.9430
 5283SOL     OW16292   4.258   5.798   3.696 -0.0529 -0.2022  0.2773
 5283SOL    HW116293   4.169   5.765   3.685 -0.2182  0.3039  0.0577
 5283SOL    HW216294   4.301   5.781   3.612 -0.9090  2.4297 -0.8028
 5284SOL     OW16295   2.462   5.441   1.517  0.3316  0.2209  0.1622
 5284SOL    HW116296   2.457   5.422   1.611 -1.7770  1.2240  0.3075
 5284SOL    HW216297   2.479   5.535   1.513  1.1874  0.0486 -0.4864
 5285SOL     OW16298   1.602   4.711   5.622  0.2063 -0.1096  0.1645
 5285SOL    HW116299   1.618   4.794   5.577  0.4814  0.0130  0.4825
 5285SOL    HW216300   1.685   4.691   5.665 -0.0355 -0.2478  0.5747
 5286SOL     OW16301   2.927   6.110   4.398  0.3218  0.3679  0.4350
 5286SOL    HW116302   2.982   6.164   4.454  0.1471 -0.0967  1.0685
 5286SOL    HW216303   2.974   6.027   4.392 -1.6415 -1.1138  3.4191
 5287SOL     OW16304   0.818   3.307   2.423 -0.0035  0.2898 -0.5071
 5287SOL    HW116305   0.866   3.390   2.428  0.3446  0.0858 -0.4252
 5287SOL    HW216306   0.784   3.305   2.334  1.2961 -0.1901 -1.0138
 5288SOL     OW16307   5.313   5.784   5.045  0.0205 -0.2004  0.0379
 5288SOL    HW116308   5.402   5.758   5.019 -0.5990 -1.5348 -0.8477
 5288SOL    HW216309   5.285   5.844   4.976 -0.2479 -0.8383 -0.4202
 5289SOL     OW16310   4.569   3.990   1.325 -0.1344  0.4702  0.0933
 5289SOL    HW116311   4.516   4.022   1.398 -0.1262 -2.1236  1.3283
 5289SOL    HW216312   4.607   3.908   1.356  1.3218  0.1706 -2.2142
 5290SOL     OW16313   5.575   0.134   2.950  0.0451  0.5308  0.3766
 5290SOL    HW116314   5.630   0.211   2.937 -0.2223  0.8769  1.2118
 5290SOL    HW216315   5.495   0.152   2.900  0.9824 -0.3492 -1.5580
 5291SOL     OW16316   3.194   2.454   2.976 -0.4834  0.2811 -0.8816
 5291SOL    HW116317   3.228   2.411   3.054 -0.8869  2.4122  0.5449
 5291SOL    HW216318   3.257   2.431   2.907  0.5003 -0.7479  0.3115
 5292SOL     OW16319   2.311   1.622   0.251 -0.7649 -0.1837  0.1885
 5292SOL    HW116320   2.243   1.675   0.210  0.1163  1.2919  0.5465
 5292SOL    HW216321   2.385   1.627   0.190 -0.3787 -0.2761  0.6432
 5293SOL     OW16322   5.788   3.122   4.604  0.0202 -0.1945  0.2617
 5293SOL    HW116323   5.822   3.083   4.683 -1.1372 -2.6663 -0.3660
 5293SOL    HW216324   5.809   3.060   4.534 -1.8372  0.2981 -0.8254
 5294SOL     OW16325   3.952   5.610   1.508 -1.0816 -0.5176  0.4926
 5294SOL    HW116326   3.893   5.603   1.433 -1.2933 -0.6236  0.6676
 5294SOL    HW216327   4.040   5.601   1.471 -1.2247 -1.5614  0.3776
 5295SOL     OW16328   5.170   5.724   0.650 -0.2667 -0.5954 -0.6117
 5295SOL    HW116329   5.173   5.634   0.619 -1.2914 -0.7568 -0.2921
 5295SOL    HW216330   5.092   5.728   0.705  0.6258  0.0825  0.6557
 5296SOL     OW16331   3.373   1.536   4.176  0.1245 -0.3615  0.5091
 5296SOL    HW116332   3.384   1.623   4.215 -0.7496 -0.0786  0.1533
 5296SOL    HW216333   3.377   1.476   4.250 -2.3685  0.2352  1.2135
 5297SOL     OW16334   2.379   3.560   5.873  0.2014  0.6933 -0.3211
 5297SOL    HW116335   2.310   3.567   5.938 -0.4223  0.6417 -0.9579
 5297SOL    HW216336   2.337   3.517   5.798  0.7989  1.0586 -0.8826
 5298SOL     OW16337   0.972   3.283   4.440 -0.1185 -0.2401 -0.2205
 5298SOL    HW116338   0.924   3.205   4.467 -1.9256  1.1110  0.6470
 5298SOL    HW216339   0.927   3.314   4.361  0.4446  0.0528 -0.4333
 5299SOL     OW16340   4.336   2.858   2.625 -0.0934 -0.0911 -0.8354
 5299SOL    HW116341   4.260   2.891   2.672 -0.6114 -2.2243 -0.0664
 5299SOL    HW216342   4.300   2.810   2.550  0.6969  2.6084 -3.1499
 5300SOL     OW16343   0.671   2.196   4.646 -0.0108  0.3809  0.2787
 5300SOL    HW116344   0.633   2.255   4.711 -0.3887  0.0518  0.3572
 5300SOL    HW216345   0.671   2.247   4.565 -2.6640 -0.3253 -0.2603
 5301SOL     OW16346   1.166   2.497   4.136  0.1091 -0.0222 -0.6629
 5301SOL    HW116347   1.161   2.581   4.182 -1.6441  0.3958 -1.5418
 5301SOL    HW216348   1.080   2.458   4.148  0.4802 -1.1022 -1.3793
 5302SOL     OW16349   3.396   3.927   6.071  0.2236  0.0555 -0.7719
 5302SOL    HW116350   3.402   3.979   5.991  0.7255  0.2773 -0.5932
 5302SOL    HW216351   3.352   3.986   6.133 -1.3358 -0.5551 -1.2360
 5303SOL     OW16352   4.418   0.750   4.476 -0.5027  0.4478  0.0361
 5303SOL    HW116353   4.387   0.679   4.532 -0.2715  0.9880  0.8689
 5303SOL    HW216354   4.458   0.813   4.537 -0.8276  1.3518 -0.6639
 5304SOL     OW16355   4.861   3.301   1.657  0.1422 -0.1827 -0.2079
 5304SOL    HW116356   4.908   3.330   1.736  0.6959 -1.6693  0.0470
 5304SOL    HW216357   4.797   3.370   1.641 -1.1826 -0.6054  2.5812
 5305SOL     OW16358   3.554   5.348   0.048 -0.1775  0.3823  0.0669
 5305SOL    HW116359   3.533   5.439   0.026  0.2105  0.6087  0.6059
 5305SOL    HW216360   3.550   5.345   0.144 -1.4904 -0.4883  0.0121
 5306SOL     OW16361   2.488   2.683   3.144  0.0557  0.6261 -0.2046
 5306SOL    HW116362   2.579   2.683   3.113  0.4228  1.8097  0.7860
 5306SOL    HW216363   2.478   2.600   3.189  0.2936  0.0015 -1.2747
 5307SOL     OW16364   0.677   1.120   4.773  0.5189  0.0994 -0.7993
 5307SOL    HW116365   0.680   1.027   4.796 -1.1339  0.2045 -0.0029
 5307SOL    HW216366   0.658   1.164   4.856 -0.4899  0.9852 -1.4851
 5308SOL     OW16367   3.249   2.014   3.860 -0.0927 -0.6983  0.6692
 5308SOL    HW116368   3.338   2.010   3.897  0.3249  0.9964 -0.0514
 5308SOL    HW216369   3.194   1.970   3.925  1.2217 -1.4679  1.2971
 5309SOL     OW16370   4.408   4.915   5.604  0.7644  0.8603  0.3396
 5309SOL    HW116371   4.390   4.864   5.526 -0.4265 -1.4017  1.9784
 5309SOL    HW216372   4.336   4.978   5.609 -0.5963 -0.6680  0.8787
 5310SOL     OW16373   5.089   1.569   3.708  0.0020  0.7128  0.3158
 5310SOL    HW116374   5.183   1.589   3.698  0.1444  0.9139  1.8644
 5310SOL    HW216375   5.048   1.610   3.631  0.9996  1.9929  0.4351
 5311SOL     OW16376   4.079   4.810   4.027 -0.1697 -1.0236  0.7540
 5311SOL    HW116377   4.115   4.722   4.039 -0.1976 -1.3522 -1.1580
 5311SOL    HW216378   4.138   4.867   4.076  1.3827 -1.8564 -0.0543
 5312SOL     OW16379   0.147   4.139   5.458  0.9138 -0.5788 -0.6105
 5312SOL    HW116380   0.200   4.178   5.527  1.0322 -0.4433 -0.7761
 5312SOL    HW216381   0.173   4.047   5.457  1.1492 -0.5133 -0.6918
 5313SOL     OW16382   4.780   4.566   3.259  0.0105 -0.4635 -0.4028
 5313SOL    HW116383   4.739   4.517   3.188  2.4073 -0.5452 -1.8235
 5313SOL    HW216384   4.707   4.614   3.299 -1.7607 -2.0594 -1.5068
 5314SOL     OW16385   0.432   4.450   2.983 -0.9191 -0.3403  0.0827
 5314SOL    HW116386   0.523   4.440   3.011 -0.2832 -0.0204 -1.7634
 5314SOL    HW216387   0.395   4.362   2.989 -0.0229 -0.7800 -0.6438
 5315SOL     OW16388   1.889   4.722   4.933  0.2834 -0.5041  0.2372
 5315SOL    HW116389   1.841   4.712   4.852 -0.4870 -0.5911  0.6975
 5315SOL    HW216390   1.981   4.716   4.907  0.0434 -0.6480 -0.6063
 5316SOL     OW16391   0.662   5.946   5.736 -0.0645  0.3564 -0.0087
 5316SOL    HW116392   0.572   5.975   5.746 -0.2179 -0.4107  0.8855
 5316SOL    HW216393   0.712   6.002   5.795 -0.2022 -0.3933  0.8308
 5317SOL     OW16394   3.596   0.434   1.125 -0.0520  0.3417 -0.0899
 5317SOL    HW116395   3.565   0.392   1.206  0.1332 -1.2382 -0.7914
 5317SOL    HW216396   3.691   0.437   1.135 -0.0183  0.0220 -0.2880
 5318SOL     OW16397   4.854   1.385   4.047  0.1721  0.3883 -0.3501
 5318SOL    HW116398   4.898   1.445   4.106 -0.2906  1.5834 -1.1832
 5318SOL    HW216399   4.917   1.369   3.976  0.7305 -1.0474  0.4407
 5319SOL     OW16400   3.944   0.927   4.657 -0.1113 -0.1181 -0.2303
 5319SOL    HW116401   3.998   1.001   4.629 -0.9371 -0.0823 -1.8704
 5319SOL    HW216402   3.947   0.866   4.583 -1.8047 -0.3723 -0.1221
 5320SOL     OW16403   3.727   1.696   4.538  0.0856  0.7062 -0.2083
 5320SOL    HW116404   3.643   1.709   4.495 -0.5040  0.1293  0.7306
 5320SOL    HW216405   3.705   1.653   4.621  1.2321  1.2484  0.4007
 5321SOL     OW16406   5.312   0.285   1.760  0.3807  0.5996 -0.2500
 5321SOL    HW116407   5.266   0.292   1.843 -2.5725 -0.3214 -1.6550
 5321SOL    HW216408   5.340   0.194   1.755 -2.0160 -0.1676 -1.3639
 5322SOL     OW16409   0.753   3.587   5.708  0.0202 -0.5525  0.5709
 5322SOL    HW116410   0.707   3.660   5.750 -1.2736 -0.0727 -1.5515
 5322SOL    HW216411   0.838   3.585   5.752  0.0769  2.1865  0.7972
 5323SOL     OW16412   2.006   4.770   0.638 -0.1626 -0.2265 -1.0819
 5323SOL    HW116413   2.049   4.711   0.576  1.2586 -0.2460 -0.1234
 5323SOL    HW216414   1.978   4.713   0.710 -0.0790  0.0641 -0.8175
 5324SOL     OW16415   1.343   2.050   0.898  0.3918 -0.1858 -0.3323
 5324SOL    HW116416   1.248   2.052   0.909  0.3206  1.3650 -1.0527
 5324SOL    HW216417   1.372   2.139   0.916  1.6741 -0.5293 -0.5620
 5325SOL     OW16418   1.087   4.526   2.287  0.6966 -0.0183 -0.0657
 5325SOL    HW116419   1.169   4.532   2.240  1.9147  1.0718  2.0326
 5325SOL    HW216420   1.112   4.523   2.379 -1.6009  0.0165  0.6337
 5326SOL     OW16421   1.916   2.959   0.059 -0.0626  0.1149  0.0789
 5326SOL    HW116422   1.946   3.043   0.025  2.0652  0.1254  1.7714
 5326SOL    HW216423   1.992   2.901   0.050 -0.9792 -1.1827  0.3979
 5327SOL     OW16424   3.010   2.719   1.351 -0.0154 -0.1837 -0.2053
 5327SOL    HW116425   2.953   2.712   1.275 -0.2155  1.3753 -0.2201
 5327SOL    HW216426   2.953   2.698   1.425  0.2493 -1.9941 -0.4545
 5328SOL     OW16427   0.327   0.946   6.112 -0.0805 -0.0931  0.2297
 5328SOL    HW116428   0.252   0.906   6.155  0.2299 -0.1430  0.7315
 5328SOL    HW216429   0.289   1.013   6.055 -0.6957 -1.7503 -1.4018
 5329SOL     OW16430   0.248   5.048   2.584  0.0169 -0.5778  0.1113
 5329SOL    HW116431   0.237   5.117   2.650 -0.3346 -2.2041  1.8356
 5329SOL    HW216432   0.343   5.037   2.576  0.0713 -0.0254 -0.0633
 5330SOL     OW16433   4.368   3.700   1.396 -0.1876 -0.1840  0.2963
 5330SOL    HW116434   4.452   3.693   1.351 -0.0387 -0.7886  0.6651
 5330SOL    HW216435   4.309   3.738   1.331  0.3601  0.2204  0.0290
 5331SOL     OW16436   3.449   0.581   5.340 -0.0817  0.2316  0.0244
 5331SOL    HW116437   3.517   0.628   5.388 -1.0454  1.5051  0.1938
 5331SOL    HW216438   3.484   0.572   5.251 -0.0855  1.7650 -0.1549
 5332SOL     OW16439   3.929   0.467   5.980 -0.0255 -0.7058 -0.6132
 5332SOL    HW116440   4.011   0.500   6.016 -0.3581 -1.4067  0.8734
 5332SOL    HW216441   3.861   0.513   6.029 -0.5041 -1.6945 -0.3248
 5333SOL     OW16442   5.889   4.543   4.504  0.0866  0.0530 -0.0472
 5333SOL    HW116443   5.861   4.454   4.522  1.0975 -0.1525  0.5762
 5333SOL    HW216444   5.940   4.569   4.580  0.5077  0.8668 -0.5810
 5334SOL     OW16445   2.278   3.077   0.995 -0.1035 -0.0586 -0.2189
 5334SOL    HW116446   2.361   3.123   0.985  0.9925 -1.8237  0.3330
 5334SOL    HW216447   2.275   3.015   0.922 -0.6983 -0.3515  0.0444
 5335SOL     OW16448   3.800   2.044   1.435 -0.4450  0.0526 -0.3570
 5335SOL    HW116449   3.879   2.004   1.399 -0.0631 -0.8452  1.3625
 5335SOL    HW216450   3.824   2.136   1.447  0.4686 -0.2597  0.3733
 5336SOL     OW16451   4.224   1.749   0.158  0.4111 -0.3018 -0.3042
 5336SOL    HW116452   4.309   1.708   0.176  1.0563  1.6301  1.5443
 5336SOL    HW216453   4.225   1.768   0.064  0.2192 -3.9670 -1.1960
 5337SOL     OW16454   2.546   4.443   3.915 -0.2540  0.0207 -0.5658
 5337SOL    HW116455   2.568   4.387   3.990  0.2051  0.9690  0.0166
 5337SOL    HW216456   2.469   4.492   3.944  0.8842  1.5823 -0.0762
 5338SOL     OW16457   5.981   0.435   2.318  0.4001  0.4935 -0.5270
 5338SOL    HW116458   6.001   0.514   2.369 -0.2746  1.4864 -1.7553
 5338SOL    HW216459   5.920   0.386   2.373  1.7304  0.2135  0.7686
 5339SOL     OW16460   4.255   0.533   2.295  0.2340  0.5679  0.4211
 5339SOL    HW116461   4.249   0.467   2.226 -0.7291  0.7368  0.3356
 5339SOL    HW216462   4.335   0.510   2.343  1.2398  0.7875 -1.0946
 5340SOL     OW16463   2.077   5.432   5.243 -0.3025 -0.0889 -0.3976
 5340SOL    HW116464   2.048   5.438   5.152 -0.2934  2.0771 -0.2902
 5340SOL    HW216465   2.014   5.485   5.292 -0.0120 -0.8221  0.8100
 5341SOL     OW16466   1.974   3.723   3.405  0.1597 -0.3855  0.2115
 5341SOL    HW116467   1.996   3.632   3.386  2.8259  0.0468  0.8220
 5341SOL    HW216468   1.950   3.723   3.498  0.8825 -0.3827  0.4053
 5342SOL     OW16469   2.985   0.308   4.091  0.0709  0.1654  0.9783
 5342SOL    HW116470   2.956   0.345   4.008  0.3446  0.5852  1.0692
 5342SOL    HW216471   2.923   0.237   4.109 -0.9907  1.1310  1.2399
 5343SOL     OW16472   2.956   1.740   2.256 -0.3824 -0.3182  0.5397
 5343SOL    HW116473   3.026   1.771   2.313 -0.4063  0.3816  0.2074
 5343SOL    HW216474   2.898   1.816   2.246 -1.7466 -1.1846  1.6307
 5344SOL     OW16475   1.289   4.979   2.628  0.0457  0.7214 -0.4298
 5344SOL    HW116476   1.208   4.932   2.609 -0.2080  0.1711  1.6899
 5344SOL    HW216477   1.349   4.954   2.558 -0.0818 -2.8875  0.5480
 5345SOL     OW16478   4.526   0.631   0.543 -0.5267  0.0766 -0.3267
 5345SOL    HW116479   4.487   0.590   0.465  0.8011 -1.9000 -0.0179
 5345SOL    HW216480   4.605   0.674   0.511  0.5904 -1.6231  0.0193
 5346SOL     OW16481   4.131   3.238   3.142 -0.1927 -0.8449 -0.4379
 5346SOL    HW116482   4.053   3.283   3.111  0.4682  0.0285 -0.8668
 5346SOL    HW216483   4.175   3.302   3.198  0.8146 -0.9184 -1.1373
 5347SOL     OW16484   1.096   5.526   1.901 -0.1484  0.7404 -0.0346
 5347SOL    HW116485   1.004   5.541   1.878 -0.5036 -0.5996  0.4516
 5347SOL    HW216486   1.095   5.520   1.997 -0.0629 -2.1760 -0.1255
 5348SOL     OW16487   2.826   4.581   3.887  0.5235 -0.2420 -0.0365
 5348SOL    HW116488   2.810   4.490   3.912  0.0078  0.1730  1.2519
 5348SOL    HW216489   2.738   4.616   3.871  0.6629  0.2398  0.2589
 5349SOL     OW16490   2.078   3.660   2.239  0.2156 -0.3576  0.6065
 5349SOL    HW116491   2.067   3.604   2.316 -1.1549 -0.3857  0.4097
 5349SOL    HW216492   2.041   3.744   2.265  0.6649 -0.0640  0.3071
 5350SOL     OW16493   2.154   4.708   4.430  0.0774 -0.0833  0.6080
 5350SOL    HW116494   2.236   4.662   4.448  1.3158  0.3083 -3.1901
 5350SOL    HW216495   2.175   4.800   4.439 -0.0774  0.0022  0.1435
 5351SOL     OW16496   0.547   1.560   1.865  0.0995  0.1877  0.3514
 5351SOL    HW116497   0.533   1.651   1.839 -0.6269 -0.4112 -1.5641
 5351SOL    HW216498   0.493   1.548   1.942  0.6890  1.5321  1.0041
 5352SOL     OW16499   6.039   0.947   1.049 -0.4061  0.2480  0.0689
 5352SOL    HW116500   6.029   1.022   1.107  1.9110  0.5590  0.1779
 5352SOL    HW216501   6.099   0.888   1.095 -1.2875 -1.1414 -0.5082
 5353SOL     OW16502   5.932   2.877   1.340 -0.3427  0.2146  0.0713
 5353SOL    HW116503   5.954   2.943   1.406 -1.5458  1.2158 -0.4927
 5353SOL    HW216504   6.006   2.877   1.280 -0.1968  0.8457  0.2439
 5354SOL     OW16505   0.266   4.070   1.230 -0.0020 -0.0537  0.2710
 5354SOL    HW116506   0.276   4.108   1.316  0.6587 -0.2491  0.2833
 5354SOL    HW216507   0.355   4.051   1.201 -0.2281 -0.1670 -0.3718
 5355SOL     OW16508   5.157   4.995   1.482 -0.1537  0.1039  0.1161
 5355SOL    HW116509   5.185   4.973   1.393 -0.3634 -1.7531  0.4574
 5355SOL    HW216510   5.239   5.018   1.528  0.0571  0.2812 -0.3465
 5356SOL     OW16511   4.353   3.030   0.556 -0.5847 -0.0380 -0.2051
 5356SOL    HW116512   4.327   3.052   0.467 -1.0653 -0.8445 -0.2777
 5356SOL    HW216513   4.275   3.046   0.609 -0.3087  0.4175  0.0754
 5357SOL     OW16514   3.398   5.526   4.422  0.1898  0.1151 -0.0485
 5357SOL    HW116515   3.489   5.532   4.394  0.3630  0.0744  0.4944
 5357SOL    HW216516   3.394   5.577   4.503 -0.1275 -0.3929  0.2617
 5358SOL     OW16517   3.418   2.857   0.831 -0.2950  0.3178 -0.1791
 5358SOL    HW116518   3.368   2.880   0.753  0.8518  0.7084 -0.8372
 5358SOL    HW216519   3.479   2.931   0.843 -0.0208 -0.0395  0.6979
 5359SOL     OW16520   0.167   2.584   1.727 -0.3465  0.2893 -0.1118
 5359SOL    HW116521   0.136   2.494   1.731  0.6991 -0.1101 -0.6360
 5359SOL    HW216522   0.132   2.618   1.644  1.3958 -0.4954 -1.2309
 5360SOL     OW16523   5.921   0.018   5.169 -0.2497 -0.5567  0.3728
 5360SOL    HW116524   5.905   0.111   5.187 -0.8523 -0.4877 -0.4716
 5360SOL    HW216525   5.956  -0.016   5.251  1.4851  0.7426  0.2281
 5361SOL     OW16526   3.877   5.355   1.991  0.1944  0.3604 -0.4236
 5361SOL    HW116527   3.793   5.319   2.019 -0.9132  1.0218 -2.6574
 5361SOL    HW216528   3.860   5.447   1.975  1.6211  0.7320  0.0471
 5362SOL     OW16529   3.722   5.780   3.230  0.0790 -0.1960  0.6077
 5362SOL    HW116530   3.652   5.814   3.175 -1.7344 -1.3240  2.0990
 5362SOL    HW216531   3.723   5.686   3.212  1.1864 -0.2196  0.6918
 5363SOL     OW16532   4.048   3.931   2.916 -0.0481 -0.2141 -0.0572
 5363SOL    HW116533   4.102   3.915   2.993  0.9654 -0.3019 -0.7587
 5363SOL    HW216534   4.094   4.001   2.869  0.6518 -1.7455 -1.7622
 5364SOL     OW16535   2.668   2.071   0.218 -0.0240  0.6769 -0.0843
 5364SOL    HW116536   2.644   2.116   0.137 -0.6458 -1.4076 -1.1345
 5364SOL    HW216537   2.586   2.065   0.268 -0.2099 -0.3061 -0.4934
 5365SOL     OW16538   4.560   3.012   2.609  0.0176 -0.0957 -0.3993
 5365SOL    HW116539   4.561   3.005   2.514 -1.7357  2.1796 -0.6606
 5365SOL    HW216540   4.483   2.962   2.636  1.1380 -1.6944 -0.0028
 5366SOL     OW16541   2.316   1.858   2.113  0.2018  0.2443  0.0284
 5366SOL    HW116542   2.256   1.918   2.157  0.2194  1.9116 -2.0719
 5366SOL    HW216543   2.401   1.878   2.151  0.1492  1.3270 -0.3752
 5367SOL     OW16544   1.485   4.930   1.107  0.2989  0.5871 -0.2026
 5367SOL    HW116545   1.394   4.909   1.131  0.8586 -0.7598  0.9016
 5367SOL    HW216546   1.491   4.904   1.015 -0.4122  0.5755 -0.2548
 5368SOL     OW16547   3.975   3.944   4.972  0.4178  0.5316 -0.0202
 5368SOL    HW116548   4.054   3.994   4.991  1.2576  0.1999 -2.2652
 5368SOL    HW216549   3.990   3.910   4.884 -1.4797 -1.0454  0.2113
 5369SOL     OW16550   6.104   3.776   5.500 -0.5181  0.1147 -0.2400
 5369SOL    HW116551   6.116   3.866   5.532  2.0653  0.1603 -1.0922
 5369SOL    HW216552   6.142   3.721   5.569 -1.7973 -0.3470  0.1296
 5370SOL     OW16553   5.259   5.179   5.018 -0.6503  0.6242 -0.4282
 5370SOL    HW116554   5.311   5.115   5.067 -0.9738  1.4106  0.9913
 5370SOL    HW216555   5.193   5.208   5.080 -0.1528  2.7683 -0.8402
 5371SOL     OW16556   0.031   0.078   2.568  0.0244  0.0828 -0.2428
 5371SOL    HW116557  -0.051   0.102   2.611  0.5495 -0.1531  0.9294
 5371SOL    HW216558   0.078   0.161   2.558  1.3470 -0.1717  2.7709
 5372SOL     OW16559   4.917   1.063   2.585 -0.3625  0.1767 -0.1554
 5372SOL    HW116560   4.849   0.997   2.597  0.7473 -1.2108 -1.0984
 5372SOL    HW216561   4.920   1.077   2.490  1.1686 -0.3971 -0.2245
 5373SOL     OW16562   0.851   2.336   2.280 -0.3052 -0.3641 -0.1524
 5373SOL    HW116563   0.844   2.425   2.315  0.5521  0.9267 -2.9959
 5373SOL    HW216564   0.935   2.303   2.314 -1.1330 -0.5965  1.8104
 5374SOL     OW16565   2.591   1.442   4.083 -0.2048 -0.4417  0.5418
 5374SOL    HW116566   2.634   1.380   4.142  0.5312  1.5407  2.2416
 5374SOL    HW216567   2.596   1.402   3.997  3.1843 -1.3099  0.9987
 5375SOL     OW16568   5.966   4.233   3.835 -0.1794  0.1009 -0.2175
 5375SOL    HW116569   5.936   4.154   3.881  1.6810 -0.4113  0.1730
 5375SOL    HW216570   5.957   4.303   3.899 -1.5449  0.1825 -0.4641
 5376SOL     OW16571   2.270   2.683   2.613 -0.1169  0.9785 -0.2920
 5376SOL    HW116572   2.349   2.649   2.571 -0.7310 -0.8416 -0.0878
 5376SOL    HW216573   2.299   2.713   2.699  0.8270  3.0619 -1.2593
 5377SOL     OW16574   6.049   2.960   4.220 -0.2683 -0.2519  0.0091
 5377SOL    HW116575   6.012   3.015   4.151 -0.7858 -0.2471  0.2883
 5377SOL    HW216576   6.063   2.875   4.179 -0.1443 -0.1199 -0.2243
 5378SOL     OW16577   2.988   1.037   2.443 -0.6598  0.0127 -0.1924
 5378SOL    HW116578   3.032   1.025   2.527 -1.6618 -2.4030  0.0524
 5378SOL    HW216579   3.035   0.979   2.383 -1.3785 -0.0034 -0.7468
 5379SOL     OW16580   5.572   0.527   1.909 -0.1662 -0.0715  0.3719
 5379SOL    HW116581   5.578   0.518   1.814  0.4778  0.6768  0.3208
 5379SOL    HW216582   5.636   0.464   1.944 -0.2926 -0.2386  0.2983
 5380SOL     OW16583   2.775   5.872   0.086  0.1155 -0.3139  0.3971
 5380SOL    HW116584   2.783   5.852  -0.007 -1.6241  1.3688 -0.1681
 5380SOL    HW216585   2.694   5.830   0.113 -1.9665  3.0346 -0.0983
 5381SOL     OW16586   3.585   3.022   5.421 -0.4539 -0.3700  0.2855
 5381SOL    HW116587   3.507   2.968   5.416 -0.2094 -0.7275  0.2904
 5381SOL    HW216588   3.579   3.080   5.345 -0.5768 -0.5952  0.1226
 5382SOL     OW16589   5.098   3.687   2.776 -0.0991  0.0081  0.6231
 5382SOL    HW116590   5.075   3.594   2.770 -2.3758  0.5784 -0.5538
 5382SOL    HW216591   5.168   3.698   2.711  0.7756 -1.0034  1.3509
 5383SOL     OW16592   1.009   2.468   3.881 -0.0610  0.4976  0.6170
 5383SOL    HW116593   0.995   2.554   3.920 -1.2303  0.7836 -0.3830
 5383SOL    HW216594   0.951   2.409   3.929 -0.9235  0.7030 -0.1560
 5384SOL     OW16595   3.185   2.111   2.019  0.4461 -0.6548  0.3869
 5384SOL    HW116596   3.186   2.116   2.115 -2.1923 -3.4687  0.7074
 5384SOL    HW216597   3.249   2.043   1.998  2.4645  1.2629 -0.1494
 5385SOL     OW16598   0.963   1.919   5.244  0.0701  0.3196 -0.5897
 5385SOL    HW116599   0.968   1.828   5.275  2.2448  0.3936 -0.6212
 5385SOL    HW216600   0.981   1.913   5.151  0.5780  0.8104 -0.5258
 5386SOL     OW16601   5.289   3.005   3.628  0.3447  0.5495 -0.2591
 5386SOL    HW116602   5.243   2.927   3.594 -0.2152  0.3128  1.0022
 5386SOL    HW216603   5.381   2.980   3.628  0.4109  0.6644 -1.8635
 5387SOL     OW16604   4.183   2.096   2.573  0.0436  0.5746 -0.3162
 5387SOL    HW116605   4.265   2.047   2.576  0.1140  0.7455  1.2517
 5387SOL    HW216606   4.116   2.033   2.601 -0.2648  0.6234 -0.9347
 5388SOL     OW16607   4.634   1.829   5.498 -0.1848 -0.2346  0.8723
 5388SOL    HW116608   4.696   1.856   5.430  0.0471 -2.2246  0.2167
 5388SOL    HW216609   4.560   1.888   5.488 -0.6128 -1.0839 -1.8621
 5389SOL     OW16610   4.421   5.713   5.454  0.0808 -0.5092 -0.1934
 5389SOL    HW116611   4.368   5.792   5.462 -0.3004 -0.6567 -1.1337
 5389SOL    HW216612   4.509   5.745   5.432  0.2262 -0.3036  0.6345
 5390SOL     OW16613   3.609   3.486   6.041  0.0742 -0.0588 -0.4054
 5390SOL    HW116614   3.591   3.572   6.003  0.9619  0.2040 -0.2555
 5390SOL    HW216615   3.538   3.431   6.010 -0.4757  0.7177 -0.5512
 5391SOL     OW16616   0.953   2.244   2.969 -0.0178 -0.3725  0.0170
 5391SOL    HW116617   0.924   2.237   3.060 -2.0210 -0.1634 -0.5518
 5391SOL    HW216618   0.956   2.339   2.953  0.3432 -0.4108 -0.1297
 5392SOL     OW16619   4.114   0.287   2.401  0.1805 -0.7468 -0.2812
 5392SOL    HW116620   4.084   0.351   2.466  1.1960 -0.9629  0.4245
 5392SOL    HW216621   4.194   0.252   2.438  0.8224 -0.8326 -1.7009
 5393SOL     OW16622   1.827   2.462   1.559  0.5492  0.3852  0.3192
 5393SOL    HW116623   1.758   2.529   1.554  1.8234  1.7456  0.4621
 5393SOL    HW216624   1.812   2.418   1.642  0.9987  1.9954  1.2869
 5394SOL     OW16625   1.689   3.716   3.762  0.0548 -0.4979 -0.6398
 5394SOL    HW116626   1.685   3.622   3.742  0.9584 -0.5935 -0.4409
 5394SOL    HW216627   1.783   3.736   3.761 -0.0010  0.0155  1.0669
 5395SOL     OW16628   0.646   0.504   2.938 -0.1843 -0.1850  0.4137
 5395SOL    HW116629   0.611   0.473   3.021  1.0163 -0.8539  0.6950
 5395SOL    HW216630   0.710   0.571   2.963  0.6376 -0.8248  0.0883
 5396SOL     OW16631   2.433   4.232   2.889  0.5553  0.0891 -0.0775
 5396SOL    HW116632   2.354   4.196   2.848  1.0693  0.3329 -1.3256
 5396SOL    HW216633   2.418   4.221   2.983 -0.7225 -0.3673 -0.3099
 5397SOL     OW16634   3.330   5.481   0.377 -0.2698 -0.9074 -0.6771
 5397SOL    HW116635   3.424   5.478   0.363  0.4364  0.8828  2.6779
 5397SOL    HW216636   3.298   5.548   0.316  1.4090  1.6055  1.0537
 5398SOL     OW16637   3.304   2.264   3.152 -0.1593 -0.0655  0.1754
 5398SOL    HW116638   3.287   2.174   3.179  0.2022  0.0177  0.6714
 5398SOL    HW216639   3.299   2.315   3.232 -2.1986  0.6349 -0.3357
 5399SOL     OW16640   2.491   0.881   4.350  0.2230  0.8202  0.1441
 5399SOL    HW116641   2.532   0.839   4.426  0.7820  1.6036  0.2812
 5399SOL    HW216642   2.416   0.825   4.330  0.7211 -0.0187  0.5731
 5400SOL     OW16643   2.975   4.999   3.171 -0.3774  0.0802 -0.8384
 5400SOL    HW116644   2.982   4.905   3.185  0.4242  0.0216 -1.5332
 5400SOL    HW216645   2.988   5.010   3.076  0.1766  0.9335 -0.6718
 5401SOL     OW16646   5.352   5.812   5.367 -0.3135  0.4034  0.1605
 5401SOL    HW116647   5.274   5.863   5.387 -1.4920 -1.6689  1.1883
 5401SOL    HW216648   5.411   5.874   5.324 -2.3121  2.1504 -0.2187
 5402SOL     OW16649   1.134   2.925   1.318 -0.1323  0.2004  0.0291
 5402SOL    HW116650   1.141   2.833   1.347  1.3701  0.4141  0.4736
 5402SOL    HW216651   1.199   2.933   1.249 -0.9444  0.7029 -0.6934
 5403SOL     OW16652   2.767   3.631   1.421  0.0024  0.2698  0.0310
 5403SOL    HW116653   2.750   3.725   1.421 -0.2630  0.2451  1.1907
 5403SOL    HW216654   2.726   3.599   1.341  0.0615  1.1331 -0.3580
 5404SOL     OW16655   2.893   0.420   3.861  0.4087 -0.0808  0.3820
 5404SOL    HW116656   2.913   0.506   3.826 -0.8044  0.5155  1.1256
 5404SOL    HW216657   2.936   0.359   3.800  0.9472  1.0154 -0.3640
 5405SOL     OW16658   4.694   3.464   2.542 -0.5197 -0.6899 -0.4926
 5405SOL    HW116659   4.670   3.557   2.542  0.1008 -0.4701  1.7241
 5405SOL    HW216660   4.692   3.439   2.634 -0.5687 -2.8739 -1.0397
 5406SOL     OW16661   3.394   0.224   1.885 -0.0620 -0.1544 -0.3048
 5406SOL    HW116662   3.387   0.278   1.964  0.4729 -0.9872  0.3320
 5406SOL    HW216663   3.320   0.164   1.891 -0.0809 -0.1495 -0.4918
 5407SOL     OW16664   3.370   4.251   2.213 -0.6859  0.3871 -0.1077
 5407SOL    HW116665   3.407   4.315   2.153 -1.2138 -0.4299 -1.3393
 5407SOL    HW216666   3.275   4.262   2.204 -0.8195 -1.2508 -1.1542
 5408SOL     OW16667   4.091   2.977   2.408  0.2698  0.0542  0.1739
 5408SOL    HW116668   4.167   2.971   2.349  1.1461  3.7162  0.7066
 5408SOL    HW216669   4.019   3.005   2.351 -0.6104 -2.5757 -0.1646
 5409SOL     OW16670   3.779   0.877   2.240  0.1851 -0.6076  0.3606
 5409SOL    HW116671   3.721   0.883   2.164  0.5544  1.4122  0.1808
 5409SOL    HW216672   3.867   0.873   2.203  0.4577  1.6228  0.6152
 5410SOL     OW16673   2.284   2.948   0.775  0.6754 -0.1671  0.3102
 5410SOL    HW116674   2.234   2.944   0.693  1.7378  1.7582 -0.4779
 5410SOL    HW216675   2.368   2.985   0.750  1.7528 -1.3357  1.9822
 5411SOL     OW16676   2.088   3.767   1.709 -0.4271  0.0120 -0.2595
 5411SOL    HW116677   2.009   3.712   1.717 -1.2687  1.2832  0.5631
 5411SOL    HW216678   2.141   3.744   1.785  0.6375 -1.7448 -1.4571
 5412SOL     OW16679   4.711   4.797   0.397  0.7085 -0.6275 -0.1089
 5412SOL    HW116680   4.686   4.807   0.489  2.3577 -1.5871  0.4801
 5412SOL    HW216681   4.714   4.702   0.383  1.1142 -0.4952 -0.9730
 5413SOL     OW16682   5.248   2.945   2.918  0.2637  0.1735  0.1517
 5413SOL    HW116683   5.208   3.032   2.918 -0.6648 -0.2362  1.2267
 5413SOL    HW216684   5.177   2.886   2.890  0.6505 -0.3312  0.2223
 5414SOL     OW16685   0.115   4.813   4.325 -0.2098 -0.2642 -0.3365
 5414SOL    HW116686   0.117   4.893   4.272 -0.4425  1.3403  1.9465
 5414SOL    HW216687   0.199   4.813   4.371 -0.7759 -0.5505  0.7303
 5415SOL     OW16688   4.665   0.599   4.068  0.1906  0.2329 -0.2241
 5415SOL    HW116689   4.657   0.589   4.163  0.6216  0.9289 -0.1098
 5415SOL    HW216690   4.671   0.694   4.054 -0.4815  0.1705 -0.9966
 5416SOL     OW16691   5.343   0.715   1.906  1.3956 -0.3615 -0.2038
 5416SOL    HW116692   5.270   0.657   1.927  1.1325  0.3657  0.9928
 5416SOL    HW216693   5.410   0.658   1.868  1.2894 -1.5222  1.2459
 5417SOL     OW16694   4.011   5.248   4.669 -0.0114 -0.6422 -0.3150
 5417SOL    HW116695   4.104   5.274   4.668 -0.2867  0.4842  0.7104
 5417SOL    HW216696   3.980   5.270   4.581  0.3645  0.3005 -0.2282
 5418SOL     OW16697   5.704   2.253   5.141  0.5500  0.3069 -0.2356
 5418SOL    HW116698   5.757   2.331   5.127 -1.6185  1.8367 -0.4657
 5418SOL    HW216699   5.658   2.240   5.058  1.6744 -1.9318 -0.5865
 5419SOL     OW16700   0.627   2.820   0.944 -0.2839 -0.4744  0.1244
 5419SOL    HW116701   0.640   2.896   1.001  0.0186 -1.9447  2.1226
 5419SOL    HW216702   0.696   2.827   0.878  0.0779  0.6850  0.6015
 5420SOL     OW16703   2.852   2.295   1.526 -0.0983  0.2014 -0.0184
 5420SOL    HW116704   2.882   2.299   1.435 -1.0385  1.3600 -0.3020
 5420SOL    HW216705   2.924   2.253   1.573  1.8755  2.5872 -0.6938
 5421SOL     OW16706   5.347   0.438   0.200  0.2304  0.1159 -0.3233
 5421SOL    HW116707   5.274   0.387   0.166 -0.2892  1.4061 -1.2110
 5421SOL    HW216708   5.411   0.439   0.128  0.4111  0.3685 -0.1620
 5422SOL     OW16709   3.280   2.053   4.521  0.0462 -0.4976  0.2819
 5422SOL    HW116710   3.357   2.074   4.574 -0.9941  0.1402  1.6005
 5422SOL    HW216711   3.232   2.136   4.516 -0.1035 -0.6537 -1.3199
 5423SOL     OW16712   1.882   2.478   3.075 -0.4804 -0.5020 -0.2076
 5423SOL    HW116713   1.789   2.493   3.094 -1.0010 -1.3338 -1.9331
 5423SOL    HW216714   1.914   2.563   3.044 -1.0749 -0.6071 -1.1295
 5424SOL     OW16715   6.044   4.589   2.927  0.6434 -0.4405  0.0153
 5424SOL    HW116716   6.030   4.590   3.022  0.1567  0.4210 -0.0544
 5424SOL    HW216717   5.958   4.566   2.891  0.9212 -1.1402 -0.2043
 5425SOL     OW16718   3.322   3.796   0.569  0.0755 -0.4422  0.7894
 5425SOL    HW116719   3.387   3.781   0.639  1.6632  0.4451 -0.4104
 5425SOL    HW216720   3.301   3.709   0.537  0.6175 -0.7614  1.2670
 5426SOL     OW16721   1.388   0.715   1.575 -0.2688 -0.0980  0.2198
 5426SOL    HW116722   1.334   0.772   1.630 -1.3210  1.1918 -2.0306
 5426SOL    HW216723   1.446   0.775   1.528 -0.9326 -0.8921 -1.7128
 5427SOL     OW16724   3.680   0.591   5.152  0.0649  0.2298  0.0326
 5427SOL    HW116725   3.685   0.570   5.058 -0.1463  0.4918 -0.0393
 5427SOL    HW216726   3.683   0.686   5.155 -0.0177  0.2245  0.2876
 5428SOL     OW16727   1.358   0.478   3.947  0.0922 -0.3023  0.5354
 5428SOL    HW116728   1.337   0.431   4.028  0.9665  0.4251  1.2073
 5428SOL    HW216729   1.340   0.415   3.877 -2.6410 -0.3022  1.1288
 5429SOL     OW16730   5.966   4.046   1.427  0.1330  0.1603  0.0226
 5429SOL    HW116731   5.886   4.061   1.377 -0.0408 -0.3233  0.1541
 5429SOL    HW216732   6.009   4.132   1.428  0.8854 -0.1147 -2.2322
 5430SOL     OW16733   3.833   3.278   5.547 -0.4942 -0.5713  0.1702
 5430SOL    HW116734   3.823   3.278   5.452 -2.6624  1.6020  0.3039
 5430SOL    HW216735   3.783   3.354   5.576  1.7954  0.0491  2.9113
 5431SOL     OW16736   1.690   5.301   5.678  0.0126 -0.2515 -0.2537
 5431SOL    HW116737   1.622   5.235   5.688  0.2112 -0.4469 -0.2019
 5431SOL    HW216738   1.729   5.309   5.765 -0.6851  0.6701 -0.0045
 5432SOL     OW16739   0.882   4.821   2.907 -0.6185  0.3935  0.0936
 5432SOL    HW116740   0.857   4.876   2.832 -0.8106  0.0810 -0.0757
 5432SOL    HW216741   0.815   4.839   2.973  0.6118  2.1365  0.9456
 5433SOL     OW16742   0.786   4.505   0.366  0.0019  0.7180  0.1348
 5433SOL    HW116743   0.722   4.479   0.433  0.5562 -0.5424  0.1942
 5433SOL    HW216744   0.839   4.427   0.352  1.6628  1.7946  0.2134
 5434SOL     OW16745   0.981   2.516   4.713 -0.0343  0.4001  0.0223
 5434SOL    HW116746   0.929   2.584   4.670  0.8129  1.7270  1.0288
 5434SOL    HW216747   1.049   2.494   4.649 -0.7028 -0.0095 -0.5694
 5435SOL     OW16748   3.861   4.761   3.797  0.2611  0.1454 -0.7308
 5435SOL    HW116749   3.875   4.768   3.891 -0.3792 -2.4468 -0.3764
 5435SOL    HW216750   3.949   4.753   3.760  0.4422 -0.3915 -0.1912
 5436SOL     OW16751   5.095   4.909   4.156  0.5431  0.5161  0.2706
 5436SOL    HW116752   5.155   4.973   4.116  0.0063  0.4356 -0.6938
 5436SOL    HW216753   5.061   4.954   4.233 -0.1514  1.5911 -0.6211
 5437SOL     OW16754   0.896   1.398   0.911  0.6639  0.2487 -0.3500
 5437SOL    HW116755   0.908   1.338   0.837  0.4606  0.2354 -0.3733
 5437SOL    HW216756   0.806   1.383   0.939  0.8335  0.0491  0.0871
 5438SOL     OW16757   0.044   4.824   2.584 -0.3126  0.5360 -0.5572
 5438SOL    HW116758   0.095   4.797   2.660  0.9662 -0.6422 -1.7763
 5438SOL    HW216759   0.080   4.909   2.560 -0.5717  0.8105  0.0035
 5439SOL     OW16760   4.874   3.399   3.711  0.0337 -0.2353  0.1184
 5439SOL    HW116761   4.916   3.451   3.643 -0.2404 -1.8940 -1.3951
 5439SOL    HW216762   4.946   3.357   3.758  0.3262  2.2883  2.1194
 5440SOL     OW16763   4.715   3.952   2.132 -0.0114 -0.1325  0.4596
 5440SOL    HW116764   4.724   4.029   2.189 -0.3774 -2.1901  3.4700
 5440SOL    HW216765   4.772   3.886   2.171 -0.8928 -1.9228 -1.1101
 5441SOL     OW16766   1.186   5.137   3.595  0.0895 -0.1357 -0.5331
 5441SOL    HW116767   1.142   5.134   3.510  1.4337 -1.7657 -1.2286
 5441SOL    HW216768   1.267   5.089   3.581  1.4628  1.5732  1.0686
 5442SOL     OW16769   3.328   0.816   0.006 -0.4457 -0.3510 -0.3375
 5442SOL    HW116770   3.280   0.892   0.038 -1.0596 -0.4005 -1.1271
 5442SOL    HW216771   3.364   0.843  -0.078  0.7936 -0.3673  0.1561
 5443SOL     OW16772   3.628   5.287   1.065  0.5363  0.3005 -0.0071
 5443SOL    HW116773   3.632   5.275   1.160  0.2280  1.5065  0.1803
 5443SOL    HW216774   3.540   5.259   1.040  0.6825 -0.1922  0.0376
 5444SOL     OW16775   5.412   2.640   4.831 -0.2694  0.6289 -0.0615
 5444SOL    HW116776   5.429   2.557   4.786 -0.0718  0.9163 -0.5367
 5444SOL    HW216777   5.435   2.707   4.766 -1.4263  1.0502 -0.0604
 5445SOL     OW16778   5.541   0.499   4.855 -0.4794  0.3889  0.3742
 5445SOL    HW116779   5.609   0.553   4.814  0.0426 -0.2792  0.3380
 5445SOL    HW216780   5.553   0.511   4.949  0.8464 -1.0601  0.4402
 5446SOL     OW16781   0.795   2.661   5.881  0.3486  0.8092 -0.2055
 5446SOL    HW116782   0.758   2.579   5.914 -0.3512  1.9283  1.9903
 5446SOL    HW216783   0.861   2.634   5.818  0.2368 -1.4595  0.5651
 5447SOL     OW16784   4.021   0.049   3.216 -0.1583  0.1964 -0.5996
 5447SOL    HW116785   4.008  -0.045   3.204 -0.3800 -0.0311  1.1241
 5447SOL    HW216786   4.084   0.074   3.149 -0.5981 -1.0422 -1.4993
 5448SOL     OW16787   1.056   1.212   4.883 -0.1506  0.6589  0.7409
 5448SOL    HW116788   1.007   1.189   4.804  1.5543 -1.7475  0.2793
 5448SOL    HW216789   1.058   1.307   4.883 -3.1043  0.8137 -0.2342
 5449SOL     OW16790   0.169   5.490   0.219  0.3217  0.0786  0.2453
 5449SOL    HW116791   0.254   5.476   0.260 -0.0864 -0.5577  0.8801
 5449SOL    HW216792   0.114   5.420   0.252 -0.3791  0.3201 -0.3804
 5450SOL     OW16793   4.681   4.203   3.319  0.3108  0.0678  0.2351
 5450SOL    HW116794   4.627   4.161   3.386  0.1885  0.3438  0.3091
 5450SOL    HW216795   4.769   4.172   3.337  0.8779  2.6610  2.5828
 5451SOL     OW16796   4.273   5.356   4.574 -0.2415  0.0446  0.5219
 5451SOL    HW116797   4.284   5.282   4.513 -2.1330 -0.2056  0.4338
 5451SOL    HW216798   4.351   5.353   4.629  0.2651 -1.3229 -0.2121
 5452SOL     OW16799   0.513   4.309   5.500  0.4074 -0.4879 -0.4146
 5452SOL    HW116800   0.446   4.377   5.510 -0.6137 -1.5267  0.1003
 5452SOL    HW216801   0.523   4.272   5.588 -0.4973 -2.2892 -1.0117
 5453SOL     OW16802   4.618   5.896   0.408  0.1235  0.2659 -0.1002
 5453SOL    HW116803   4.711   5.905   0.429  0.2067  2.4178 -1.0844
 5453SOL    HW216804   4.575   5.880   0.492  1.2062  1.1775  0.6645
 5454SOL     OW16805   5.242   4.347   0.227  0.2035 -0.3283  0.5558
 5454SOL    HW116806   5.229   4.371   0.319  0.5469 -0.9670  0.7725
 5454SOL    HW216807   5.305   4.275   0.229 -0.6321 -1.0968 -0.0998
 5455SOL     OW16808   2.175   2.898   5.783  0.2326 -0.9730  0.2926
 5455SOL    HW116809   2.156   2.806   5.761  3.5789 -1.5204 -0.9089
 5455SOL    HW216810   2.146   2.946   5.705  0.4595 -1.3040 -0.0037
 5456SOL     OW16811   6.083   5.395   0.531 -0.1416  0.7432  0.0834
 5456SOL    HW116812   6.022   5.324   0.549 -1.5295  2.0638  0.7785
 5456SOL    HW216813   6.080   5.405   0.436 -1.4771  1.1699  0.1489
 5457SOL     OW16814   1.024   3.206   2.760  0.3484 -0.0193 -0.0787
 5457SOL    HW116815   0.952   3.147   2.736 -0.1403 -0.5743  2.4429
 5457SOL    HW216816   0.982   3.288   2.785  0.9107  0.8968 -1.9600
 5458SOL     OW16817   3.025   4.525   4.218 -0.4232 -0.3044  0.8960
 5458SOL    HW116818   3.028   4.604   4.273  0.2805 -0.0160  0.4567
 5458SOL    HW216819   2.933   4.500   4.216 -0.7814  0.9882  0.3666
 5459SOL     OW16820   2.351   3.102   5.978  0.4933  0.3566  0.4187
 5459SOL    HW116821   2.316   3.066   6.059 -1.2182  2.4658  0.6902
 5459SOL    HW216822   2.275   3.116   5.922  1.4980  0.2194 -1.0660
 5460SOL     OW16823   4.899   3.248   5.828 -0.4453  0.5605  0.2167
 5460SOL    HW116824   4.955   3.209   5.760  0.1509  2.4253 -0.4259
 5460SOL    HW216825   4.845   3.311   5.781 -1.2309  0.6726  1.2423
 5461SOL     OW16826   5.557   3.158   2.351  0.3218  0.5723  0.0336
 5461SOL    HW116827   5.510   3.081   2.321  0.7781  0.6995 -1.0568
 5461SOL    HW216828   5.490   3.226   2.359 -0.2626 -0.1618  2.0079
 5462SOL     OW16829   5.984   3.284   6.072 -0.1942  0.2057  0.0521
 5462SOL    HW116830   5.999   3.377   6.084 -0.1875  0.1144  0.7837
 5462SOL    HW216831   5.889   3.273   6.081  0.0562 -0.2379  2.8506
 5463SOL     OW16832   5.607   1.805   5.471 -0.4140  0.0137 -0.0139
 5463SOL    HW116833   5.624   1.797   5.377 -1.7348  0.9845 -0.3633
 5463SOL    HW216834   5.619   1.898   5.490 -1.3331  0.0322  0.5198
 5464SOL     OW16835   3.505   0.714   1.022  0.0784 -0.0138 -0.1076
 5464SOL    HW116836   3.517   0.730   1.116 -0.8473  0.9536 -0.1450
 5464SOL    HW216837   3.552   0.631   1.007 -1.5860 -1.3821  1.6383
 5465SOL     OW16838   5.391   0.409   1.075 -0.7156  0.3583  0.0456
 5465SOL    HW116839   5.345   0.395   0.993  1.5951 -1.6477 -1.0466
 5465SOL    HW216840   5.466   0.464   1.051  0.8375 -1.5052  0.4126
 5466SOL     OW16841   2.252   2.701   3.451 -0.2249 -0.1584 -0.3202
 5466SOL    HW116842   2.300   2.781   3.472 -0.5061  0.7940 -2.8762
 5466SOL    HW216843   2.166   2.713   3.490  0.4084 -0.2291  1.1550
 5467SOL     OW16844   3.215   4.716   1.122 -0.3363 -0.0911  0.4614
 5467SOL    HW116845   3.221   4.684   1.212  0.7835  0.5452  0.6201
 5467SOL    HW216846   3.128   4.688   1.093 -0.8192 -0.0742  1.8265
 5468SOL     OW16847   3.222   5.675   3.982  0.2607  0.4045 -0.1059
 5468SOL    HW116848   3.217   5.605   4.048 -0.1824 -0.5682 -1.1499
 5468SOL    HW216849   3.214   5.630   3.898 -1.7384  1.8543 -0.7644
 5469SOL     OW16850   2.049   5.145   1.894 -0.7148  0.1619  0.7536
 5469SOL    HW116851   2.131   5.095   1.886 -0.5054  0.7776 -2.1493
 5469SOL    HW216852   2.049   5.176   1.985  1.9477 -0.4275  1.0524
 5470SOL     OW16853   4.112   3.661   0.324  0.2949 -0.0367 -0.4943
 5470SOL    HW116854   4.155   3.746   0.332 -2.2977  1.5336 -1.9034
 5470SOL    HW216855   4.091   3.636   0.414  1.2478  0.7026 -0.0472
 5471SOL     OW16856   1.927   0.211   4.739  0.3838 -0.0210 -0.6299
 5471SOL    HW116857   1.979   0.289   4.720  1.4171 -0.9691 -1.8780
 5471SOL    HW216858   1.907   0.217   4.833  1.2202  1.2758 -0.5140
 5472SOL     OW16859   5.562   4.544   2.659  0.6250 -0.0040  0.1953
 5472SOL    HW116860   5.642   4.592   2.681  0.9127 -1.1299  1.7436
 5472SOL    HW216861   5.587   4.452   2.665 -0.0780 -0.4113 -2.0738
 5473SOL     OW16862   2.546   1.212   2.187  0.1688  0.1497  0.6830
 5473SOL    HW116863   2.472   1.271   2.180  1.1691  1.3369 -0.5273
 5473SOL    HW216864   2.613   1.263   2.233  0.4008 -0.7147  1.3168
 5474SOL     OW16865   3.483   2.191   2.272 -0.2903  0.5481 -0.3333
 5474SOL    HW116866   3.394   2.159   2.288 -0.2382 -0.6135 -2.0662
 5474SOL    HW216867   3.473   2.261   2.208  0.1320 -1.0514 -2.2639
 5475SOL     OW16868   3.431   1.536   3.224  0.1626 -0.3683 -0.0346
 5475SOL    HW116869   3.473   1.533   3.138  1.0100  0.3351  0.3549
 5475SOL    HW216870   3.502   1.545   3.286 -0.5634  1.1487  0.6209
 5476SOL     OW16871   0.428   5.362   1.760  0.3780  0.6151 -0.4486
 5476SOL    HW116872   0.426   5.298   1.831 -2.4935  1.3130  0.2001
 5476SOL    HW216873   0.339   5.364   1.727  1.8765 -1.2903 -5.6962
 5477SOL     OW16874   1.153   0.950   3.561 -0.1943 -0.6897  0.2527
 5477SOL    HW116875   1.188   0.929   3.647  0.6099 -2.5205 -0.4585
 5477SOL    HW216876   1.064   0.980   3.577  0.1621 -0.3968  1.7604
 5478SOL     OW16877   3.038   1.738   0.993  0.6086  0.4307  0.4192
 5478SOL    HW116878   3.057   1.714   0.903 -0.0533  0.6075  0.2314
 5478SOL    HW216879   3.030   1.655   1.039 -2.5250  0.1586 -0.3947
 5479SOL     OW16880   2.612   2.431   1.554 -0.9383 -0.1017  0.7122
 5479SOL    HW116881   2.704   2.408   1.547 -0.3470  2.1628  0.0574
 5479SOL    HW216882   2.566   2.347   1.553  1.0157 -1.2527 -0.4139
 5480SOL     OW16883   2.347   5.118   5.672  0.1341 -0.0260  0.3600
 5480SOL    HW116884   2.271   5.147   5.621  0.9811 -1.6127 -1.9795
 5480SOL    HW216885   2.414   5.185   5.655  0.3300 -0.4144 -0.4507
 5481SOL     OW16886   5.165   2.695   4.505  0.7014 -0.6269 -0.2228
 5481SOL    HW116887   5.097   2.751   4.467  1.7302  0.1837 -0.9076
 5481SOL    HW216888   5.203   2.749   4.574  1.2194 -0.7549 -0.4077
 5482SOL     OW16889   0.074   3.072   4.546 -0.0522 -0.8497  0.4099
 5482SOL    HW116890   0.124   3.023   4.611 -0.6701 -2.2556 -0.1443
 5482SOL    HW216891   0.020   3.132   4.597  2.1182  0.6827  1.0347
 5483SOL     OW16892   3.477   3.055   3.657  0.0752 -0.2915 -0.2398
 5483SOL    HW116893   3.556   3.006   3.679 -0.0157 -0.3076  0.0584
 5483SOL    HW216894   3.499   3.101   3.576  1.1969  1.4884  1.0123
 5484SOL     OW16895   4.280   3.146   3.419 -0.2961  0.3855  0.0138
 5484SOL    HW116896   4.224   3.224   3.417 -0.2434  0.4191 -0.2207
 5484SOL    HW216897   4.220   3.072   3.422 -0.3412  0.4490  0.7871
 5485SOL     OW16898   5.498   3.766   3.061  0.2463 -0.1496  0.0415
 5485SOL    HW116899   5.523   3.827   2.992 -0.7733  0.1000 -0.1239
 5485SOL    HW216900   5.571   3.768   3.123  0.4235  0.9030 -0.1802
 5486SOL     OW16901   0.613   1.627   4.385  0.1528 -0.4795 -0.3996
 5486SOL    HW116902   0.529   1.581   4.381  0.0251 -0.3838  0.8781
 5486SOL    HW216903   0.600   1.704   4.330 -1.6324  1.0980  2.0367
 5487SOL     OW16904   4.134   4.613   5.465 -0.4320  0.2461  0.1937
 5487SOL    HW116905   4.121   4.630   5.372  0.2036  1.4973  0.3065
 5487SOL    HW216906   4.227   4.590   5.473 -0.6041 -0.3869  0.4567
 5488SOL     OW16907   0.397   5.046   0.384 -0.1524 -0.0689 -0.1212
 5488SOL    HW116908   0.338   4.993   0.332  1.6802 -1.8084 -0.5524
 5488SOL    HW216909   0.484   5.028   0.348  0.9120  0.5834  1.9510
 5489SOL     OW16910   0.989   3.533   2.926  0.7281  0.0079  0.1155
 5489SOL    HW116911   1.051   3.595   2.889  0.8034 -0.5374 -0.7155
 5489SOL    HW216912   0.907   3.550   2.879  0.7422 -0.4854 -0.0970
 5490SOL     OW16913   5.530   0.351   2.173 -0.1002  0.1528 -0.3465
 5490SOL    HW116914   5.578   0.329   2.093  0.0050  0.8063 -0.4728
 5490SOL    HW216915   5.531   0.447   2.176 -1.1801  0.1709 -0.2094
 5491SOL     OW16916   2.910   5.416   5.849 -0.3430  0.5529  0.1038
 5491SOL    HW116917   2.819   5.440   5.863  0.1341  1.9712  0.9506
 5491SOL    HW216918   2.957   5.500   5.847  1.1755 -0.2205  1.4523
 5492SOL     OW16919   2.363   0.466   5.425 -0.0814  0.1926  0.3252
 5492SOL    HW116920   2.430   0.399   5.414 -0.1418  0.1391  0.2796
 5492SOL    HW216921   2.291   0.420   5.468  0.0385  0.3283  0.6781
 5493SOL     OW16922   5.831   5.344   2.028  0.0020 -0.4565 -0.0389
 5493SOL    HW116923   5.816   5.258   1.988 -0.1902 -1.3431  1.8338
 5493SOL    HW216924   5.744   5.373   2.055  0.1827 -0.0988  0.1622
 5494SOL     OW16925   0.686   4.484   5.362  0.2975 -0.0514  0.3253
 5494SOL    HW116926   0.628   4.531   5.301  0.0124 -0.5330  0.2194
 5494SOL    HW216927   0.627   4.427   5.411  0.7518 -1.0306 -0.2280
 5495SOL     OW16928   2.404   1.460   0.668 -0.0692  0.1858 -0.0229
 5495SOL    HW116929   2.351   1.387   0.700 -2.9804  2.0754 -0.1703
 5495SOL    HW216930   2.467   1.475   0.738 -1.4646 -0.4919  1.4471
 5496SOL     OW16931   5.207   4.032   0.590 -0.3177 -0.4983  0.2960
 5496SOL    HW116932   5.218   4.127   0.588 -1.8157 -0.2792  0.8820
 5496SOL    HW216933   5.295   3.997   0.574  0.1845  0.9735 -0.3620
 5497SOL     OW16934   5.043   4.797   3.695 -0.8974 -0.5625 -0.3210
 5497SOL    HW116935   5.058   4.831   3.607  0.4611  1.5823  0.6739
 5497SOL    HW216936   5.068   4.868   3.753 -0.4212 -2.3912  1.8601
 5498SOL     OW16937   3.340   3.345   5.134 -0.4548  0.3029 -0.2403
 5498SOL    HW116938   3.275   3.300   5.079 -0.1487  0.2427 -0.5554
 5498SOL    HW216939   3.388   3.400   5.074  0.3892 -0.3399 -0.1699
 5499SOL     OW16940   4.440   1.454   3.187 -0.5216  0.5080  0.0473
 5499SOL    HW116941   4.438   1.421   3.277  0.4654  1.4530  0.4332
 5499SOL    HW216942   4.495   1.532   3.191  0.7819 -0.2693 -1.6717
 5500SOL     OW16943   3.699   5.096   0.590  0.1831  1.0268 -0.0981
 5500SOL    HW116944   3.741   5.009   0.588  1.7388  1.7176  0.5487
 5500SOL    HW216945   3.606   5.078   0.577  0.2363 -0.8997  1.6645
 5501SOL     OW16946   3.111   2.520   6.055 -0.3330  0.2004 -0.4143
 5501SOL    HW116947   3.040   2.492   6.112  1.0767 -0.3779  1.1487
 5501SOL    HW216948   3.177   2.451   6.064  1.2972  1.7189 -0.1492
 5502SOL     OW16949   4.479   2.804   0.274 -0.4244 -0.0613 -0.6738
 5502SOL    HW116950   4.431   2.724   0.253 -0.7773 -0.4644  1.4221
 5502SOL    HW216951   4.411   2.867   0.300  0.0375 -0.7288  2.6083
 5503SOL     OW16952   2.079   2.257   1.795  0.2692 -0.6687  0.5225
 5503SOL    HW116953   2.155   2.308   1.823  0.3927 -0.4713 -0.1672
 5503SOL    HW216954   2.005   2.317   1.805  0.6040  0.2133 -1.7688
 5504SOL     OW16955   6.004   3.387   3.470 -0.3261  0.4940 -0.2171
 5504SOL    HW116956   6.062   3.311   3.468  0.4451  1.0887 -1.0134
 5504SOL    HW216957   5.935   3.366   3.406 -1.2365 -0.3795  1.0089
 5505SOL     OW16958   0.698   0.022   4.351 -0.1594  0.0435 -0.0014
 5505SOL    HW116959   0.783   0.030   4.308  0.6793 -1.9029  1.1639
 5505SOL    HW216960   0.661   0.110   4.346  1.5138  0.7401 -1.3317
 5506SOL     OW16961   0.618   2.555   1.024  0.1365  0.2688  0.3005
 5506SOL    HW116962   0.596   2.643   0.993  0.3632  0.2891  0.1989
 5506SOL    HW216963   0.668   2.569   1.105  1.0403  0.2668 -0.2416
 5507SOL     OW16964   5.441   1.818   2.878 -0.3198  0.0727  0.2720
 5507SOL    HW116965   5.404   1.801   2.964  1.1394  1.5962  1.2732
 5507SOL    HW216966   5.410   1.906   2.856  0.0495  0.0529 -0.3476
 5508SOL     OW16967   0.676   5.738   4.436 -0.4829  0.5155  0.7996
 5508SOL    HW116968   0.648   5.741   4.527 -0.7701 -1.1660  0.7826
 5508SOL    HW216969   0.596   5.718   4.387  0.0509 -0.7133  0.3961
 5509SOL     OW16970   2.048   1.344   1.155  0.4048  0.0339  0.1320
 5509SOL    HW116971   1.954   1.344   1.134  0.1317  1.7457  1.1278
 5509SOL    HW216972   2.054   1.300   1.240  0.8045 -1.8497 -0.8089
 5510SOL     OW16973   0.567   5.014   1.471 -0.3134 -0.6521 -0.6271
 5510SOL    HW116974   0.590   4.995   1.562  0.9218  0.9333 -0.5479
 5510SOL    HW216975   0.644   4.987   1.420 -0.2396  0.1201 -0.9575
 5511SOL     OW16976   0.283   2.178   0.839 -0.1132 -0.0768 -0.0592
 5511SOL    HW116977   0.336   2.199   0.916 -0.2092 -0.3652  0.0890
 5511SOL    HW216978   0.197   2.216   0.859 -0.3745 -0.8559  0.3436
 5512SOL     OW16979   2.926   4.444   0.942  0.2558 -0.1507  0.2099
 5512SOL    HW116980   2.918   4.491   1.025  0.5215  0.8115 -0.2877
 5512SOL    HW216981   3.019   4.423   0.935  0.4306  0.7236 -0.3240
 5513SOL     OW16982   1.403   0.859   0.443 -0.1236  0.2866 -0.2350
 5513SOL    HW116983   1.496   0.835   0.452 -0.1752  0.3744  0.6235
 5513SOL    HW216984   1.394   0.886   0.352  0.8915  1.0954 -0.1100
 5514SOL     OW16985   5.458   5.525   0.595 -0.2131 -0.2533 -0.3305
 5514SOL    HW116986   5.438   5.608   0.551 -0.3269 -0.6839 -1.0978
 5514SOL    HW216987   5.551   5.512   0.580 -0.2983 -0.5127 -0.6307
 5515SOL     OW16988   4.961   0.106   0.561 -0.3929  0.3716  0.4859
 5515SOL    HW116989   5.036   0.080   0.508 -0.4241  0.5913  0.3305
 5515SOL    HW216990   4.974   0.200   0.576 -1.0389  0.5840 -0.2132
 5516SOL     OW16991   0.097   0.067   5.695  0.0264  0.3175  0.2746
 5516SOL    HW116992   0.022   0.060   5.636  0.8554 -0.3879 -0.7399
 5516SOL    HW216993   0.074   0.010   5.769 -0.0339 -0.7091 -0.5067
 5517SOL     OW16994   5.192   0.404   0.895  0.3082  0.5987  0.4361
 5517SOL    HW116995   5.168   0.394   0.803 -1.7486  0.3106  0.9614
 5517SOL    HW216996   5.127   0.465   0.930  0.7398  0.3000  1.8229
 5518SOL     OW16997   2.454   2.942   5.048 -0.3591  0.2551 -0.2341
 5518SOL    HW116998   2.424   2.899   5.128  0.8675 -0.4830 -0.1401
 5518SOL    HW216999   2.453   2.873   4.982 -2.0127  1.0160 -1.0670
 5519SOL     OW17000   0.959   1.202   0.130 -0.5398  0.5469  0.1567
 5519SOL    HW117001   1.045   1.162   0.126 -0.6216  0.4274 -0.4829
 5519SOL    HW217002   0.931   1.209   0.039 -0.9205  1.2076  0.3142
 5520SOL     OW17003   5.685   4.075   1.301 -0.3829 -0.0450 -0.5985
 5520SOL    HW117004   5.644   4.160   1.288 -0.1195  0.1945  0.0979
 5520SOL    HW217005   5.621   4.024   1.350  0.2765  0.4634  0.8502
 5521SOL     OW17006   2.005   2.107   1.225  0.4722 -0.0575  0.1807
 5521SOL    HW117007   2.074   2.159   1.265 -0.7298  0.1832  2.1245
 5521SOL    HW217008   1.973   2.160   1.152  0.4868  1.1323  1.0079
 5522SOL     OW17009   4.231   2.069   0.968 -0.1030  0.1416  0.1449
 5522SOL    HW117010   4.156   2.129   0.958  0.9619  1.2982 -1.4393
 5522SOL    HW217011   4.301   2.125   1.001  0.4807 -0.6109  0.1923
 5523SOL     OW17012   1.830   2.135   0.293  0.2329  0.1551  0.2916
 5523SOL    HW117013   1.869   2.221   0.285 -0.4692  0.4987  0.4696
 5523SOL    HW217014   1.835   2.098   0.205  0.6199  0.3381  0.2354
 5524SOL     OW17015   0.319   3.424   0.602 -0.2411 -0.0253 -0.2185
 5524SOL    HW117016   0.297   3.364   0.530  0.1025 -2.6945  1.7322
 5524SOL    HW217017   0.375   3.372   0.660  2.4034  3.1016  0.3237
 5525SOL     OW17018   2.524   3.115   2.310  0.3144 -0.1922 -0.0959
 5525SOL    HW117019   2.509   3.039   2.253  0.5812 -0.9954  0.8831
 5525SOL    HW217020   2.456   3.107   2.377  0.7037  0.1141  0.3357
 5526SOL     OW17021   1.007   1.064   0.890 -0.0132  0.0323  0.1512
 5526SOL    HW117022   0.971   1.102   0.970  0.3615  0.4843  0.1066
 5526SOL    HW217023   1.079   1.008   0.921  0.2979  0.4099  0.1082
 5527SOL     OW17024   2.283   4.480   6.123 -0.0134  0.0676 -0.3993
 5527SOL    HW117025   2.378   4.479   6.129  0.1827 -0.1975 -2.7245
 5527SOL    HW217026   2.263   4.553   6.065 -1.2228 -0.0515 -0.1661
 5528SOL     OW17027   1.225   3.385   4.810 -0.5736 -0.7740 -0.3556
 5528SOL    HW117028   1.205   3.449   4.879 -0.6831 -1.8558  0.6623
 5528SOL    HW217029   1.240   3.437   4.732  0.1871  0.5378  0.6338
 5529SOL     OW17030   2.046   0.105   5.073 -0.5501  0.0333 -0.2175
 5529SOL    HW117031   2.095   0.042   5.020  0.0975  1.0181 -0.8080
 5529SOL    HW217032   2.097   0.185   5.068 -0.2790  0.0725  2.2049
 5530SOL     OW17033   4.641   1.351   2.460 -0.6043 -0.0140  0.2618
 5530SOL    HW117034   4.578   1.357   2.532 -2.3288 -0.5075 -1.1446
 5530SOL    HW217035   4.654   1.257   2.448 -1.6067 -0.0044 -1.0993
 5531SOL     OW17036   4.334   0.162   0.962 -0.4103  0.2569  0.6063
 5531SOL    HW117037   4.361   0.254   0.959 -0.6497  0.3067 -0.1172
 5531SOL    HW217038   4.408   0.117   1.002 -0.0704  0.6884  0.4709
 5532SOL     OW17039   4.785   4.013   2.540 -0.2909  0.6325 -0.1550
 5532SOL    HW117040   4.816   4.023   2.449 -2.7531  1.9364 -0.9330
 5532SOL    HW217041   4.805   3.922   2.562  0.0466  0.1738 -2.1480
 5533SOL     OW17042   4.407   1.784   3.292  0.1209  0.3542 -0.3489
 5533SOL    HW117043   4.335   1.799   3.231  0.6609  1.0057 -0.8376
 5533SOL    HW217044   4.471   1.734   3.242 -0.2410 -0.7967  0.2776
 5534SOL     OW17045   5.230   4.935   1.204 -0.3053  0.4640 -0.0288
 5534SOL    HW117046   5.168   4.980   1.147 -0.7172 -1.8306 -1.5303
 5534SOL    HW217047   5.296   4.900   1.144  0.0923 -0.7359  1.0661
 5535SOL     OW17048   4.400   4.042   1.517  0.2409 -0.2879 -0.4271
 5535SOL    HW117049   4.315   4.031   1.472  0.4830 -1.2321 -0.6793
 5535SOL    HW217050   4.403   3.971   1.580  0.7547 -0.1243 -0.2641
 5536SOL     OW17051   6.092   5.551   2.981 -0.1178  0.0037 -0.4035
 5536SOL    HW117052   6.030   5.574   2.912  0.3151 -0.8483 -1.1029
 5536SOL    HW217053   6.153   5.490   2.939  1.6002  1.3036  0.0638
 5537SOL     OW17054   4.610   3.419   3.634 -0.5184 -0.0516  0.5818
 5537SOL    HW117055   4.691   3.387   3.675  0.2110 -0.3653 -1.0175
 5537SOL    HW217056   4.575   3.342   3.588 -0.0546  0.7748 -1.2658
 5538SOL     OW17057   4.252   4.367   3.289  0.3459  0.1425  0.0402
 5538SOL    HW117058   4.232   4.425   3.216 -3.3372  2.5463  2.5929
 5538SOL    HW217059   4.175   4.312   3.298  0.1744  0.6863  2.6955
 5539SOL     OW17060   2.619   1.119   1.939 -0.2120 -0.4418 -0.1034
 5539SOL    HW117061   2.597   1.119   2.032 -0.8462 -1.0386 -0.2529
 5539SOL    HW217062   2.540   1.088   1.895 -0.6502  1.7710 -1.0296
 5540SOL     OW17063   5.250   5.956   3.854  0.5427 -0.2681  0.5122
 5540SOL    HW117064   5.240   6.046   3.885  1.4606  0.1818 -0.4191
 5540SOL    HW217065   5.208   5.902   3.921  0.8236  0.7813  1.5632
 5541SOL     OW17066   5.592   5.304   1.089 -0.3628  0.0445  0.3613
 5541SOL    HW117067   5.596   5.250   1.167 -2.1361 -0.6537  0.0118
 5541SOL    HW217068   5.545   5.251   1.025  0.8967  0.6595 -1.1444
 5542SOL     OW17069   0.237   0.741   3.009 -0.2778  0.0630 -0.4741
 5542SOL    HW117070   0.305   0.705   2.952  0.3324 -0.3230  0.4652
 5542SOL    HW217071   0.182   0.665   3.030  1.5332 -0.6322  2.2470
 5543SOL     OW17072   6.039   0.379   1.212  0.1638  0.4021 -0.0686
 5543SOL    HW117073   6.069   0.462   1.176 -0.8330 -0.1730 -2.4521
 5543SOL    HW217074   5.949   0.396   1.240 -0.1402  0.1100 -0.8181
 5544SOL     OW17075   0.651   5.013   1.728 -0.5326 -0.0005  0.0977
 5544SOL    HW117076   0.650   4.931   1.776 -2.1250  0.3865  0.7988
 5544SOL    HW217077   0.709   5.070   1.778  1.2193 -0.8814 -0.8194
 5545SOL     OW17078   1.137   0.239   4.079  0.3423 -0.1035 -0.1929
 5545SOL    HW117079   1.185   0.165   4.042 -0.2821 -0.1953 -0.8378
 5545SOL    HW217080   1.203   0.289   4.127  0.6594 -1.3762  0.7290
 5546SOL     OW17081   1.943   3.740   4.965  0.1106  0.2147  0.0774
 5546SOL    HW117082   1.969   3.648   4.952  0.3354  0.5785 -2.5986
 5546SOL    HW217083   1.998   3.789   4.905 -1.0211  1.9724  0.4076
 5547SOL     OW17084   4.868   1.663   5.122 -0.4212 -0.0977 -0.5422
 5547SOL    HW117085   4.948   1.692   5.078 -0.4777 -2.3004 -2.2519
 5547SOL    HW217086   4.844   1.582   5.077 -2.2242 -0.8473  1.6188
 5548SOL     OW17087   2.318   0.100   3.812 -0.7989 -0.6535  0.1781
 5548SOL    HW117088   2.339   0.193   3.823 -1.3528 -0.4943 -0.0656
 5548SOL    HW217089   2.402   0.059   3.794 -0.3538 -0.4034  1.5783
 5549SOL     OW17090   1.811   2.350   5.804 -0.1381  0.1482  0.4663
 5549SOL    HW117091   1.746   2.401   5.754 -0.3563  1.5379  2.0602
 5549SOL    HW217092   1.877   2.325   5.739 -2.2609 -1.3758 -1.2256
 5550SOL     OW17093   3.862   2.216   5.063  0.6446 -0.3222  0.3423
 5550SOL    HW117094   3.840   2.136   5.113 -0.0903 -0.5741 -0.3689
 5550SOL    HW217095   3.903   2.273   5.128  0.9058 -1.1626  0.9391
 5551SOL     OW17096   3.921   4.339   4.206  0.0781 -0.3162  0.0886
 5551SOL    HW117097   3.991   4.380   4.256 -0.3125  1.0187 -0.4195
 5551SOL    HW217098   3.951   4.249   4.192 -0.3199 -1.1862  3.7500
 5552SOL     OW17099   0.918   0.127   4.191  0.0934 -0.2748  0.2397
 5552SOL    HW117100   0.891   0.082   4.110 -0.9259  1.3391 -0.3730
 5552SOL    HW217101   1.002   0.166   4.169 -1.3915  2.4714 -1.0840
 5553SOL     OW17102   5.623   0.503   3.900 -0.0785 -0.7893 -0.4143
 5553SOL    HW117103   5.604   0.596   3.909 -0.0896 -0.8756  0.6267
 5553SOL    HW217104   5.687   0.498   3.830 -0.4170 -0.0437 -0.7877
 5554SOL     OW17105   2.402   1.069   6.058  0.2305  0.0457 -0.3993
 5554SOL    HW117106   2.394   1.128   5.984  0.7892 -0.7912 -1.1540
 5554SOL    HW217107   2.443   1.122   6.127  0.1459  0.6996 -0.8444
 5555SOL     OW17108   0.789   5.436   5.989 -0.3430 -1.4770 -0.8417
 5555SOL    HW117109   0.743   5.365   5.945 -1.5274 -1.6956  0.6686
 5555SOL    HW217110   0.721   5.497   6.016  0.5116 -0.5115 -0.7898
 5556SOL     OW17111   5.254   0.658   5.912  0.2222 -0.0168 -0.0453
 5556SOL    HW117112   5.322   0.601   5.948  0.3886  0.7534  0.8980
 5556SOL    HW217113   5.255   0.735   5.968 -0.8862  0.3598 -0.5109
 5557SOL     OW17114   0.249   3.807   1.507 -0.0969 -0.1174  0.2758
 5557SOL    HW117115   0.155   3.802   1.492 -0.0409  0.1998 -0.1871
 5557SOL    HW217116   0.261   3.882   1.565 -0.0288  0.5128 -0.5463
 5558SOL     OW17117   2.000   5.779   1.937 -0.6166  0.3254 -0.2119
 5558SOL    HW117118   1.959   5.817   1.859  2.7324  0.3911 -2.1071
 5558SOL    HW217119   2.076   5.834   1.954  0.8959 -1.9065  0.7459
 5559SOL     OW17120   2.655   4.797   3.760 -0.4662 -0.0046  0.3371
 5559SOL    HW117121   2.562   4.814   3.754 -0.2874  1.2530  0.8268
 5559SOL    HW217122   2.686   4.857   3.828  0.7027 -0.3722  0.1527
 5560SOL     OW17123   3.192   5.226   2.847 -0.3625  0.1531  0.2838
 5560SOL    HW117124   3.259   5.295   2.843 -1.6362  1.4424  0.2037
 5560SOL    HW217125   3.164   5.214   2.757  2.8668 -3.7251 -0.4753
 5561SOL     OW17126   3.218   0.376   1.487  0.9700 -0.5431 -0.6186
 5561SOL    HW117127   3.288   0.370   1.552  1.0601 -0.9800 -0.7516
 5561SOL    HW217128   3.161   0.302   1.507  1.3690 -1.0967 -1.4611
 5562SOL     OW17129   0.443   3.880   2.314  0.3338  0.1725  0.5293
 5562SOL    HW117130   0.432   3.839   2.228 -0.9359  0.9318  0.2957
 5562SOL    HW217131   0.370   3.942   2.320 -2.2631 -2.7323  3.8331
 5563SOL     OW17132   2.737   4.317   3.755  0.3633  0.6071 -0.2408
 5563SOL    HW117133   2.645   4.333   3.774  0.4117  0.9337 -0.2756
 5563SOL    HW217134   2.751   4.357   3.669  0.8127  1.5742  0.2683
 5564SOL     OW17135   3.468   1.126   3.175  0.4291  0.4109 -0.1550
 5564SOL    HW117136   3.528   1.165   3.238  1.0040  0.2992 -0.6253
 5564SOL    HW217137   3.427   1.053   3.222 -2.2264  2.7269  1.4529
 5565SOL     OW17138   5.533   6.053   3.565 -0.0110 -0.5601  0.1856
 5565SOL    HW117139   5.478   6.129   3.542 -0.0540 -0.1643  1.4938
 5565SOL    HW217140   5.613   6.065   3.514  0.1453  0.6111  0.6568
 5566SOL     OW17141   4.953   3.980   5.790 -0.1985  0.7464  0.6044
 5566SOL    HW117142   4.976   3.909   5.849  1.5212 -0.0402 -0.9271
 5566SOL    HW217143   5.036   4.012   5.755 -1.1019  1.2578 -1.2829
 5567SOL     OW17144   4.300   1.199   5.556  0.5501 -0.2469 -0.6077
 5567SOL    HW117145   4.363   1.269   5.538  0.7325 -0.3504 -0.3714
 5567SOL    HW217146   4.310   1.138   5.483 -0.9663  0.9134 -1.8692
 5568SOL     OW17147   5.932   1.437   1.283  0.4566  0.6244 -0.7385
 5568SOL    HW117148   5.904   1.435   1.191  1.0358 -0.4127 -0.9042
 5568SOL    HW217149   5.852   1.415   1.332  0.4349 -0.0924 -1.0755
 5569SOL     OW17150   1.786   4.335   0.550 -0.4812  0.0983 -0.0698
 5569SOL    HW117151   1.725   4.327   0.623 -0.1743 -1.7455  0.0135
 5569SOL    HW217152   1.863   4.285   0.577 -0.0827 -0.0345 -1.3636
 5570SOL     OW17153   6.011   5.348   4.883 -0.1541  0.1007 -0.2787
 5570SOL    HW117154   6.040   5.422   4.829 -0.4199 -1.0426 -2.0912
 5570SOL    HW217155   5.916   5.359   4.890 -0.5074 -1.1248 -2.3561
 5571SOL     OW17156   3.966   2.509   4.300  0.0949 -0.0825  0.0748
 5571SOL    HW117157   3.966   2.472   4.211  0.0702 -0.4096  0.2076
 5571SOL    HW217158   3.874   2.505   4.327  0.1781 -0.4853  0.3152
 5572SOL     OW17159   5.964   5.697   1.180 -0.5588  0.0278  0.5213
 5572SOL    HW117160   5.901   5.640   1.223 -1.1281  0.5542  0.3959
 5572SOL    HW217161   5.958   5.675   1.087 -0.0663 -0.3970  0.5903
 5573SOL     OW17162   4.098   0.113   3.719 -0.4167  0.4077 -0.1777
 5573SOL    HW117163   4.104   0.084   3.628  1.6206  0.7147 -0.1897
 5573SOL    HW217164   4.140   0.043   3.769  1.1327  1.5395  0.1874
 5574SOL     OW17165   3.100   5.261   1.795  0.4728 -0.5178  0.2161
 5574SOL    HW117166   3.017   5.262   1.844  0.9947 -0.9831  1.1353
 5574SOL    HW217167   3.166   5.241   1.861  1.5558  1.5393 -0.1862
 5575SOL     OW17168   5.391   5.404   0.864 -0.1870  0.2069 -0.2503
 5575SOL    HW117169   5.378   5.409   0.769  1.3378  2.5954 -0.4123
 5575SOL    HW217170   5.473   5.451   0.880 -1.0637  1.0172  2.4000
 5576SOL     OW17171   3.005   4.154   4.720  0.7584  0.3427 -0.4100
 5576SOL    HW117172   3.089   4.151   4.766  0.9349 -0.1348 -0.7535
 5576SOL    HW217173   2.993   4.247   4.699 -0.3316  0.9593  2.4076
 5577SOL     OW17174   4.618   2.606   4.042  0.4434 -0.3190 -0.6648
 5577SOL    HW117175   4.644   2.697   4.052  1.7571 -0.9169  2.6392
 5577SOL    HW217176   4.523   2.607   4.052  0.5441  0.5939  0.3332
 5578SOL     OW17177   0.174   3.581   4.121 -0.4533 -0.4007  0.4210
 5578SOL    HW117178   0.133   3.581   4.208 -0.8952 -1.4077  0.2299
 5578SOL    HW217179   0.100   3.590   4.060 -0.3227 -1.4223  0.0992
 5579SOL     OW17180   2.188   0.808   3.831 -0.1336 -0.2557  0.6456
 5579SOL    HW117181   2.142   0.890   3.843 -1.8337 -0.9757 -0.5662
 5579SOL    HW217182   2.191   0.795   3.736  1.4717 -0.8729  0.7329
 5580SOL     OW17183   5.061   1.678   5.380  0.2146  0.5954 -0.2186
 5580SOL    HW117184   5.134   1.713   5.431  0.1755  1.5693 -0.7966
 5580SOL    HW217185   5.020   1.756   5.340 -1.5592  0.1492  0.6278
 5581SOL     OW17186   1.998   3.241   6.097 -0.0407 -0.0195  0.1971
 5581SOL    HW117187   2.073   3.288   6.134 -0.0074 -0.2559  0.4359
 5581SOL    HW217188   1.974   3.291   6.019 -1.0138  1.3293  1.2931
 5582SOL     OW17189   1.476   3.665   1.086  0.3261 -0.1938  0.5257
 5582SOL    HW117190   1.485   3.742   1.142 -0.1223  1.7886 -1.9401
 5582SOL    HW217191   1.482   3.590   1.146  0.8726  1.7267  3.0208
 5583SOL     OW17192   2.747   1.778   0.726  0.6764  0.8348 -0.0916
 5583SOL    HW117193   2.766   1.871   0.732 -0.0175  1.0062 -0.5016
 5583SOL    HW217194   2.695   1.769   0.646  1.1917  0.0214 -0.3555
 5584SOL     OW17195   2.286   3.734   4.301 -0.1294 -0.1461  0.6821
 5584SOL    HW117196   2.310   3.686   4.222 -0.5854 -1.6740  1.4202
 5584SOL    HW217197   2.202   3.775   4.280 -0.0774 -0.2453  0.2723
 5585SOL     OW17198   1.634   1.660   5.827  0.7704 -0.2496  0.0376
 5585SOL    HW117199   1.630   1.749   5.863  0.3191 -0.8447  1.5387
 5585SOL    HW217200   1.697   1.615   5.882  2.1507 -0.4904 -1.6552
 5586SOL     OW17201   4.677   5.119   1.259 -0.4554  0.0601 -0.0193
 5586SOL    HW117202   4.587   5.087   1.252 -0.3655 -1.0743  2.8067
 5586SOL    HW217203   4.690   5.134   1.352  2.7764 -1.3582 -0.1015
 5587SOL     OW17204   5.723   4.818   3.389  0.3092  0.3891  0.1483
 5587SOL    HW117205   5.666   4.845   3.317 -2.4775  0.1262  2.1056
 5587SOL    HW217206   5.711   4.724   3.396  0.3671  0.4400  1.0860
 5588SOL     OW17207   3.255   3.342   3.503  0.3540 -0.3656  0.0907
 5588SOL    HW117208   3.330   3.390   3.540 -0.5246  0.4471  0.8636
 5588SOL    HW217209   3.225   3.397   3.430 -0.6086  0.2460  0.9304
 5589SOL     OW17210   3.243   2.017   0.758  0.1660  0.8077  0.1937
 5589SOL    HW117211   3.153   2.052   0.759  0.6535  2.0996  0.1108
 5589SOL    HW217212   3.285   2.061   0.684  0.7744 -0.0483  0.0253
 5590SOL     OW17213   5.546   3.007   3.688  0.2827 -0.3957  0.2634
 5590SOL    HW117214   5.560   2.975   3.777 -1.2455 -1.6675  0.1063
 5590SOL    HW217215   5.571   2.933   3.632  0.8002  0.2307 -0.3425
 5591SOL     OW17216   3.973   2.673   3.475 -0.2011 -0.0608 -0.7093
 5591SOL    HW117217   3.910   2.602   3.465  0.6856 -0.7431 -1.6232
 5591SOL    HW217218   4.058   2.629   3.481  0.2311  0.8604  0.1656
 5592SOL     OW17219   0.013   4.924   0.200  0.0428 -0.1405  0.1225
 5592SOL    HW117220   0.010   5.015   0.169  0.4253 -0.4918 -1.0029
 5592SOL    HW217221  -0.077   4.893   0.194 -0.1784  0.3292  1.0208
 5593SOL     OW17222   2.706   1.692   0.461  0.0811 -0.2792  0.2024
 5593SOL    HW117223   2.770   1.720   0.395 -0.2456 -0.9471 -0.4166
 5593SOL    HW217224   2.625   1.737   0.435 -0.1668 -0.9154 -0.1419
 5594SOL     OW17225   4.075   1.611   2.545 -0.1981 -0.1655 -0.1615
 5594SOL    HW117226   4.092   1.517   2.549 -0.7913 -0.2496  0.6108
 5594SOL    HW217227   4.016   1.628   2.618  0.7371  1.0026  0.3583
 5595SOL     OW17228   0.919   3.684   4.785 -0.8646 -0.0235  0.6035
 5595SOL    HW117229   0.935   3.747   4.855 -0.7975  2.5894 -1.5874
 5595SOL    HW217230   1.005   3.666   4.747 -1.1387  0.5703 -0.3457
 5596SOL     OW17231   3.290   1.298   1.829  0.2532 -0.1008  0.1331
 5596SOL    HW117232   3.265   1.361   1.896 -0.5013  1.7750 -1.7611
 5596SOL    HW217233   3.209   1.251   1.808  0.3909 -0.3970  0.2641
 5597SOL     OW17234   4.102   2.238   0.420 -0.3394 -0.4577  0.3549
 5597SOL    HW117235   4.173   2.278   0.470 -0.6516  1.0861 -0.4051
 5597SOL    HW217236   4.136   2.232   0.330 -0.8848 -0.4590  0.1464
 5598SOL     OW17237   2.778   2.419   2.097 -0.4065  0.2578 -0.2286
 5598SOL    HW117238   2.749   2.356   2.030 -0.3242  0.2436 -0.2505
 5598SOL    HW217239   2.722   2.495   2.084 -0.7793  0.0370  0.0555
 5599SOL     OW17240   0.566   3.095   3.184  0.6624 -0.0663 -0.1410
 5599SOL    HW117241   0.613   3.012   3.174 -0.0772 -0.4104 -0.9307
 5599SOL    HW217242   0.593   3.147   3.109 -1.0328 -0.6979 -1.2446
 5600SOL     OW17243   5.302   0.855   3.190  0.1715  0.7271 -0.5743
 5600SOL    HW117244   5.234   0.915   3.160 -2.6911 -0.8672  2.1478
 5600SOL    HW217245   5.261   0.769   3.189  2.3707 -0.4391  0.5995
 5601SOL     OW17246   5.045   1.081   0.044 -0.0729  0.2775 -0.5180
 5601SOL    HW117247   5.119   1.142   0.051 -0.6154  0.8390  0.6565
 5601SOL    HW217248   5.077   1.011  -0.013  1.3479  0.5245 -0.0727
 5602SOL     OW17249   2.976   1.194   4.825 -0.0902  0.2867  0.0466
 5602SOL    HW117250   2.975   1.174   4.918  0.4728 -0.8079 -0.1759
 5602SOL    HW217251   3.002   1.113   4.782 -0.9985  0.5722 -1.1228
 5603SOL     OW17252   5.241   4.989   2.835  0.4099  0.1555 -0.2122
 5603SOL    HW117253   5.280   4.916   2.786  0.6116 -0.5003  0.8974
 5603SOL    HW217254   5.196   5.041   2.769 -0.7355 -1.5998 -0.8913
 5604SOL     OW17255   4.309   0.090   2.511  0.3613  0.2964 -0.1552
 5604SOL    HW117256   4.396   0.126   2.500  0.6754 -0.2453  0.5042
 5604SOL    HW217257   4.316  -0.001   2.481 -0.6521  0.9746 -2.7451
 5605SOL     OW17258   3.586   4.849   3.358 -0.4244  0.5484  0.0801
 5605SOL    HW117259   3.561   4.756   3.356 -0.6418  0.5295  1.6464
 5605SOL    HW217260   3.670   4.853   3.313  0.6645 -0.8204  1.8116
 5606SOL     OW17261   5.524   4.119   4.223  0.3138  0.2515  0.0249
 5606SOL    HW117262   5.564   4.045   4.178  1.3212  0.1733  1.0072
 5606SOL    HW217263   5.434   4.121   4.190 -0.1447 -2.2198  0.9481
 5607SOL     OW17264   3.758   1.432   2.945  0.1855 -0.4807 -0.0141
 5607SOL    HW117265   3.672   1.468   2.965  0.3732 -1.0333  1.9337
 5607SOL    HW217266   3.741   1.343   2.915  0.0882 -0.7425  0.7970
 5608SOL     OW17267   2.383   6.020   2.981  0.1224 -0.3852 -0.1670
 5608SOL    HW117268   2.417   5.945   3.029  0.8679  0.5660  0.8618
 5608SOL    HW217269   2.309   6.050   3.033  1.1628  0.8807  0.6414
 5609SOL     OW17270   1.648   3.895   3.995 -0.6802  0.2158 -0.3990
 5609SOL    HW117271   1.644   3.870   3.903  0.4241 -0.7387 -0.2123
 5609SOL    HW217272   1.712   3.835   4.034 -0.2376  1.3718  0.7460
 5610SOL     OW17273   5.257   4.077   3.998 -0.2708  0.1609 -0.1569
 5610SOL    HW117274   5.295   4.045   3.916  0.2850  0.1297  0.1073
 5610SOL    HW217275   5.232   4.167   3.979 -0.0291  0.1938 -0.3297
 5611SOL     OW17276   0.980   1.416   0.348  0.1657  0.1813  0.0520
 5611SOL    HW117277   0.917   1.418   0.420 -2.0016  2.4425 -1.7360
 5611SOL    HW217278   0.939   1.363   0.280  0.0660  1.7147 -1.1623
 5612SOL     OW17279   1.919   1.025   0.015  0.1400  0.2613  0.4877
 5612SOL    HW117280   1.857   1.086  -0.024  1.2000  0.6810 -0.5588
 5612SOL    HW217281   1.992   1.079   0.044 -0.1620 -0.1632  2.1926
 5613SOL     OW17282   2.880   5.945   2.906  0.1838 -0.4744 -0.2583
 5613SOL    HW117283   2.919   5.868   2.866  0.0929  0.1924 -1.6852
 5613SOL    HW217284   2.952   5.987   2.953  0.0043 -1.9762  1.4959
 5614SOL     OW17285   4.016   4.869   5.209  0.0103 -0.3380 -0.0782
 5614SOL    HW117286   4.059   4.873   5.294 -0.9717 -1.9846  0.5381
 5614SOL    HW217287   4.053   4.792   5.166 -1.8088 -1.4573  0.2312
 5615SOL     OW17288   5.103   1.465   2.358 -0.2752 -0.5526  0.0806
 5615SOL    HW117289   5.198   1.459   2.347 -0.3895 -0.3080 -1.2272
 5615SOL    HW217290   5.090   1.474   2.452  1.1600  2.3063  0.1197
 5616SOL     OW17291   0.047   3.159   3.598 -0.3965  0.1536  0.2141
 5616SOL    HW117292   0.132   3.115   3.607 -0.4327  0.1691  0.6692
 5616SOL    HW217293   0.034   3.202   3.683  0.6536  2.9133 -0.9227
 5617SOL     OW17294   5.361   0.677   5.661 -0.5308 -0.1940 -0.3768
 5617SOL    HW117295   5.325   0.653   5.746 -1.3996 -2.3952 -1.3104
 5617SOL    HW217296   5.285   0.706   5.610 -0.9783 -3.7387 -1.9712
 5618SOL     OW17297   5.957   0.126   2.744 -0.1903  0.1686 -0.7847
 5618SOL    HW117298   5.899   0.050   2.737  0.2664 -0.6437  2.3641
 5618SOL    HW217299   5.898   0.198   2.766 -0.4007  0.2372 -1.5634
 5619SOL     OW17300   4.768   2.282   5.349  0.5984 -0.6293 -0.4141
 5619SOL    HW117301   4.777   2.368   5.308  0.2180 -0.0436  0.7118
 5619SOL    HW217302   4.856   2.245   5.347  0.5061 -0.8716 -2.2587
 5620SOL     OW17303   2.658   3.858   5.491 -0.0959  0.0400  0.3640
 5620SOL    HW117304   2.685   3.801   5.563  2.4607  0.1417 -0.4376
 5620SOL    HW217305   2.732   3.858   5.431 -1.6757  0.9272 -1.7005
 5621SOL     OW17306   2.343   3.847   2.760  0.3499 -0.8398 -0.3763
 5621SOL    HW117307   2.403   3.847   2.835 -0.6720 -3.0599  0.5545
 5621SOL    HW217308   2.371   3.772   2.707 -1.3012 -1.6876 -0.1158
 5622SOL     OW17309   3.892   3.660   0.164  0.5646  0.2360 -0.4672
 5622SOL    HW117310   3.950   3.657   0.241  0.6485  0.7629 -0.5075
 5622SOL    HW217311   3.863   3.751   0.160  1.9350  0.6549 -2.0665
 5623SOL     OW17312   0.214   2.899   5.553 -0.1369  0.2962 -0.1416
 5623SOL    HW117313   0.155   2.838   5.598 -0.4151 -0.0276 -0.9364
 5623SOL    HW217314   0.161   2.977   5.538 -0.5689 -0.2183 -1.3999
 5624SOL     OW17315   1.315   2.923   5.409  0.2295 -0.3846  0.2234
 5624SOL    HW117316   1.349   2.833   5.411  1.8545  0.2042  1.8419
 5624SOL    HW217317   1.373   2.969   5.348 -0.9712 -0.5265 -1.0706
 5625SOL     OW17318   5.480   0.897   0.525 -0.7663 -0.0200 -0.4121
 5625SOL    HW117319   5.512   0.913   0.613 -0.6498  0.0189 -0.4612
 5625SOL    HW217320   5.448   0.807   0.526 -0.7046 -0.0404 -0.3485
 5626SOL     OW17321   0.195   0.032   0.226  0.0027 -0.1304  0.0744
 5626SOL    HW117322   0.153   0.069   0.149  1.6799 -0.4982 -1.0803
 5626SOL    HW217323   0.124  -0.008   0.276 -1.2605  1.0278 -0.7412
 5627SOL     OW17324   4.784   2.582   4.349  0.5587 -0.0770  0.3552
 5627SOL    HW117325   4.727   2.512   4.379 -0.4837  0.3708 -0.5291
 5627SOL    HW217326   4.807   2.630   4.428 -0.4654 -0.1366  0.7041
 5628SOL     OW17327   5.828   3.566   1.907  0.2151 -0.3924  0.8053
 5628SOL    HW117328   5.890   3.586   1.977 -0.1484  0.7849  0.8071
 5628SOL    HW217329   5.763   3.637   1.911  0.3410 -0.1432 -0.8949
 5629SOL     OW17330   2.311   1.045   4.929  0.9182  0.7189 -0.0412
 5629SOL    HW117331   2.370   1.086   4.992  0.4050  0.3260  0.7040
 5629SOL    HW217332   2.227   1.087   4.944  0.4700 -0.3373  0.4856
 5630SOL     OW17333   2.026   4.488   5.817  0.8697 -0.1699  0.2046
 5630SOL    HW117334   2.111   4.475   5.775  0.3092  0.8533 -1.3344
 5630SOL    HW217335   2.040   4.462   5.908  2.6291 -0.7068 -0.1768
 5631SOL     OW17336   2.489   4.795   0.462 -0.2323  0.2151 -0.1864
 5631SOL    HW117337   2.487   4.866   0.526 -1.8505 -0.3742  0.4557
 5631SOL    HW217338   2.405   4.752   0.471  0.1089 -0.8382 -1.6632
 5632SOL     OW17339   0.601   1.086   3.864  0.8742 -0.1840  0.0651
 5632SOL    HW117340   0.566   1.171   3.887  3.1226  0.7874  0.2014
 5632SOL    HW217341   0.530   1.041   3.818 -0.4799  1.6004  0.3463
 5633SOL     OW17342   0.127   5.656   6.108  0.0920  0.6089  0.4616
 5633SOL    HW117343   0.209   5.704   6.102  0.0918  0.8443  2.1178
 5633SOL    HW217344   0.135   5.602   6.186 -0.7710 -0.4565 -0.1527
 5634SOL     OW17345   5.787   2.013   0.947  0.3636 -0.1146  0.4650
 5634SOL    HW117346   5.714   1.998   1.008 -0.2855  1.1690  0.0313
 5634SOL    HW217347   5.745   2.045   0.867  1.4200  1.1407  0.3815
 5635SOL     OW17348   0.424   0.901   4.855 -0.0991 -0.5363  0.0130
 5635SOL    HW117349   0.358   0.954   4.901 -1.0947 -1.9920  0.3088
 5635SOL    HW217350   0.393   0.898   4.765  0.0893 -0.4253 -0.0565
 5636SOL     OW17351   3.169   0.896   1.136 -0.6283  0.1625 -0.4165
 5636SOL    HW117352   3.227   0.903   1.213 -0.4919 -1.0331 -0.3930
 5636SOL    HW217353   3.095   0.952   1.157  1.1658  2.9850 -1.0867
 5637SOL     OW17354   2.759   1.035   4.615  0.0891 -0.9154  0.4447
 5637SOL    HW117355   2.773   1.130   4.606 -2.1641 -0.6129 -0.5148
 5637SOL    HW217356   2.831   1.006   4.670  0.7399  1.3907  0.9383
 5638SOL     OW17357   4.746   2.960   3.296 -0.1798  0.4239  0.0662
 5638SOL    HW117358   4.754   2.936   3.204 -1.6326 -0.9844  0.2640
 5638SOL    HW217359   4.668   3.014   3.300 -0.6822 -0.3299  0.5995
 5639SOL     OW17360   0.524   1.785   1.717  0.0425  0.2455 -0.1697
 5639SOL    HW117361   0.446   1.827   1.681 -0.4800 -0.5124  0.0491
 5639SOL    HW217362   0.584   1.778   1.643 -0.3447  0.2730 -0.4916
 5640SOL     OW17363   0.672   2.489   2.673  0.2052  0.2771 -0.7697
 5640SOL    HW117364   0.619   2.433   2.730  2.4767  0.2979  1.5946
 5640SOL    HW217365   0.650   2.461   2.584 -1.7966 -1.4494  0.1708
 5641SOL     OW17366   0.665   3.325   5.704 -0.4336 -0.1581 -0.7742
 5641SOL    HW117367   0.715   3.405   5.692  1.8803 -1.3854  0.0301
 5641SOL    HW217368   0.668   3.282   5.619  0.0856 -0.3265 -0.6730
 5642SOL     OW17369   1.289   3.868   0.999 -0.2419  0.1952 -0.5428
 5642SOL    HW117370   1.321   3.782   0.971 -0.8065  0.1651 -1.1236
 5642SOL    HW217371   1.352   3.897   1.065  0.3894 -0.3206 -0.9062
 5643SOL     OW17372   4.623   4.873   2.891 -0.2432 -0.4342  0.8719
 5643SOL    HW117373   4.683   4.876   2.965 -0.1304 -0.3517  0.7760
 5643SOL    HW217374   4.677   4.846   2.816 -0.4631 -1.0607  0.9289
 5644SOL     OW17375   1.169   3.614   1.948  0.4985 -0.4615 -0.1271
 5644SOL    HW117376   1.244   3.557   1.932  1.0037 -0.2126  1.2029
 5644SOL    HW217377   1.098   3.553   1.972  0.3630 -0.6682 -1.0045
 5645SOL     OW17378   3.813   4.885   3.166 -0.1593  0.2946 -0.2459
 5645SOL    HW117379   3.751   4.899   3.095 -0.7870  0.2687  0.2929
 5645SOL    HW217380   3.897   4.872   3.122 -0.6222 -0.1904 -1.0060
 5646SOL     OW17381   5.211   1.043   3.621 -0.2726  0.8900  0.0969
 5646SOL    HW117382   5.194   1.072   3.532  1.6890 -0.0776 -0.6559
 5646SOL    HW217383   5.165   0.960   3.629  1.3249 -0.1455 -0.8402
 5647SOL     OW17384   5.612   1.311   4.185 -0.6741 -0.1026  0.2131
 5647SOL    HW117385   5.538   1.276   4.234 -2.4708  2.6767 -0.2873
 5647SOL    HW217386   5.609   1.266   4.101  0.8939 -3.0675  1.6074
 5648SOL     OW17387   3.460   1.462   0.681  0.6627  0.0651 -0.0861
 5648SOL    HW117388   3.497   1.531   0.626 -0.7363 -0.0746 -1.2820
 5648SOL    HW217389   3.496   1.478   0.768  0.7162  2.0445 -0.4247
 5649SOL     OW17390   2.036   4.447   2.269 -0.5047  0.0764  0.3950
 5649SOL    HW117391   2.090   4.375   2.302 -0.5248 -0.7981 -1.3871
 5649SOL    HW217392   2.087   4.526   2.289  0.3027 -0.5558  0.8778
 5650SOL     OW17393   5.516   2.204   3.354  1.1147 -0.0359  0.0505
 5650SOL    HW117394   5.490   2.169   3.269  1.9183 -0.2844 -0.1013
 5650SOL    HW217395   5.497   2.298   3.348  2.2485  0.1480 -0.8301
 5651SOL     OW17396   0.800   1.707   5.377 -0.3112 -0.4998 -0.0070
 5651SOL    HW117397   0.776   1.785   5.427 -1.0137  0.2590 -1.4756
 5651SOL    HW217398   0.791   1.635   5.440 -1.0496  0.4294  0.9964
 5652SOL     OW17399   2.579   4.910   2.194 -0.2570 -0.3509 -0.0155
 5652SOL    HW117400   2.524   4.841   2.157 -0.3944  0.8008 -2.1473
 5652SOL    HW217401   2.625   4.868   2.266  0.0233 -2.8192 -1.4958
 5653SOL     OW17402   4.894   0.434   2.844  0.3086 -0.2969  0.2418
 5653SOL    HW117403   4.828   0.443   2.912  0.1840  0.4560  0.0305
 5653SOL    HW217404   4.932   0.347   2.858 -1.7546 -1.3790 -0.5365
 5654SOL     OW17405   4.169   1.529   4.272  0.0880 -0.3903 -0.1423
 5654SOL    HW117406   4.087   1.555   4.314  0.7297  0.5159  0.5888
 5654SOL    HW217407   4.193   1.447   4.315  1.5063  1.2667  2.4355
 5655SOL     OW17408   3.863   5.813   1.677 -0.1106  0.1315  0.2299
 5655SOL    HW117409   3.895   5.792   1.764 -3.5403 -1.3188  1.3294
 5655SOL    HW217410   3.885   5.737   1.623  0.9882  0.5295  0.0935
 5656SOL     OW17411   0.175   1.156   0.478  0.0692 -0.3394  0.0710
 5656SOL    HW117412   0.180   1.087   0.412  0.8638  0.2631 -0.5385
 5656SOL    HW217413   0.152   1.235   0.428  1.9994  0.4021  0.2595
 5657SOL     OW17414   4.635   5.332   0.856  0.0707  0.1866  0.2931
 5657SOL    HW117415   4.544   5.303   0.856 -0.6404  2.1174  2.3327
 5657SOL    HW217416   4.638   5.404   0.793  0.4524 -0.5323 -0.5238
 5658SOL     OW17417   4.789   3.493   4.960 -0.3201  0.7678 -0.2415
 5658SOL    HW117418   4.720   3.427   4.953  0.8153 -0.5997  0.9103
 5658SOL    HW217419   4.833   3.490   4.875 -0.8142  0.6575 -0.4955
 5659SOL     OW17420   5.068   1.810   4.999 -0.1227  0.0008  0.5239
 5659SOL    HW117421   5.163   1.814   5.007  0.1572  1.1803 -2.4477
 5659SOL    HW217422   5.037   1.891   5.042  0.2530 -0.0213  0.8432
 5660SOL     OW17423   0.848   0.697   3.850 -0.2605  0.2635  0.3066
 5660SOL    HW117424   0.838   0.754   3.926  1.1498  0.8267  0.1033
 5660SOL    HW217425   0.869   0.611   3.886  0.7842  0.6110  0.5830
 5661SOL     OW17426   2.793   3.719   2.474 -0.1482  0.4360 -0.0478
 5661SOL    HW117427   2.710   3.740   2.431 -0.0091 -1.3687 -1.2927
 5661SOL    HW217428   2.853   3.787   2.442 -0.9829  1.4471  0.4493
 5662SOL     OW17429   4.361   1.022   1.815 -0.4138  0.2629  0.1607
 5662SOL    HW117430   4.391   1.014   1.725 -4.3896  0.7661 -1.3978
 5662SOL    HW217431   4.382   1.112   1.840  1.0343  0.0088 -0.0740
 5663SOL     OW17432   2.176   2.331   6.025 -0.1019  0.2745  0.2805
 5663SOL    HW117433   2.223   2.406   6.062  0.9415  1.3402 -2.8758
 5663SOL    HW217434   2.086   2.363   6.014  0.2433  0.9752 -0.6674
 5664SOL     OW17435   3.613   3.483   2.167  0.4564 -0.3338 -0.5773
 5664SOL    HW117436   3.600   3.398   2.125 -0.1613 -0.6610  0.2334
 5664SOL    HW217437   3.665   3.463   2.245  0.3455  0.0380 -0.4053
 5665SOL     OW17438   1.993   1.161   1.368 -0.2475  0.0718  0.2380
 5665SOL    HW117439   1.964   1.219   1.438  1.2329 -2.0572  2.8100
 5665SOL    HW217440   1.914   1.113   1.343 -1.0612  1.7418 -0.5183
 5666SOL     OW17441   0.800   0.894   4.353 -0.4866  0.8287  0.6558
 5666SOL    HW117442   0.870   0.959   4.346  0.3055  0.0682  1.3188
 5666SOL    HW217443   0.836   0.816   4.310 -0.3832  0.0079  2.1641
 5667SOL     OW17444   3.342   2.218   1.817 -0.2602 -0.0756  0.0404
 5667SOL    HW117445   3.287   2.167   1.877 -0.0526  0.0537  0.3430
 5667SOL    HW217446   3.398   2.152   1.775 -0.1093 -0.1217  0.3067
 5668SOL     OW17447   0.148   6.025   0.885 -0.7273 -0.0981  0.4653
 5668SOL    HW117448   0.158   5.930   0.883  1.4418  0.0812  0.7621
 5668SOL    HW217449   0.231   6.057   0.920 -1.3133  1.9308  0.1094
 5669SOL     OW17450   0.153   5.327   0.691  0.3952 -0.2038 -0.0827
 5669SOL    HW117451   0.090   5.362   0.628  2.3034  0.5093 -1.6871
 5669SOL    HW217452   0.177   5.241   0.656  1.5928  0.2685 -0.4650
 5670SOL     OW17453   5.920   5.931   2.354  0.8143 -0.5357  0.1839
 5670SOL    HW117454   5.889   5.885   2.432  0.0857  0.8999  0.7891
 5670SOL    HW217455   5.856   6.001   2.342  1.8338  0.2519 -0.7458
 5671SOL     OW17456   3.918   0.729   5.392  0.9122  0.0814  0.1086
 5671SOL    HW117457   3.945   0.643   5.361  0.9762  0.7379 -1.8440
 5671SOL    HW217458   3.996   0.783   5.383  0.6170  0.5643  0.3909
 5672SOL     OW17459   6.063   4.200   4.478 -0.0650 -0.0129 -0.4038
 5672SOL    HW117460   6.075   4.235   4.566  0.4039  0.6443 -0.7149
 5672SOL    HW217461   6.153   4.187   4.445 -0.2223  0.3917 -1.0189
 5673SOL     OW17462   1.653   3.335   2.174  0.2670 -0.2638  0.4350
 5673SOL    HW117463   1.671   3.420   2.216  0.0812 -1.0908  2.2992
 5673SOL    HW217464   1.582   3.298   2.226  0.9090 -1.9242  0.1651
 5674SOL     OW17465   1.954   2.639   5.808 -0.4011  0.1039  0.4901
 5674SOL    HW117466   2.044   2.631   5.777 -0.3208  1.0425  0.4515
 5674SOL    HW217467   1.931   2.551   5.837  1.2158  0.2163  2.3439
 5675SOL     OW17468   5.329   2.813   4.238  0.0702 -0.0058  0.3981
 5675SOL    HW117469   5.296   2.901   4.220 -1.1279 -0.1031  1.8790
 5675SOL    HW217470   5.330   2.770   4.153 -0.2670  1.1300 -0.2054
 5676SOL     OW17471   3.894   3.581   5.559  0.1868  0.5984 -0.5437
 5676SOL    HW117472   3.816   3.535   5.591  0.6875  0.5154  0.5795
 5676SOL    HW217473   3.869   3.673   5.559  0.6946  0.7794  1.6877
 5677SOL     OW17474   4.433   1.336   0.432  0.2026 -0.3150 -0.3263
 5677SOL    HW117475   4.464   1.253   0.396  1.8182  0.9565 -2.0437
 5677SOL    HW217476   4.347   1.349   0.393 -0.7893 -1.8696  1.1926
 5678SOL     OW17477   5.444   2.153   4.215  0.1561 -0.1881 -0.4213
 5678SOL    HW117478   5.380   2.218   4.243  0.0418 -0.0837 -0.9215
 5678SOL    HW217479   5.458   2.098   4.293 -0.7771 -0.4113 -0.4069
 5679SOL     OW17480   5.496   5.461   2.260  0.0292 -0.1806  0.0869
 5679SOL    HW117481   5.528   5.511   2.186 -2.3597  1.3248 -0.0691
 5679SOL    HW217482   5.545   5.494   2.335 -1.6136  2.7240  0.0200
 5680SOL     OW17483   2.435   3.351   4.870  0.4302  0.1528 -0.1769
 5680SOL    HW117484   2.369   3.308   4.925  1.4664 -1.3129 -0.0307
 5680SOL    HW217485   2.468   3.422   4.925 -0.4582  0.4144  0.0431
 5681SOL     OW17486   2.917   2.459   3.021  0.4350 -0.2134 -0.3514
 5681SOL    HW117487   3.012   2.460   3.028  0.5570  0.1014 -1.8312
 5681SOL    HW217488   2.887   2.506   3.100  1.6040  1.6555 -0.9509
 5682SOL     OW17489   3.381   4.953   1.106 -0.5019  0.1281 -0.3316
 5682SOL    HW117490   3.315   4.890   1.137 -2.7434  2.6417  0.3040
 5682SOL    HW217491   3.454   4.943   1.168 -0.3771 -2.3754 -0.7611
 5683SOL     OW17492   2.069   4.089   5.941  0.9578 -0.2872  0.3431
 5683SOL    HW117493   2.019   4.086   6.023  2.1440  1.1122  1.1564
 5683SOL    HW217494   2.120   4.170   5.946  1.7517 -0.6295 -1.3788
 5684SOL     OW17495   4.845   5.448   0.455  0.2228 -0.8740 -0.4685
 5684SOL    HW117496   4.843   5.355   0.476  1.3187 -0.7682  0.2068
 5684SOL    HW217497   4.922   5.458   0.399  1.5372 -0.0567  1.3486
 5685SOL     OW17498   4.776   4.341   5.396 -0.1419 -0.5415  0.2902
 5685SOL    HW117499   4.751   4.385   5.315  0.2052 -1.1916 -0.1754
 5685SOL    HW217500   4.872   4.336   5.391 -0.0697 -0.0792  1.0090
 5686SOL     OW17501   4.459   4.198   4.619 -0.6423 -0.1801  0.3592
 5686SOL    HW117502   4.374   4.209   4.576 -1.1845  0.3009  1.5324
 5686SOL    HW217503   4.522   4.219   4.550 -1.4841  0.5901 -0.2142
 5687SOL     OW17504   3.027   3.364   0.545 -0.0443  0.1841  0.0306
 5687SOL    HW117505   3.021   3.291   0.606  2.3107  0.5760  0.8494
 5687SOL    HW217506   2.987   3.331   0.464  1.3362 -2.2158  0.2235
 5688SOL     OW17507   3.017   1.775   2.825 -0.4249 -0.7924 -0.4222
 5688SOL    HW117508   3.075   1.743   2.894  1.0811 -0.1853 -1.3348
 5688SOL    HW217509   3.061   1.854   2.793 -0.0147 -2.1000 -3.3677
 5689SOL     OW17510   2.391   1.003   3.406  0.0996  0.2047 -0.3091
 5689SOL    HW117511   2.315   1.060   3.393  0.5112  0.4691 -1.7478
 5689SOL    HW217512   2.466   1.057   3.378  0.6111 -0.6577 -0.6426
 5690SOL     OW17513   4.641   2.039   0.123  0.0703  0.2100  0.0657
 5690SOL    HW117514   4.666   1.959   0.077  0.3440  0.0332  0.5242
 5690SOL    HW217515   4.717   2.097   0.112 -0.3558  0.6416 -0.7807
 5691SOL     OW17516   5.976   4.397   3.188 -0.5112 -0.1871 -0.3603
 5691SOL    HW117517   5.958   4.328   3.252 -2.0918 -0.0712 -0.6397
 5691SOL    HW217518   5.938   4.366   3.107  0.3197  0.2564 -0.9372
 5692SOL     OW17519   1.395   3.048   4.888 -0.4627  0.2206  0.1163
 5692SOL    HW117520   1.363   2.958   4.898 -1.1805  0.1730 -2.1743
 5692SOL    HW217521   1.316   3.100   4.872  0.2228  0.6064 -2.4263
 5693SOL     OW17522   4.979   4.105   5.181  0.3948 -0.0064 -0.1100
 5693SOL    HW117523   5.022   4.078   5.100  0.7118 -0.4570  0.2047
 5693SOL    HW217524   4.915   4.172   5.154  0.1560 -0.5041 -0.7906
 5694SOL     OW17525   5.467   0.659   2.719  0.4227 -0.2105 -0.1358
 5694SOL    HW117526   5.559   0.664   2.695  0.3206 -0.1260 -0.5169
 5694SOL    HW217527   5.426   0.606   2.650  0.1600 -0.1185 -0.0536
 5695SOL     OW17528   1.586   3.297   3.958 -0.7591  0.1653  0.3542
 5695SOL    HW117529   1.574   3.311   4.052 -0.8904 -2.1575  0.7396
 5695SOL    HW217530   1.521   3.231   3.935  1.3657 -1.6829 -0.6822
 5696SOL     OW17531   1.579   2.261   0.390  0.3823 -0.5205 -0.2845
 5696SOL    HW117532   1.646   2.216   0.339  1.6796 -0.7324  1.5027
 5696SOL    HW217533   1.524   2.191   0.425  1.4677 -0.6902  1.2139
 5697SOL     OW17534   2.037   1.965   4.642 -0.7076  0.1235  0.1260
 5697SOL    HW117535   2.064   1.910   4.715 -1.7401 -1.9142 -0.9506
 5697SOL    HW217536   1.944   1.947   4.631 -0.7671  1.0536 -1.1313
 5698SOL     OW17537   3.684   4.417   4.098 -0.3916  0.2275  0.0967
 5698SOL    HW117538   3.773   4.390   4.120 -1.1924 -1.9938  0.8654
 5698SOL    HW217539   3.649   4.346   4.044 -1.6684  1.1219 -0.3204
 5699SOL     OW17540   4.393   1.215   2.225  0.2200  0.0126 -0.0841
 5699SOL    HW117541   4.447   1.171   2.291 -0.6660 -1.8178 -0.5012
 5699SOL    HW217542   4.326   1.261   2.277 -0.4517 -1.3836  0.3548
 5700SOL     OW17543   3.794   0.070   5.610 -0.1999 -0.3473 -0.1734
 5700SOL    HW117544   3.818   0.102   5.522 -0.5250  1.0779  0.2291
 5700SOL    HW217545   3.878   0.058   5.654 -0.0703  0.8627 -0.0480
 5701SOL     OW17546   2.247   3.606   4.774  0.0528  0.4948 -0.0252
 5701SOL    HW117547   2.247   3.519   4.735  2.6736  0.2910  0.1972
 5701SOL    HW217548   2.250   3.591   4.868 -0.0363  0.8210  0.0318
 5702SOL     OW17549   5.852   3.536   1.634  0.2599 -0.0036 -0.3258
 5702SOL    HW117550   5.841   3.555   1.727 -2.1464 -2.0634 -0.1019
 5702SOL    HW217551   5.824   3.616   1.590 -2.9870 -0.4365  0.6958
 5703SOL     OW17552   2.337   5.707   4.419 -0.4642 -0.7410  0.4125
 5703SOL    HW117553   2.430   5.731   4.423 -0.8014  1.4491 -2.3524
 5703SOL    HW217554   2.296   5.763   4.485  0.0207 -0.9862  0.9362
 5704SOL     OW17555   0.639   3.528   2.554 -1.2948  0.6160  0.0154
 5704SOL    HW117556   0.659   3.442   2.516  0.9856  1.4040 -0.7512
 5704SOL    HW217557   0.594   3.576   2.485 -1.1685  0.5529 -0.1099
 5705SOL     OW17558   2.610   2.031   2.674  0.6691 -0.4171  0.1436
 5705SOL    HW117559   2.544   2.048   2.741 -1.8744 -2.1247 -1.7413
 5705SOL    HW217560   2.636   1.940   2.689  0.7048 -0.5443 -0.6835
 5706SOL     OW17561   0.062   1.681   0.212 -0.0567 -0.9946 -0.2309
 5706SOL    HW117562   0.009   1.694   0.290 -0.0631 -3.4697  0.2596
 5706SOL    HW217563  -0.000   1.655   0.145  0.0373  0.4659 -0.9197
 5707SOL     OW17564   2.617   0.042   3.780 -0.0906  0.3454  0.0927
 5707SOL    HW117565   2.637   0.135   3.767 -0.4038  0.3259 -0.5785
 5707SOL    HW217566   2.663  -0.003   3.710  0.4702 -0.0703  0.7097
 5708SOL     OW17567   1.954   3.742   3.671  0.3484  0.4251  0.5277
 5708SOL    HW117568   1.997   3.664   3.708 -1.9483 -0.9062  0.5462
 5708SOL    HW217569   1.960   3.807   3.741 -2.5279 -1.5415  2.8355
 5709SOL     OW17570   5.444   3.458   0.968  0.3952 -0.1529 -0.0991
 5709SOL    HW117571   5.443   3.366   0.940  1.8019  0.4261 -2.3594
 5709SOL    HW217572   5.352   3.485   0.964 -0.0949 -1.5156  0.9671
 5710SOL     OW17573   4.919   5.792   3.663 -0.4056 -0.0660 -0.3601
 5710SOL    HW117574   4.865   5.845   3.722 -1.9331 -0.5229 -1.2843
 5710SOL    HW217575   4.975   5.856   3.618  0.8588  0.2834  1.5666
 5711SOL     OW17576   2.855   5.917   5.610 -0.1691  0.1958  0.8256
 5711SOL    HW117577   2.873   5.827   5.583  0.0607 -0.6186  3.4194
 5711SOL    HW217578   2.938   5.948   5.647 -0.7719  0.7278  1.7788
 5712SOL     OW17579   2.911   3.124   3.954  0.7736 -0.6054 -0.1825
 5712SOL    HW117580   2.840   3.105   3.893  1.1539 -0.9087 -0.5381
 5712SOL    HW217581   2.975   3.054   3.939  1.7301  0.3689 -0.7891
 5713SOL     OW17582   0.736   1.357   5.216 -0.3413 -0.4091 -0.3075
 5713SOL    HW117583   0.803   1.398   5.270 -0.2721 -1.6665  0.6144
 5713SOL    HW217584   0.725   1.417   5.142  0.4938  0.7129  0.4334
 5714SOL     OW17585   2.217   2.586   4.238 -0.5677  0.2459  0.6388
 5714SOL    HW117586   2.292   2.546   4.281  0.8587  1.2648 -0.7994
 5714SOL    HW217587   2.162   2.616   4.310  1.8944  2.2299  1.8529
 5715SOL     OW17588   4.553   3.327   4.211 -0.0936 -0.6356  0.4389
 5715SOL    HW117589   4.536   3.387   4.139 -2.9130 -0.0799  1.4549
 5715SOL    HW217590   4.649   3.319   4.214  0.1913  1.0943 -1.8680
 5716SOL     OW17591   1.018   0.707   1.422 -0.7685  0.4754  0.2743
 5716SOL    HW117592   0.962   0.771   1.467  0.0619  1.6276 -0.2868
 5716SOL    HW217593   1.037   0.641   1.489 -3.2995 -0.3165  0.3092
 5717SOL     OW17594   3.664   4.236   4.643  0.1464 -0.5953 -0.1966
 5717SOL    HW117595   3.654   4.219   4.737 -0.5803  0.7463 -0.0093
 5717SOL    HW217596   3.581   4.275   4.617  1.4935  2.1870 -0.6360
 5718SOL     OW17597   5.871   4.672   5.756 -0.1051  0.4587  0.1526
 5718SOL    HW117598   5.814   4.659   5.832 -0.8222  1.0286 -0.2610
 5718SOL    HW217599   5.810   4.673   5.681  0.2958  2.1987 -0.2006
 5719SOL     OW17600   1.147   4.696   0.822 -0.3523 -0.0404 -0.1362
 5719SOL    HW117601   1.166   4.654   0.906 -0.4074 -0.9229 -0.5502
 5719SOL    HW217602   1.228   4.742   0.799  0.0132 -0.6552 -0.0924
 5720SOL     OW17603   3.695   4.887   1.473 -0.3017 -0.4618  0.1428
 5720SOL    HW117604   3.710   4.958   1.410 -0.2694 -0.9633 -0.4278
 5720SOL    HW217605   3.742   4.813   1.436 -0.3433 -0.7850  0.7309
 5721SOL     OW17606   2.660   3.030   3.190 -0.0257 -0.1359  0.4063
 5721SOL    HW117607   2.564   3.027   3.185  0.0652 -1.5823 -1.6765
 5721SOL    HW217608   2.678   3.075   3.273 -2.4470  3.5847 -0.8408
 5722SOL     OW17609   1.199   1.003   4.925 -0.1842  0.3673 -0.0318
 5722SOL    HW117610   1.143   1.078   4.908  1.8042  1.6977 -1.2505
 5722SOL    HW217611   1.193   0.989   5.019 -2.4368  0.4889 -0.1120
 5723SOL     OW17612   0.897   1.955   2.067 -0.2793  0.5699 -0.6053
 5723SOL    HW117613   0.926   1.964   1.977  0.0564 -1.2555 -0.7152
 5723SOL    HW217614   0.976   1.932   2.116 -0.8338 -0.7846 -0.2762
 5724SOL     OW17615   0.961   0.109   2.261  0.4568  0.2639  0.1813
 5724SOL    HW117616   0.912   0.092   2.341  1.0601 -0.5512  0.3917
 5724SOL    HW217617   1.024   0.037   2.255 -0.0355 -0.0868 -1.3981
 5725SOL     OW17618   3.401   2.066   5.610  0.1900 -0.5432  0.5065
 5725SOL    HW117619   3.447   2.144   5.640  0.3028 -0.7632  0.9076
 5725SOL    HW217620   3.393   2.078   5.515 -0.1620  0.1469  0.6180
 5726SOL     OW17621   3.782   3.584   4.028 -0.6536 -0.3516  0.2158
 5726SOL    HW117622   3.774   3.664   4.081  1.5312  2.4934 -3.2715
 5726SOL    HW217623   3.856   3.537   4.066 -2.2767 -1.1258  2.6251
 5727SOL     OW17624   6.068   0.431   0.798 -0.7695  0.2697 -0.2134
 5727SOL    HW117625   6.154   0.391   0.792 -0.3723  1.1212 -0.3868
 5727SOL    HW217626   6.010   0.372   0.750 -0.2035 -0.0808 -0.4745
 5728SOL     OW17627   5.977   1.367   4.093  0.9199  0.1186  0.1686
 5728SOL    HW117628   6.068   1.339   4.105  0.5321 -1.0340  0.5820
 5728SOL    HW217629   5.952   1.330   4.009  0.9448  0.7638 -0.1270
 5729SOL     OW17630   3.828   3.573   0.776 -0.2702  0.6367 -0.1155
 5729SOL    HW117631   3.803   3.617   0.858 -1.0088 -0.2166  0.1306
 5729SOL    HW217632   3.851   3.484   0.803 -1.0901  0.1710 -0.9090
 5730SOL     OW17633   1.552   5.993   1.262 -0.5660 -0.2641 -0.3541
 5730SOL    HW117634   1.480   6.048   1.292 -0.5790 -0.3649 -0.1980
 5730SOL    HW217635   1.606   5.979   1.340 -0.9349 -1.0389 -0.2293
 5731SOL     OW17636   5.938   3.113   2.224  0.0567  0.3981  0.0996
 5731SOL    HW117637   5.902   3.197   2.254  0.7501  0.1526  1.7476
 5731SOL    HW217638   5.925   3.054   2.298  0.0661 -0.8259 -0.8381
 5732SOL     OW17639   2.347   3.929   4.483 -0.0159  0.0404 -0.3681
 5732SOL    HW117640   2.391   3.866   4.541  0.2267 -0.0421 -0.6345
 5732SOL    HW217641   2.325   3.878   4.405  1.3993  0.5812 -1.1578
 5733SOL     OW17642   0.380   1.657   4.659 -0.7047  0.7613 -0.6909
 5733SOL    HW117643   0.415   1.673   4.747 -1.7730  0.5316 -0.1977
 5733SOL    HW217644   0.445   1.694   4.600  0.9231 -0.6739  0.1264
 5734SOL     OW17645   1.707   4.090   2.643  0.3902 -0.0330 -0.6990
 5734SOL    HW117646   1.685   4.000   2.618  0.5279 -0.2437 -0.0838
 5734SOL    HW217647   1.682   4.096   2.735  0.7403  0.4391 -0.6299
 5735SOL     OW17648   1.725   3.618   2.212 -0.8226  0.1858  0.4113
 5735SOL    HW117649   1.757   3.707   2.220 -0.0952 -0.2350  2.9409
 5735SOL    HW217650   1.702   3.609   2.119  0.0815  2.6273 -0.1156
 5736SOL     OW17651   0.697   1.738   4.875  1.0502  0.0487 -0.0055
 5736SOL    HW117652   0.788   1.733   4.844  0.8055 -1.9766 -0.5221
 5736SOL    HW217653   0.694   1.678   4.949 -0.4385 -2.0536 -1.6415
 5737SOL     OW17654   1.045   0.670   0.770 -0.6261  0.2594  0.8365
 5737SOL    HW117655   0.969   0.692   0.823 -2.2834 -2.4296 -0.2301
 5737SOL    HW217656   1.037   0.576   0.753  3.0097 -0.1792  0.7189
 5738SOL     OW17657   3.773   4.949   4.908 -0.0889  0.5546  0.0612
 5738SOL    HW117658   3.778   4.918   4.999  0.0244 -0.1920 -0.1899
 5738SOL    HW217659   3.853   5.000   4.896  0.5669 -0.4588 -0.0078
 5739SOL     OW17660   0.366   0.208   1.555 -1.2953 -0.4919  0.2530
 5739SOL    HW117661   0.301   0.268   1.518 -0.5119  0.6584  0.6714
 5739SOL    HW217662   0.330   0.184   1.641 -1.5047 -0.4438  0.1801
 5740SOL     OW17663   0.932   2.861   2.558 -0.9408 -0.1381  0.4916
 5740SOL    HW117664   0.952   2.869   2.465  1.2794  2.7364  1.0654
 5740SOL    HW217665   0.874   2.935   2.576 -0.6106 -0.1296  1.5583
 5741SOL     OW17666   2.645   2.519   3.706 -0.0482  0.6591 -0.3905
 5741SOL    HW117667   2.590   2.442   3.720 -1.9512  2.1080  0.4385
 5741SOL    HW217668   2.657   2.522   3.611  0.7639 -1.0809 -0.3835
 5742SOL     OW17669   4.174   4.890   3.565 -0.2040 -0.3473  0.3156
 5742SOL    HW117670   4.091   4.936   3.553 -1.1138 -1.2699  2.3836
 5742SOL    HW217671   4.209   4.879   3.477 -1.9391  0.6631 -0.5566
 5743SOL     OW17672   4.587   0.092   4.526  0.3995  0.0912 -0.2546
 5743SOL    HW117673   4.682   0.093   4.541  0.1734 -0.8635  1.5627
 5743SOL    HW217674   4.559   0.182   4.544  0.8316  0.1143  0.3329
 5744SOL     OW17675   5.151   3.729   0.632  0.0970 -0.2958  0.3373
 5744SOL    HW117676   5.156   3.804   0.691  1.4904 -0.6891  0.7578
 5744SOL    HW217677   5.226   3.674   0.656 -0.0715 -1.1214 -0.9167
 5745SOL     OW17678   4.753   2.393   0.774 -0.1661  0.0813  0.3484
 5745SOL    HW117679   4.745   2.304   0.809 -1.7623  0.6424  1.4956
 5745SOL    HW217680   4.821   2.434   0.828  0.5141 -0.3825 -0.1281
 5746SOL     OW17681   0.554   5.948   2.795 -0.2990  0.4035  0.1620
 5746SOL    HW117682   0.469   5.914   2.768  0.1312 -2.4993  2.0625
 5746SOL    HW217683   0.555   5.940   2.890  1.4309  2.1697  0.3718
 5747SOL     OW17684   0.124   6.104   0.593  0.3537 -0.3255  0.1254
 5747SOL    HW117685   0.127   6.031   0.656  3.3024 -0.4655 -0.0001
 5747SOL    HW217686   0.198   6.159   0.618 -0.8322  1.7980 -0.8067
 5748SOL     OW17687   4.952   3.579   5.688  0.0039  0.6852  0.2267
 5748SOL    HW117688   5.040   3.612   5.706 -0.7367  4.4281 -1.9020
 5748SOL    HW217689   4.963   3.520   5.614  0.8917 -0.4969  1.2615
 5749SOL     OW17690   1.804   0.928   4.295  0.8887  0.1674 -0.0065
 5749SOL    HW117691   1.766   0.995   4.238  0.1590 -0.0112  0.2607
 5749SOL    HW217692   1.874   0.889   4.243  1.2659  1.0792 -0.1960
 5750SOL     OW17693   6.081   5.767   0.148  0.6376  0.1426  0.2142
 5750SOL    HW117694   6.018   5.835   0.120 -0.9865 -1.6273 -0.6670
 5750SOL    HW217695   6.138   5.755   0.072  1.3792  0.9672  0.6201
 5751SOL     OW17696   4.170   0.694   0.828  0.5186 -0.1428  0.1010
 5751SOL    HW117697   4.171   0.768   0.889  0.2480 -0.0022 -0.0632
 5751SOL    HW217698   4.092   0.644   0.853  0.6316 -0.3011  0.1306
 5752SOL     OW17699   0.291   5.239   1.022  0.1141  0.5360 -0.0236
 5752SOL    HW117700   0.379   5.229   1.059 -0.0840  0.2853  0.3826
 5752SOL    HW217701   0.269   5.152   0.989 -0.2074  0.4676  0.3750
 5753SOL     OW17702   4.791   5.206   0.608  0.0537 -0.6583  0.4799
 5753SOL    HW117703   4.721   5.141   0.617 -2.4561  1.8786  0.3698
 5753SOL    HW217704   4.791   5.253   0.691 -1.4452  2.2008 -1.0275
 5754SOL     OW17705   5.280   4.254   4.338  0.0582  0.4660  0.2512
 5754SOL    HW117706   5.375   4.263   4.340  0.3840 -2.2584  1.6005
 5754SOL    HW217707   5.249   4.296   4.418  0.3470 -0.3027  0.7748
 5755SOL     OW17708   3.853   0.439   0.242 -0.4524  0.2938  0.2721
 5755SOL    HW117709   3.812   0.369   0.292  0.7182 -0.2428  0.5059
 5755SOL    HW217710   3.926   0.397   0.197 -0.7056  1.0325 -0.8858
 5756SOL     OW17711   4.511   1.836   1.174 -0.5551 -0.2010  0.1673
 5756SOL    HW117712   4.552   1.816   1.258  3.6622 -2.8343 -2.1393
 5756SOL    HW217713   4.447   1.765   1.161 -0.0668 -0.7072  0.4954
 5757SOL     OW17714   0.898   0.921   1.235 -0.5372  0.2126 -0.0712
 5757SOL    HW117715   0.852   0.838   1.236 -0.5939  0.2428 -0.1370
 5757SOL    HW217716   0.852   0.975   1.299 -0.2569  0.0641  0.2584
 5758SOL     OW17717   1.079   5.117   4.125 -0.1060  0.4024 -0.8251
 5758SOL    HW117718   1.169   5.097   4.152 -0.1124  1.0587 -0.2958
 5758SOL    HW217719   1.024   5.064   4.182 -0.0784  0.7306 -0.4897
 5759SOL     OW17720   4.472   2.613   2.837  0.1503 -0.1411 -0.2346
 5759SOL    HW117721   4.434   2.690   2.881  1.7228  0.0925  0.8140
 5759SOL    HW217722   4.558   2.603   2.877  1.6138 -0.0940 -3.0847
 5760SOL     OW17723   0.457   1.194   1.091 -0.3211  0.0635  0.2778
 5760SOL    HW117724   0.377   1.156   1.126  0.6844  0.9612  4.0022
 5760SOL    HW217725   0.509   1.118   1.063 -1.0464 -0.8076  1.2039
 5761SOL     OW17726   5.329   5.393   3.362 -0.2171  0.1899 -0.3155
 5761SOL    HW117727   5.260   5.352   3.414 -0.3566 -1.3779 -1.6531
 5761SOL    HW217728   5.290   5.473   3.328 -0.6735  0.3650  0.6092
 5762SOL     OW17729   0.930   2.237   3.548  0.2536  0.0541 -0.1514
 5762SOL    HW117730   0.856   2.186   3.581  0.2708 -1.4724 -2.2672
 5762SOL    HW217731   0.931   2.316   3.602 -4.4504  1.3703 -1.5333
 5763SOL     OW17732   0.113   1.372   1.102 -0.5438 -0.5813 -0.8357
 5763SOL    HW117733   0.103   1.414   1.188 -1.3561 -1.2385 -0.5904
 5763SOL    HW217734   0.059   1.425   1.043 -1.3767 -1.1363 -0.5769
 5764SOL     OW17735   5.060   4.086   1.399 -0.1627  0.4559 -0.2331
 5764SOL    HW117736   5.074   4.035   1.320 -1.6711 -0.9277  0.3351
 5764SOL    HW217737   5.077   4.177   1.372  2.1994 -0.2382 -1.3511
 5765SOL     OW17738   2.606   0.813   5.218 -0.1786  0.1766  0.3231
 5765SOL    HW117739   2.607   0.725   5.257  1.9095  1.0911  2.6590
 5765SOL    HW217740   2.650   0.803   5.134  2.6792 -0.6666  1.7845
 5766SOL     OW17741   3.338   5.506   1.108  0.0182 -0.4914 -0.1595
 5766SOL    HW117742   3.352   5.426   1.057  1.5798 -1.1475  1.2293
 5766SOL    HW217743   3.263   5.548   1.065  0.7877 -1.3471 -2.5479
 5767SOL     OW17744   5.895   5.686   4.660  0.0579 -0.0412  0.3871
 5767SOL    HW117745   5.941   5.701   4.577  1.5221  0.9745  1.3307
 5767SOL    HW217746   5.824   5.625   4.638  0.8165 -0.3104 -1.4706
 5768SOL     OW17747   4.484   0.593   3.629 -0.4142 -0.1438 -0.0801
 5768SOL    HW117748   4.500   0.684   3.655 -2.6880  0.2547  0.1973
 5768SOL    HW217749   4.478   0.545   3.712  3.2037 -1.1296 -0.2433
 5769SOL     OW17750   0.446   6.081   4.477 -0.1099 -0.1313  0.4471
 5769SOL    HW117751   0.386   6.021   4.433  0.6798 -0.0079 -0.8578
 5769SOL    HW217752   0.524   6.083   4.421  0.0954  1.7157  0.7100
 5770SOL     OW17753   2.782   5.149   5.760  0.8933 -0.1244  0.0721
 5770SOL    HW117754   2.870   5.120   5.786  0.2352 -2.8151 -0.3861
 5770SOL    HW217755   2.789   5.167   5.667  0.6282 -1.9936 -0.3395
 5771SOL     OW17756   2.198   6.113   3.260 -0.8734 -0.0809 -0.1561
 5771SOL    HW117757   2.212   6.208   3.250  0.6374 -0.4901 -3.2633
 5771SOL    HW217758   2.243   6.091   3.342  2.6239  1.3449 -1.4728
 5772SOL     OW17759   1.285   5.916   0.527  0.0110  0.0380  0.2741
 5772SOL    HW117760   1.278   5.821   0.522 -1.3228  0.1563 -1.1935
 5772SOL    HW217761   1.365   5.937   0.479 -0.1513 -0.3054 -0.1532
 5773SOL     OW17762   5.679   5.290   2.460  0.2022 -0.5439  0.6425
 5773SOL    HW117763   5.598   5.315   2.505 -0.4439  0.0087 -0.7556
 5773SOL    HW217764   5.653   5.278   2.369  1.9952  1.4713 -0.2325
 5774SOL     OW17765   2.023   3.892   3.869 -0.3819 -0.4669  0.5539
 5774SOL    HW117766   1.996   3.982   3.884 -0.8404 -0.2784 -1.1565
 5774SOL    HW217767   2.116   3.897   3.848 -0.6049 -0.2440 -0.4608
 5775SOL     OW17768   0.146   1.007   1.433 -0.4653 -0.4170 -0.4647
 5775SOL    HW117769   0.142   1.091   1.478 -1.1845 -0.5802 -0.1969
 5775SOL    HW217770   0.118   0.943   1.499 -0.6223 -0.7729 -0.8704
 5776SOL     OW17771   1.393   3.656   3.832  0.5589  0.5229  0.0194
 5776SOL    HW117772   1.363   3.739   3.793  0.3066  0.8891  0.9670
 5776SOL    HW217773   1.488   3.660   3.823  0.5338  0.8067 -0.1600
 5777SOL     OW17774   1.524   1.471   1.192 -0.2310  0.3186 -0.9067
 5777SOL    HW117775   1.555   1.562   1.198  0.5465  0.0140 -0.1762
 5777SOL    HW217776   1.430   1.480   1.176 -0.4889  1.2812  0.8165
 5778SOL     OW17777   4.753   5.516   0.093  0.1739 -0.2554  0.0710
 5778SOL    HW117778   4.749   5.423   0.118 -1.1200 -0.3635 -0.4427
 5778SOL    HW217779   4.716   5.562   0.169  0.1078 -0.2323  0.0253
 5779SOL     OW17780   5.661   5.522   0.948  0.1548  0.2185  0.0234
 5779SOL    HW117781   5.754   5.543   0.938 -0.0887  1.3771  0.1112
 5779SOL    HW217782   5.660   5.443   1.001  1.1175 -0.2876 -0.6725
 5780SOL     OW17783   2.050   2.747   6.090  0.0702  0.2243  0.2613
 5780SOL    HW117784   2.138   2.777   6.070  0.5829 -1.0826  0.4971
 5780SOL    HW217785   2.008   2.737   6.005  0.2458  0.5575  0.1343
 5781SOL     OW17786   1.431   0.811   1.287 -0.3378  0.9409  0.2707
 5781SOL    HW117787   1.349   0.847   1.251 -1.5097 -0.8329  1.0170
 5781SOL    HW217788   1.430   0.719   1.261  0.9545  0.6562  1.1360
 5782SOL     OW17789   2.970   1.384   5.624  0.3342 -0.2094 -0.6908
 5782SOL    HW117790   3.052   1.414   5.664  0.1874 -0.7062 -0.0069
 5782SOL    HW217791   2.982   1.289   5.614 -0.7188 -0.5310  0.7884
 5783SOL     OW17792   1.522   4.090   0.199 -0.2069  0.4453 -0.4168
 5783SOL    HW117793   1.559   4.065   0.114  2.1076  0.6525  0.4376
 5783SOL    HW217794   1.593   4.139   0.242 -1.3581  0.4791  1.5694
 5784SOL     OW17795   4.084   0.853   4.173 -0.3324 -0.0052  0.3928
 5784SOL    HW117796   4.014   0.787   4.175 -0.7304  0.4368  1.7745
 5784SOL    HW217797   4.051   0.920   4.113  0.7010 -1.6562 -2.2402
 5785SOL     OW17798   0.117   1.745   2.614 -0.3642 -0.6632 -0.9534
 5785SOL    HW117799   0.091   1.766   2.703  1.0287 -1.1765 -0.4075
 5785SOL    HW217800   0.095   1.824   2.564  0.9942  0.5545  0.2820
 5786SOL     OW17801   1.292   0.736   5.361 -0.0367 -0.1884 -0.2855
 5786SOL    HW117802   1.215   0.777   5.322 -0.2571 -0.1998  0.1341
 5786SOL    HW217803   1.272   0.642   5.360  0.8344 -0.3994 -2.0584
 5787SOL     OW17804   1.793   1.158   3.337  0.0561  0.1905  0.2127
 5787SOL    HW117805   1.765   1.158   3.246  1.5941  0.0565 -0.2810
 5787SOL    HW217806   1.788   1.250   3.363 -1.3639  0.1022  0.3355
 5788SOL     OW17807   5.398   6.120   1.648  0.3122  0.2545 -0.6812
 5788SOL    HW117808   5.309   6.111   1.613 -0.4381  1.3276  0.8346
 5788SOL    HW217809   5.450   6.057   1.599 -1.1859 -0.0360 -1.9518
 5789SOL     OW17810   4.997   2.464   2.025 -0.6319  0.4624 -0.3387
 5789SOL    HW117811   4.909   2.428   2.018 -0.0859 -1.1078  0.5116
 5789SOL    HW217812   5.041   2.436   1.944 -0.5296  0.1254 -0.1678
 5790SOL     OW17813   5.731   3.921   3.586  0.0912  0.2042  0.5466
 5790SOL    HW117814   5.823   3.924   3.561 -0.1177  1.7329 -0.1404
 5790SOL    HW217815   5.687   3.885   3.509  0.2178 -1.6780  1.3071
 5791SOL     OW17816   5.793   5.056   1.074 -0.1838  0.2247  0.4241
 5791SOL    HW117817   5.885   5.033   1.073 -0.4708 -1.0062  0.7290
 5791SOL    HW217818   5.788   5.139   1.027  0.8537 -0.5761 -1.1890
 5792SOL     OW17819   3.572   2.155   3.210 -0.2461 -0.3820 -0.1231
 5792SOL    HW117820   3.516   2.232   3.195 -0.8325 -0.5506  1.0261
 5792SOL    HW217821   3.515   2.080   3.192 -0.1865 -0.5513  0.3814
 5793SOL     OW17822   2.126   2.570   0.146 -0.3788  0.2394  0.2836
 5793SOL    HW117823   2.091   2.630   0.079  0.0465  0.5218  0.3088
 5793SOL    HW217824   2.207   2.537   0.108  0.0399  0.6595  0.7894
 5794SOL     OW17825   5.513   5.578   3.578 -0.3224  0.3828  0.3899
 5794SOL    HW117826   5.447   5.646   3.592 -0.6925  0.1255 -0.0614
 5794SOL    HW217827   5.483   5.531   3.500 -1.0631 -1.5035  1.7505
 5795SOL     OW17828   5.490   5.078   5.530 -1.0893 -0.2523  0.5537
 5795SOL    HW117829   5.473   5.007   5.593 -0.7821 -0.1900  0.7061
 5795SOL    HW217830   5.585   5.086   5.528 -1.0698 -0.6627 -0.3769
 5796SOL     OW17831   1.152   1.774   1.850  0.1983  0.4970 -0.0645
 5796SOL    HW117832   1.166   1.683   1.822  1.3167  0.4454  0.6253
 5796SOL    HW217833   1.216   1.788   1.920 -0.4897  1.5781  0.3714
 5797SOL     OW17834   1.135   1.552   4.247  0.2896  0.3601  0.2866
 5797SOL    HW117835   1.129   1.581   4.156  1.6682  1.0333  0.3891
 5797SOL    HW217836   1.174   1.625   4.294 -0.3078 -0.0153  1.4199
 5798SOL     OW17837   0.447   3.298   4.805 -0.2511  0.6300 -0.1980
 5798SOL    HW117838   0.523   3.250   4.772  0.4487 -0.0374  2.2271
 5798SOL    HW217839   0.443   3.376   4.750  1.1999 -0.1092 -1.4302
 5799SOL     OW17840   5.692   1.640   3.024 -0.0329 -0.3899  0.0546
 5799SOL    HW117841   5.657   1.690   3.098 -1.0686  0.9323 -1.2827
 5799SOL    HW217842   5.778   1.611   3.054 -0.6777 -0.4468  2.0155
 5800SOL     OW17843   5.105   4.422   5.794  0.1139 -0.2416 -0.3760
 5800SOL    HW117844   5.029   4.369   5.770  0.8177 -1.0845 -0.8371
 5800SOL    HW217845   5.176   4.358   5.805  0.6496  0.4815  0.4929
 5801SOL     OW17846   5.287   5.793   1.277 -0.0681 -0.4743 -0.0415
 5801SOL    HW117847   5.301   5.767   1.368  1.1858 -0.4800 -0.2229
 5801SOL    HW217848   5.193   5.785   1.265 -1.0012  3.6670  2.5191
 5802SOL     OW17849   3.950   3.372   0.516  0.3086  0.2599 -0.2740
 5802SOL    HW117850   3.977   3.463   0.527  0.2997  0.2955 -0.5292
 5802SOL    HW217851   3.984   3.347   0.430  0.3847 -0.0045 -0.1693
 5803SOL     OW17852   4.379   5.357   5.147  0.3617 -0.2650  0.0972
 5803SOL    HW117853   4.364   5.268   5.181 -2.3603 -0.4574 -1.3242
 5803SOL    HW217854   4.442   5.395   5.207 -0.1946 -2.3702  2.1642
 5804SOL     OW17855   1.144   4.066   5.159  0.6222 -0.0140  0.1840
 5804SOL    HW117856   1.137   4.160   5.140 -0.7435 -0.2128 -0.4046
 5804SOL    HW217857   1.202   4.061   5.235  0.7753  1.2984  0.1744
 5805SOL     OW17858   2.621   2.999   4.820 -0.4475 -0.1748  0.3245
 5805SOL    HW117859   2.576   2.981   4.903 -0.7036 -0.3013  0.1627
 5805SOL    HW217860   2.550   3.002   4.756 -0.3296  0.6840  0.2276
 5806SOL     OW17861   4.782   6.019   1.571 -0.3390  0.1906 -0.0945
 5806SOL    HW117862   4.696   6.029   1.531 -0.2142  1.8655 -0.0147
 5806SOL    HW217863   4.840   6.072   1.516  0.3831  0.1547  0.6187
 5807SOL     OW17864   2.323   5.781   5.682  0.5173 -0.0544  0.1652
 5807SOL    HW117865   2.408   5.776   5.637  0.1423 -2.6065 -0.4421
 5807SOL    HW217866   2.259   5.793   5.612  0.3593  2.6345  0.6875
 5808SOL     OW17867   3.094   2.891   5.359  0.1397  0.2164 -0.1973
 5808SOL    HW117868   3.079   2.980   5.328  0.6321  0.2301 -0.4050
 5808SOL    HW217869   3.007   2.852   5.363 -0.5265  1.7094  3.0286
 5809SOL     OW17870   4.410   3.187   3.850  0.4142 -0.3313  0.2958
 5809SOL    HW117871   4.338   3.198   3.787  0.7653 -0.6198 -0.1651
 5809SOL    HW217872   4.406   3.094   3.873  1.7685 -0.7853 -1.1362
 5810SOL     OW17873   3.284   5.398   3.834 -0.4826  0.1136 -0.0324
 5810SOL    HW117874   3.380   5.396   3.835 -0.4335  0.7056 -1.4906
 5810SOL    HW217875   3.260   5.365   3.748 -1.5627  0.8558 -0.0366
 5811SOL     OW17876   0.971   3.513   2.378 -0.3514  0.1096  0.4418
 5811SOL    HW117877   1.051   3.509   2.326 -1.3359 -0.2714 -1.1131
 5811SOL    HW217878   0.961   3.606   2.399  0.2459  0.2214  0.2597
 5812SOL     OW17879   4.878   2.100   3.622 -0.0112  0.3727 -0.1614
 5812SOL    HW117880   4.844   2.153   3.550 -1.6154  1.7827  1.5221
 5812SOL    HW217881   4.971   2.122   3.626 -0.2584  1.6218 -0.7103
 5813SOL     OW17882   4.215   4.974   4.217 -0.4313  0.1128  0.2201
 5813SOL    HW117883   4.209   4.992   4.311 -0.5931  2.3408 -0.1618
 5813SOL    HW217884   4.198   5.059   4.176  1.4628 -0.4102 -1.7891
 5814SOL     OW17885   0.086   3.446   2.795 -0.5143  0.3600  0.1917
 5814SOL    HW117886   0.154   3.432   2.729 -1.2307 -1.0195 -0.2725
 5814SOL    HW217887   0.131   3.494   2.865  0.6061  0.6105 -0.6655
 5815SOL     OW17888   0.695   2.170   5.944  0.5958 -0.0626 -0.0022
 5815SOL    HW117889   0.789   2.183   5.932  0.4019 -0.2169 -2.1656
 5815SOL    HW217890   0.687   2.076   5.962  0.7820 -0.4557 -1.7056
 5816SOL     OW17891   2.497   1.751   2.719 -0.0732  0.5824  0.8723
 5816SOL    HW117892   2.462   1.696   2.649  0.1973 -0.5021  1.5782
 5816SOL    HW217893   2.591   1.733   2.718 -0.3246 -1.2775  3.0291
 5817SOL     OW17894   5.397   2.985   1.997 -0.1959  0.4385  0.2213
 5817SOL    HW117895   5.305   2.975   1.973 -0.2122 -0.8391  0.7667
 5817SOL    HW217896   5.406   3.079   2.014 -1.0948  0.7812 -0.9895
 5818SOL     OW17897   0.963   1.984   4.486 -0.1852 -0.8261 -0.1508
 5818SOL    HW117898   0.899   1.916   4.467 -0.2183 -0.6842 -0.5543
 5818SOL    HW217899   0.951   2.004   4.579 -1.4737 -0.0204 -0.4689
 5819SOL     OW17900   0.537   3.402   1.544  0.0034 -0.5691  0.3368
 5819SOL    HW117901   0.474   3.435   1.608 -2.1913 -3.6326 -0.0398
 5819SOL    HW217902   0.565   3.318   1.578  0.8206 -1.0742 -1.4473
 5820SOL     OW17903   2.475   1.961   3.920 -0.3747 -0.1053 -0.0457
 5820SOL    HW117904   2.509   1.910   3.993  0.5952  0.5364 -0.0431
 5820SOL    HW217905   2.547   1.964   3.857 -0.5922  0.8407 -0.2578
 5821SOL     OW17906   0.811   4.058   0.653  0.2291 -0.1547  0.1709
 5821SOL    HW117907   0.867   4.084   0.580 -1.2478  0.0586 -0.9370
 5821SOL    HW217908   0.732   4.111   0.642 -1.3702 -2.4073 -0.0208
 5822SOL     OW17909   2.419   1.549   4.489  0.1253  0.1998 -0.1376
 5822SOL    HW117910   2.432   1.629   4.439  0.5287  0.2511  0.0518
 5822SOL    HW217911   2.324   1.546   4.505  0.0852  0.5342 -0.3099
 5823SOL     OW17912   4.757   2.633   1.159  0.6307 -0.7935  0.4975
 5823SOL    HW117913   4.764   2.698   1.089 -0.5887  0.2321  1.2661
 5823SOL    HW217914   4.833   2.651   1.215 -0.0602  0.4841  1.0761
 5824SOL     OW17915   5.297   1.229   3.803 -0.0525  0.2802 -0.4841
 5824SOL    HW117916   5.266   1.172   3.732  2.0842 -0.3793 -0.9661
 5824SOL    HW217917   5.306   1.171   3.878  1.8390 -0.0351 -0.8955
 5825SOL     OW17918   4.216   4.808   3.306  0.1201  0.1087  0.5936
 5825SOL    HW117919   4.213   4.837   3.215 -0.2972  1.8939  1.1524
 5825SOL    HW217920   4.205   4.713   3.300  0.4361  0.1442 -1.2325
 5826SOL     OW17921   1.314   4.811   4.386 -0.4381 -0.0392  0.4845
 5826SOL    HW117922   1.228   4.803   4.344  0.4378 -0.5742 -1.3164
 5826SOL    HW217923   1.314   4.898   4.424 -1.0847  0.7444 -1.2063
 5827SOL     OW17924   0.098   5.403   4.209  0.3120  0.8597  0.4728
 5827SOL    HW117925   0.130   5.372   4.124 -2.9241  1.2272 -1.0403
 5827SOL    HW217926   0.113   5.497   4.207 -1.0243  1.0833 -0.3816
 5828SOL     OW17927   3.075   3.892   5.359 -0.0604 -0.3480 -0.3274
 5828SOL    HW117928   3.016   3.817   5.350  0.0855 -0.8550  2.1781
 5828SOL    HW217929   3.163   3.854   5.358  0.0268 -0.2052  0.5539
 5829SOL     OW17930   3.973   4.437   2.743 -1.0089  0.3393  0.1151
 5829SOL    HW117931   4.052   4.490   2.734 -0.8361 -0.2120 -2.3109
 5829SOL    HW217932   3.903   4.491   2.708 -0.9957 -0.6010 -1.4519
 5830SOL     OW17933   5.163   5.915   5.730  0.4989 -0.2302 -0.5039
 5830SOL    HW117934   5.118   5.983   5.780 -0.3837  0.8392 -2.6484
 5830SOL    HW217935   5.119   5.834   5.755 -1.4474  0.5688 -1.1933
 5831SOL     OW17936   3.246   1.313   3.614 -0.4505  0.1908  0.1453
 5831SOL    HW117937   3.261   1.361   3.533 -1.9077 -0.9740 -0.8749
 5831SOL    HW217938   3.302   1.236   3.608 -1.0854 -0.2652 -0.1227
 5832SOL     OW17939   4.695   0.310   5.646 -0.2130  0.1576 -0.1842
 5832SOL    HW117940   4.650   0.318   5.561  1.3835  1.1448 -0.9908
 5832SOL    HW217941   4.784   0.286   5.623  0.3943  1.0002  1.2075
 5833SOL     OW17942   2.450   1.994   3.319  0.3273 -0.4949 -0.3008
 5833SOL    HW117943   2.511   1.956   3.256  1.4001 -1.2956  1.1478
 5833SOL    HW217944   2.506   2.046   3.378 -0.8534  1.7155 -1.0079
 5834SOL     OW17945   3.163   3.012   2.911 -0.2429 -0.4339  0.0238
 5834SOL    HW117946   3.163   3.078   2.980  1.1754  1.2259 -1.4334
 5834SOL    HW217947   3.086   3.035   2.857  0.3574  0.2081 -0.5888
 5835SOL     OW17948   5.462   5.474   1.780  0.2258  0.4046 -0.7225
 5835SOL    HW117949   5.476   5.548   1.720  0.0099  1.2271  0.2010
 5835SOL    HW217950   5.368   5.460   1.779  0.0460  1.3318  0.4228
 5836SOL     OW17951   0.700   4.794   2.287  0.1688  0.5737 -0.4137
 5836SOL    HW117952   0.744   4.710   2.271 -2.8834 -1.3872  0.5224
 5836SOL    HW217953   0.690   4.797   2.382 -2.7417  0.1916 -0.6055
 5837SOL     OW17954   1.207   2.596   2.374 -0.6651  0.3347 -0.0104
 5837SOL    HW117955   1.264   2.673   2.374  0.0539 -0.1834  0.7552
 5837SOL    HW217956   1.182   2.585   2.466  1.0379 -1.6312  0.2881
 5838SOL     OW17957   2.810   4.366   1.653  0.2552  0.2104  0.0916
 5838SOL    HW117958   2.831   4.424   1.580 -0.2364 -0.0942 -0.3023
 5838SOL    HW217959   2.895   4.332   1.682  0.3570 -1.0965 -1.5406
 5839SOL     OW17960   2.812   1.993   2.274  0.2910  0.4397  0.0328
 5839SOL    HW117961   2.827   1.993   2.179  1.0451 -0.7603  0.1332
 5839SOL    HW217962   2.880   2.051   2.309  0.1171  0.7526 -0.1496
 5840SOL     OW17963   2.890   3.109   2.281  0.6866 -0.4375  0.5519
 5840SOL    HW117964   2.926   3.065   2.204 -0.1847 -1.3192  0.6354
 5840SOL    HW217965   2.876   3.199   2.252 -2.7728 -1.4661 -1.4529
 5841SOL     OW17966   4.803   2.245   2.225  0.1884  0.2123  0.0050
 5841SOL    HW117967   4.833   2.332   2.252  0.2297 -0.0254  0.7394
 5841SOL    HW217968   4.709   2.245   2.245 -0.4281  1.0333 -2.4851
 5842SOL     OW17969   5.642   3.194   3.922  0.7371  0.0004 -0.5317
 5842SOL    HW117970   5.591   3.273   3.909 -1.5051 -1.2489  0.0665
 5842SOL    HW217971   5.696   3.186   3.843 -0.6170  0.9557 -1.5932
 5843SOL     OW17972   3.226   0.146   0.824  0.1209  0.1430 -0.3951
 5843SOL    HW117973   3.193   0.214   0.765  0.4854  0.8961  0.2585
 5843SOL    HW217974   3.296   0.189   0.874 -1.3792  0.1102  1.8860
 5844SOL     OW17975   5.910   1.327   4.591  0.1225  0.0426  0.4197
 5844SOL    HW117976   5.895   1.392   4.522 -0.5570 -0.4081  0.1180
 5844SOL    HW217977   5.946   1.376   4.664 -0.8484  0.8468  0.3787
 5845SOL     OW17978   3.690   3.671   0.553 -0.6493  0.4748  0.5214
 5845SOL    HW117979   3.758   3.643   0.615  0.9804  0.7064 -1.0701
 5845SOL    HW217980   3.707   3.764   0.540  0.8654 -0.0822 -2.2919
 5846SOL     OW17981   4.981   2.907   4.296  0.5339  0.1761  0.1464
 5846SOL    HW117982   5.057   2.932   4.348  1.4946 -2.9260  0.4244
 5846SOL    HW217983   4.919   2.871   4.360  1.0995 -2.2444 -0.5624
 5847SOL     OW17984   2.053   4.467   4.339  0.1673  0.0858 -0.0972
 5847SOL    HW117985   2.022   4.406   4.406  3.7014 -2.2741 -0.3616
 5847SOL    HW217986   2.103   4.532   4.387  0.6061 -0.1606 -0.2152
 5848SOL     OW17987   1.842   5.789   3.875 -0.5601  0.1618  0.0666
 5848SOL    HW117988   1.848   5.695   3.856  1.3004 -0.0140  1.3723
 5848SOL    HW217989   1.881   5.831   3.799 -0.6603 -0.1456 -0.1591
 5849SOL     OW17990   0.583   2.497   5.997 -0.8079 -0.1775 -0.1907
 5849SOL    HW117991   0.505   2.537   5.959  0.4451  1.8534 -0.8330
 5849SOL    HW217992   0.550   2.443   6.069 -2.8126  0.4057 -0.6013
 5850SOL     OW17993   1.137   2.421   5.644 -0.3221  0.4198 -0.1442
 5850SOL    HW117994   1.162   2.462   5.561  2.0967  0.2897  0.4219
 5850SOL    HW217995   1.210   2.443   5.703 -0.7029 -1.6651  1.1864
 5851SOL     OW17996   4.352   4.778   0.659  0.7725  0.6339  0.3729
 5851SOL    HW117997   4.358   4.729   0.577 -0.3460  1.6292 -0.3380
 5851SOL    HW217998   4.358   4.870   0.632 -0.0904  0.9872  1.3499
 5852SOL     OW17999   5.692   5.367   3.704 -0.2962  0.0214 -0.4052
 5852SOL    HW118000   5.751   5.401   3.771  0.1066  0.1538 -0.8228
 5852SOL    HW218001   5.698   5.430   3.632 -0.2739 -0.4278 -0.8021
 5853SOL     OW18002   2.627   3.218   2.965  0.3786  0.4010  0.2645
 5853SOL    HW118003   2.674   3.284   3.016 -0.1602  0.3798  0.8018
 5853SOL    HW218004   2.538   3.220   3.000 -0.0433  0.4909 -0.7830
 5854SOL     OW18005   2.886   1.444   5.898 -0.2826 -0.5029 -0.7766
 5854SOL    HW118006   2.908   1.536   5.908  0.9492 -0.8453 -0.1754
 5854SOL    HW218007   2.923   1.420   5.812  0.9666 -0.8523 -0.1643
 5855SOL     OW18008   2.698   3.594   4.507  0.1679  0.1574 -0.4443
 5855SOL    HW118009   2.783   3.605   4.464  0.9367 -1.1978  0.6290
 5855SOL    HW218010   2.691   3.500   4.523 -0.3956  0.5117  1.7017
 5856SOL     OW18011   0.995   3.613   0.317  0.3681 -0.3649 -0.2851
 5856SOL    HW118012   1.088   3.589   0.319  0.0733 -1.6649 -1.2098
 5856SOL    HW218013   0.961   3.572   0.238 -1.0013  0.1260  0.0202
 5857SOL     OW18014   0.793   3.303   5.005 -0.4827  0.6042 -0.3071
 5857SOL    HW118015   0.746   3.333   5.082 -0.9373  1.9267 -1.0633
 5857SOL    HW218016   0.770   3.366   4.936 -0.8816 -1.0786 -1.7887
 5858SOL     OW18017   3.685   5.725   0.596  0.1839 -0.3985 -0.1169
 5858SOL    HW118018   3.650   5.639   0.619 -1.5793  0.4974  0.7273
 5858SOL    HW218019   3.778   5.708   0.576 -0.1543 -2.5019 -0.1812
 5859SOL     OW18020   3.924   4.970   4.518  0.5575  0.2555 -0.5541
 5859SOL    HW118021   3.902   5.007   4.604  3.1621 -0.4886  0.5238
 5859SOL    HW218022   3.913   5.044   4.458 -3.6937  0.1995 -0.1228
 5860SOL     OW18023   0.393   1.145   4.381  0.1317  0.1520 -0.1700
 5860SOL    HW118024   0.429   1.057   4.368  0.7085  0.2266  0.8024
 5860SOL    HW218025   0.429   1.173   4.466  1.7881  2.2016 -1.4423
 5861SOL     OW18026   4.729   2.477   5.556  0.1012 -0.4462 -0.0684
 5861SOL    HW118027   4.704   2.565   5.529  2.8599  0.5533  0.3068
 5861SOL    HW218028   4.756   2.433   5.476  0.6972 -0.2212  0.0049
 5862SOL     OW18029   1.696   5.870   1.490  0.4871  0.2825 -0.3194
 5862SOL    HW118030   1.730   5.782   1.473 -0.2825  0.0777 -0.8545
 5862SOL    HW218031   1.774   5.924   1.504  0.9483 -0.5536  0.3634
 5863SOL     OW18032   0.216   5.289   1.432 -0.0762 -0.5650 -0.1576
 5863SOL    HW118033   0.130   5.249   1.415 -0.1494 -0.4295 -0.1062
 5863SOL    HW218034   0.199   5.353   1.501 -0.3384  0.9784 -1.6143
 5864SOL     OW18035   6.092   0.373   0.301 -0.1532  0.3345  0.2831
 5864SOL    HW118036   6.076   0.416   0.217 -0.3248 -0.0404  0.1202
 5864SOL    HW218037   6.186   0.355   0.302  0.2195  2.0976  1.0258
 5865SOL     OW18038   2.823   3.786   5.268  0.4561  0.3520 -0.4633
 5865SOL    HW118039   2.748   3.727   5.270 -0.1144  1.0322 -1.2480
 5865SOL    HW218040   2.869   3.765   5.187  0.6330  0.5201 -0.4102
 5866SOL     OW18041   2.640   1.256   5.911  0.4035  0.6427  0.3106
 5866SOL    HW118042   2.693   1.335   5.900  0.1027  1.0341  1.5561
 5866SOL    HW218043   2.589   1.272   5.990  0.0597 -0.6503  0.3713
 5867SOL     OW18044   4.253   4.177   2.089 -0.2748  0.4855 -0.1126
 5867SOL    HW118045   4.314   4.239   2.129 -0.2541  0.6507 -0.4022
 5867SOL    HW218046   4.184   4.167   2.155  1.7023 -2.3049  1.7165
 5868SOL     OW18047   4.754   4.604   4.094  0.1461 -0.0630 -0.3660
 5868SOL    HW118048   4.788   4.646   4.015 -0.1745  0.0354 -0.4537
 5868SOL    HW218049   4.659   4.608   4.084  0.1046 -1.0453 -0.5071
 5869SOL     OW18050   0.796   4.142   0.206 -0.6477 -0.2775  0.4375
 5869SOL    HW118051   0.861   4.073   0.189 -1.9796 -1.1864 -1.1200
 5869SOL    HW218052   0.746   4.109   0.281  0.9830  0.7062  2.0587
 5870SOL     OW18053   1.099   5.218   0.644  0.1322  0.0451 -0.1003
 5870SOL    HW118054   1.159   5.148   0.671 -1.7539 -1.7696 -0.4146
 5870SOL    HW218055   1.073   5.194   0.555 -1.4238  0.5302  0.2008
 5871SOL     OW18056   6.011   1.980   5.411 -0.3731  0.2295 -0.1632
 5871SOL    HW118057   6.047   2.061   5.446 -0.4869  0.9731 -1.6765
 5871SOL    HW218058   5.986   1.929   5.488 -0.4452  1.6928  0.8155
 5872SOL     OW18059   3.302   4.363   5.819  0.4045 -0.1952 -0.1064
 5872SOL    HW118060   3.287   4.367   5.725 -0.3855 -4.3885 -0.3735
 5872SOL    HW218061   3.219   4.330   5.855  1.1459 -0.0617  1.8720
 5873SOL     OW18062   1.770   5.363   4.584 -0.3184 -0.0127 -0.4181
 5873SOL    HW118063   1.801   5.406   4.505  0.9352  1.4789  0.8250
 5873SOL    HW218064   1.675   5.376   4.582 -0.1005  1.8656 -0.6716
 5874SOL     OW18065   5.455   1.021   4.999  0.0730 -0.8470  0.0143
 5874SOL    HW118066   5.458   0.970   5.080  2.0380 -1.2308 -0.2692
 5874SOL    HW218067   5.497   0.966   4.933 -2.0525 -0.7986 -1.4710
 5875SOL     OW18068   0.251   2.335   2.131  1.1685 -0.3630 -0.1758
 5875SOL    HW118069   0.304   2.372   2.060  1.6398 -0.0937  0.3147
 5875SOL    HW218070   0.177   2.295   2.086  0.6375  1.1541 -0.7495
 5876SOL     OW18071   5.323   1.805   4.770 -0.0249 -0.3140  0.0722
 5876SOL    HW118072   5.298   1.758   4.691  0.2522  1.1434 -0.9386
 5876SOL    HW218073   5.284   1.892   4.759  1.0375  0.3044  0.9425
 5877SOL     OW18074   2.953   1.602   0.767 -0.1783 -0.1800  0.4417
 5877SOL    HW118075   2.953   1.549   0.687 -1.9651 -0.6605  0.7244
 5877SOL    HW218076   2.870   1.650   0.764  1.2275  2.4399  0.3422
 5878SOL     OW18077   4.332   2.525   0.732 -0.9862 -0.2048 -0.2290
 5878SOL    HW118078   4.258   2.465   0.731 -3.9297  3.0877 -0.5752
 5878SOL    HW218079   4.308   2.590   0.799  1.8771  0.7436 -0.0054
 5879SOL     OW18080   4.069   0.922   1.858 -0.3238  0.0796 -0.0450
 5879SOL    HW118081   4.130   0.985   1.820  1.8870 -1.4432  0.7893
 5879SOL    HW218082   4.093   0.838   1.819 -2.2533 -0.5185 -0.0558
 5880SOL     OW18083   3.233   1.024   0.845 -0.0184  0.3934 -0.4769
 5880SOL    HW118084   3.216   1.082   0.919  1.6842  0.6939 -0.2814
 5880SOL    HW218085   3.160   0.962   0.846  0.2283  0.0511  1.7976
 5881SOL     OW18086   4.890   0.176   4.547  0.1424 -0.0014 -0.2786
 5881SOL    HW118087   4.958   0.185   4.613 -0.0692 -0.0392 -0.0568
 5881SOL    HW218088   4.922   0.108   4.488 -0.2457 -0.8533  0.4901
 5882SOL     OW18089   3.689   4.661   1.068 -0.2705 -0.2832  0.0518
 5882SOL    HW118090   3.604   4.631   1.099 -0.7154  1.3356  0.5224
 5882SOL    HW218091   3.752   4.614   1.122 -0.9867  0.8361  1.9688
 5883SOL     OW18092   1.652   0.761   1.919  0.3996 -0.7167  0.1331
 5883SOL    HW118093   1.734   0.716   1.935  0.5637 -0.3077  0.4401
 5883SOL    HW218094   1.677   0.850   1.895  0.0465 -0.5912  0.2199
 5884SOL     OW18095   1.780   5.484   6.061 -0.4966 -0.3816  0.0033
 5884SOL    HW118096   1.875   5.494   6.056 -0.5681  0.7126  0.4619
 5884SOL    HW218097   1.758   5.422   5.992  0.3675  0.6856 -1.2642
 5885SOL     OW18098   2.801   2.309   5.832 -0.4699  0.6439 -0.0022
 5885SOL    HW118099   2.887   2.350   5.837 -0.4399  0.8830 -1.8289
 5885SOL    HW218100   2.795   2.275   5.743 -1.6920 -0.6914  0.5400
 5886SOL     OW18101   5.227   1.079   0.611  0.6785 -0.2169 -0.5413
 5886SOL    HW118102   5.158   1.095   0.546  0.3712 -0.5004 -0.2912
 5886SOL    HW218103   5.264   0.995   0.585  0.3724 -0.4616 -0.1947
 5887SOL     OW18104   4.926   0.852   0.933 -0.1965  0.0216  0.3440
 5887SOL    HW118105   4.840   0.867   0.972 -0.7066 -0.4686 -0.5684
 5887SOL    HW218106   4.956   0.940   0.908 -1.5084 -0.0123 -1.5333
 5888SOL     OW18107   4.896   4.791   3.331  0.4803 -0.3153 -0.2034
 5888SOL    HW118108   4.863   4.701   3.326 -2.3502  0.5762  0.4598
 5888SOL    HW218109   4.986   4.782   3.364  1.1023 -2.9595 -2.2868
 5889SOL     OW18110   1.334   5.091   4.244 -0.8332 -0.0862 -0.6550
 5889SOL    HW118111   1.362   5.062   4.157 -1.5550 -0.3201 -0.8102
 5889SOL    HW218112   1.416   5.102   4.292 -0.1705  2.7367 -2.1817
 5890SOL     OW18113   0.452   2.732   0.033 -0.0676 -0.2914 -0.0576
 5890SOL    HW118114   0.467   2.697   0.121 -0.4144 -2.2995 -0.7470
 5890SOL    HW218115   0.366   2.699   0.008 -0.9033  1.9607 -0.4062
 5891SOL     OW18116   3.111   4.219   0.614 -0.0821 -0.0742  0.1895
 5891SOL    HW118117   3.036   4.247   0.561  0.2753  0.0060 -0.2854
 5891SOL    HW218118   3.114   4.124   0.603 -0.6104 -0.1712  0.8782
 5892SOL     OW18119   0.701   2.065   0.505  0.2946  0.3056  0.1954
 5892SOL    HW118120   0.667   1.979   0.480 -1.3327  0.7650  0.6900
 5892SOL    HW218121   0.796   2.054   0.506  0.1448 -1.3081 -0.3617
 5893SOL     OW18122   0.410   4.092   2.802  0.2746  0.0259  0.0429
 5893SOL    HW118123   0.427   4.169   2.748 -1.0640  1.0530  1.0037
 5893SOL    HW218124   0.351   4.123   2.871 -0.7844 -1.9810  0.1434
 5894SOL     OW18125   0.113   1.698   3.978 -0.1658  0.2678  0.5919
 5894SOL    HW118126   0.121   1.606   3.953  0.3504  0.2571  0.7872
 5894SOL    HW218127   0.153   1.703   4.064  0.2609  0.7760  0.3659
 5895SOL     OW18128   2.296   4.065   1.284 -0.1304 -0.2132  0.6993
 5895SOL    HW118129   2.377   4.020   1.258  0.1737  1.3113 -1.2230
 5895SOL    HW218130   2.284   4.042   1.376  2.1682 -0.9599  0.8748
 5896SOL     OW18131   0.558   2.682   4.549 -0.0690 -0.1544 -0.0456
 5896SOL    HW118132   0.651   2.663   4.539  0.2267 -0.0038  1.9884
 5896SOL    HW218133   0.514   2.614   4.498  1.1458  0.2082 -1.6428
 5897SOL     OW18134   2.110   2.031   2.256  0.0958  0.1338  0.5904
 5897SOL    HW118135   2.038   2.017   2.195  2.0212 -0.6741 -1.6421
 5897SOL    HW218136   2.083   2.107   2.308 -1.7175  0.7713 -1.1683
 5898SOL     OW18137   1.875   6.012   2.459  0.1175  0.0699 -0.0628
 5898SOL    HW118138   1.907   6.102   2.468  0.2312 -0.0478  0.7936
 5898SOL    HW218139   1.952   5.958   2.479 -0.6008 -0.2210  2.0507
 5899SOL     OW18140   3.376   2.564   1.079  0.5775 -0.0599 -0.0396
 5899SOL    HW118141   3.471   2.567   1.072  0.5205  2.4861 -0.6416
 5899SOL    HW218142   3.355   2.624   1.151 -0.6278  0.6513 -0.9389
 5900SOL     OW18143   2.759   1.739   2.678 -0.0468  0.0355  0.2476
 5900SOL    HW118144   2.735   1.698   2.596 -0.9098  1.5481 -0.2949
 5900SOL    HW218145   2.811   1.673   2.724 -0.2042 -1.1105 -1.1640
 5901SOL     OW18146   1.878   4.974   5.076 -0.0628 -0.0952  0.2176
 5901SOL    HW118147   1.913   4.899   5.027  0.2763 -0.5334  1.0999
 5901SOL    HW218148   1.821   4.935   5.142 -2.4465  0.6130 -1.2772
 5902SOL     OW18149   2.452   5.182   3.104  0.7867 -0.3699  0.1459
 5902SOL    HW118150   2.444   5.191   3.009 -0.2092 -1.0935  0.1407
 5902SOL    HW218151   2.546   5.181   3.121  0.9775  1.0507 -0.6881
 5903SOL     OW18152   2.808   1.552   1.041  0.3254 -0.1886 -0.4777
 5903SOL    HW118153   2.815   1.601   0.959 -0.7875 -0.9312 -1.0385
 5903SOL    HW218154   2.895   1.513   1.052  0.1158 -1.2016 -2.0490
 5904SOL     OW18155   1.765   3.582   0.095 -0.4532 -0.5684 -0.2984
 5904SOL    HW118156   1.850   3.601   0.135  0.0618 -2.7308 -0.2613
 5904SOL    HW218157   1.756   3.647   0.025  0.9895  0.0035  0.0231
 5905SOL     OW18158   5.444   3.677   4.109 -0.2575  0.1255  0.0452
 5905SOL    HW118159   5.362   3.726   4.102 -0.8203 -1.0986 -4.1640
 5905SOL    HW218160   5.505   3.724   4.052  1.3388 -0.2974  1.3358
 5906SOL     OW18161   4.395   3.806   5.837 -0.2599  0.2043  0.0554
 5906SOL    HW118162   4.320   3.793   5.895 -3.1750  0.7608 -3.1804
 5906SOL    HW218163   4.441   3.722   5.836 -1.1394 -0.3386  1.7394
 5907SOL     OW18164   3.254   4.462   0.955  0.1672  0.3551  0.6381
 5907SOL    HW118165   3.286   4.531   1.014 -0.3303  1.5048 -0.3952
 5907SOL    HW218166   3.313   4.465   0.880  1.4077 -1.7796  1.4521
 5908SOL     OW18167   3.836   0.048   1.960  0.5631  0.3654 -0.2276
 5908SOL    HW118168   3.866   0.045   1.869  3.2836 -0.9661  0.5920
 5908SOL    HW218169   3.907   0.093   2.006 -1.0326  1.5469  1.1910
 5909SOL     OW18170   0.293   1.465   2.797  0.8625  0.5802  0.1159
 5909SOL    HW118171   0.206   1.501   2.816  0.1876 -0.4078 -0.9651
 5909SOL    HW218172   0.332   1.451   2.883  0.0821  1.3285  0.6153
 5910SOL     OW18173   0.436   4.606   1.330 -0.1638 -0.1065 -0.2297
 5910SOL    HW118174   0.496   4.567   1.394  1.6224 -1.2731 -2.4361
 5910SOL    HW218175   0.391   4.531   1.291 -0.0206  0.3977 -1.4231
 5911SOL     OW18176   1.938   0.488   4.282  0.0519  0.4628 -0.1969
 5911SOL    HW118177   1.990   0.537   4.346 -0.0011  0.8766 -0.4666
 5911SOL    HW218178   1.921   0.404   4.324  2.6603 -0.5188 -0.8538
 5912SOL     OW18179   0.704   2.397   5.060  0.3064  0.2859 -0.1660
 5912SOL    HW118180   0.691   2.492   5.059  0.3419  0.3124  1.1858
 5912SOL    HW218181   0.643   2.365   5.126  0.7060 -0.5779 -0.2055
 5913SOL     OW18182   0.416   2.084   2.300 -0.0179 -0.1892  0.1211
 5913SOL    HW118183   0.359   2.013   2.268  0.7192 -0.5270 -0.4673
 5913SOL    HW218184   0.373   2.164   2.270 -1.6300 -0.2598  1.9941
 5914SOL     OW18185   1.645   3.622   1.947  0.0541 -0.3235  0.3467
 5914SOL    HW118186   1.577   3.633   1.880 -1.3046  1.1772  1.8772
 5914SOL    HW218187   1.726   3.611   1.897 -0.8333  1.1178 -1.5586
 5915SOL     OW18188   2.768   1.617   5.617 -0.5779  0.3946  0.0963
 5915SOL    HW118189   2.792   1.525   5.613 -1.7863  0.0883 -0.9592
 5915SOL    HW218190   2.847   1.664   5.590 -0.1936 -0.3781 -0.1537
 5916SOL     OW18191   3.432   2.119   2.658  0.0476 -0.2288 -0.6403
 5916SOL    HW118192   3.423   2.024   2.665  1.3180 -0.3821 -0.8683
 5916SOL    HW218193   3.497   2.132   2.590  1.6589  0.7227  0.9858
 5917SOL     OW18194   4.384   4.809   5.333  0.4565 -0.1606 -0.4717
 5917SOL    HW118195   4.362   4.889   5.287 -3.0316 -1.9131 -2.2097
 5917SOL    HW218196   4.424   4.753   5.267  1.5412 -0.4343  0.3726
 5918SOL     OW18197   0.198   1.859   1.355 -0.2608 -0.4491  0.0134
 5918SOL    HW118198   0.176   1.948   1.327  1.6705  0.9220  2.4605
 5918SOL    HW218199   0.265   1.829   1.293 -1.5681 -0.6204 -1.3624
 5919SOL     OW18200   5.612   2.596   5.083  0.7158 -0.1984  0.4750
 5919SOL    HW118201   5.555   2.617   5.010  0.5200  0.8601  0.9069
 5919SOL    HW218202   5.564   2.529   5.133 -0.2719  0.8295  0.9502
 5920SOL     OW18203   1.663   2.884   0.080 -0.0515  0.5276  0.4956
 5920SOL    HW118204   1.653   2.796   0.043  0.5658  0.0055  1.5135
 5920SOL    HW218205   1.756   2.905   0.067 -0.2894  1.2473 -0.1682
 5921SOL     OW18206   5.753   0.459   3.630 -0.4452 -0.3741  0.6414
 5921SOL    HW118207   5.687   0.441   3.563 -0.6982 -0.2189  0.8422
 5921SOL    HW218208   5.807   0.528   3.593 -0.6959 -0.1619  0.6663
 5922SOL     OW18209   4.005   0.025   2.423  0.0201  0.0728 -0.0943
 5922SOL    HW118210   4.026   0.055   2.512 -1.3125  1.2533 -0.1332
 5922SOL    HW218211   4.075   0.061   2.369  0.4291 -0.0061  0.3729
 5923SOL     OW18212   3.726   1.415   3.610 -0.6327  0.0673  0.1043
 5923SOL    HW118213   3.761   1.407   3.521 -1.1899  1.7273 -0.2915
 5923SOL    HW218214   3.803   1.429   3.665 -0.3939  0.2660 -0.2814
 5924SOL     OW18215   3.833   4.402   4.872  0.1830 -0.0177  0.3579
 5924SOL    HW118216   3.784   4.323   4.849 -3.1098  2.2347 -1.2315
 5924SOL    HW218217   3.851   4.444   4.788  3.0294  0.4076  1.0745
 5925SOL     OW18218   2.604   1.142   3.302 -0.1920  0.3114  0.2918
 5925SOL    HW118219   2.666   1.104   3.240 -0.2138  3.6769 -2.0441
 5925SOL    HW218220   2.655   1.209   3.348 -1.1534  0.4866  1.1256
 5926SOL     OW18221   4.721   5.626   4.146  0.3026 -0.1781  0.0312
 5926SOL    HW118222   4.727   5.576   4.228 -2.1857 -1.4108 -0.4421
 5926SOL    HW218223   4.720   5.717   4.173  2.5608 -0.4037  1.1060
 5927SOL     OW18224   4.564   5.028   1.512 -0.0148 -0.2169  0.1155
 5927SOL    HW118225   4.497   5.085   1.550 -0.8871 -0.2378 -1.3069
 5927SOL    HW218226   4.532   4.939   1.530 -0.3373 -0.2272 -0.4883
 5928SOL     OW18227   0.894   2.590   4.973  0.4356  0.0813 -0.0442
 5928SOL    HW118228   0.912   2.569   4.882  1.0100  1.5227 -0.2974
 5928SOL    HW218229   0.905   2.508   5.020  1.2719 -0.4418 -1.1157
 5929SOL     OW18230   5.053   3.903   1.171  0.2452 -0.0982 -0.4378
 5929SOL    HW118231   5.014   3.836   1.114 -0.5310 -0.1536  0.1418
 5929SOL    HW218232   5.069   3.858   1.254  0.9679  0.0927 -0.4676
 5930SOL     OW18233   4.232   2.115   3.541  0.3098 -0.8069  0.0149
 5930SOL    HW118234   4.182   2.150   3.614 -0.9660  1.0143 -1.6275
 5930SOL    HW218235   4.291   2.050   3.581 -1.2006 -0.8115  2.4335
 5931SOL     OW18236   2.548   3.808   2.338  0.0561  0.3060 -0.1148
 5931SOL    HW118237   2.538   3.841   2.249  4.0901 -1.6892 -1.5403
 5931SOL    HW218238   2.466   3.761   2.356 -0.5294 -0.0168 -3.1342
 5932SOL     OW18239   4.913   1.297   2.725 -0.1243 -0.5374 -0.1148
 5932SOL    HW118240   4.910   1.215   2.675 -0.3569 -0.6701  0.1153
 5932SOL    HW218241   4.992   1.341   2.693 -0.1768 -0.7003 -0.4755
 5933SOL     OW18242   3.146   4.111   5.757  0.4423 -0.2122 -0.4784
 5933SOL    HW118243   3.201   4.040   5.724  1.0768 -0.4920  1.0789
 5933SOL    HW218244   3.100   4.145   5.680 -0.9027 -3.1720 -1.1121
 5934SOL     OW18245   1.346   0.695   4.545  0.2354 -0.1186  0.4180
 5934SOL    HW118246   1.431   0.719   4.507 -0.4403 -0.4088 -1.3693
 5934SOL    HW218247   1.286   0.762   4.513  0.0610  1.1948  3.2064
 5935SOL     OW18248   4.674   3.671   3.711 -0.0495 -0.1113 -0.0307
 5935SOL    HW118249   4.699   3.712   3.628  3.5848 -0.0275  0.8926
 5935SOL    HW218250   4.662   3.579   3.690  1.3547 -0.1870 -0.6391
 5936SOL     OW18251   5.879   5.375   3.928 -0.2151 -0.0079 -0.1428
 5936SOL    HW118252   5.883   5.410   4.017  0.7662 -0.0480 -0.1585
 5936SOL    HW218253   5.846   5.286   3.938 -0.1027 -0.0131  0.1845
 5937SOL     OW18254   0.765   4.898   1.005  0.5148  0.3696  0.0018
 5937SOL    HW118255   0.695   4.852   1.050  0.0267  0.4570 -0.6424
 5937SOL    HW218256   0.789   4.969   1.064  1.8898 -1.1869  1.4058
 5938SOL     OW18257   0.773   1.604   5.116  0.2846 -0.2329 -0.0698
 5938SOL    HW118258   0.757   1.646   5.201  0.2900 -0.8328  0.2392
 5938SOL    HW218259   0.867   1.616   5.101  0.8093 -2.1305  1.1655
 5939SOL     OW18260   3.760   5.919   5.629 -0.4596 -0.1226 -0.6178
 5939SOL    HW118261   3.758   5.920   5.534  0.0208  2.2790 -0.6672
 5939SOL    HW218262   3.746   6.010   5.654 -3.5657 -1.0556  1.7056
 5940SOL     OW18263   3.180   3.893   2.889 -0.0092 -0.3202 -0.1712
 5940SOL    HW118264   3.176   3.810   2.843  0.0707 -0.2482 -0.3081
 5940SOL    HW218265   3.089   3.912   2.913 -0.4583  0.8705 -2.4912
 5941SOL     OW18266   0.763   1.787   4.542  0.0204 -1.0831 -1.0785
 5941SOL    HW118267   0.722   1.713   4.498 -0.4339 -1.5499  0.1023
 5941SOL    HW218268   0.690   1.841   4.571  0.2788 -1.2169 -0.1660
 5942SOL     OW18269   2.671   5.554   1.341  0.6947  0.0392 -1.0945
 5942SOL    HW118270   2.749   5.581   1.292  1.5857  0.5506  0.5034
 5942SOL    HW218271   2.704   5.535   1.429 -1.0700  0.8699 -0.2007
 5943SOL     OW18272   2.859   1.086   2.078 -0.5965  0.4304 -0.1103
 5943SOL    HW118273   2.811   1.163   2.109 -0.3798 -0.0498  1.4687
 5943SOL    HW218274   2.812   1.012   2.115 -1.0756 -0.2744 -1.9802
 5944SOL     OW18275   3.139   4.548   2.290 -0.0498  0.1593  0.3519
 5944SOL    HW118276   3.134   4.493   2.368  0.4656  0.8139  0.8684
 5944SOL    HW218277   3.193   4.499   2.229 -1.9368 -1.1845 -0.3311
 5945SOL     OW18278   4.099   3.725   3.986 -0.0076  0.3381 -0.0365
 5945SOL    HW118279   4.192   3.747   3.994 -0.1745  1.2466 -0.4826
 5945SOL    HW218280   4.092   3.638   4.026  0.8124  0.7689  1.1133
 5946SOL     OW18281   0.628   2.858   5.978 -0.8742 -0.2788  0.2801
 5946SOL    HW118282   0.669   2.776   5.949 -2.1385 -0.1620 -2.1265
 5946SOL    HW218283   0.573   2.832   6.052 -1.2043 -1.6172 -0.3925
 5947SOL     OW18284   5.249   4.323   0.790  0.6103 -0.0940  0.1538
 5947SOL    HW118285   5.284   4.254   0.847  0.9655 -0.0253  0.0252
 5947SOL    HW218286   5.224   4.393   0.849 -1.0221 -0.8426  0.4204
 5948SOL     OW18287   1.158   1.201   1.649  0.2265 -0.1311 -0.1397
 5948SOL    HW118288   1.096   1.256   1.601  0.0892 -0.5580 -0.4580
 5948SOL    HW218289   1.107   1.165   1.721 -0.2166 -1.3840 -1.0492
 5949SOL     OW18290   2.832   0.347   4.381 -0.3028 -0.5278  0.0046
 5949SOL    HW118291   2.911   0.375   4.428 -0.6815  0.5085  0.0518
 5949SOL    HW218292   2.792   0.429   4.352 -0.5580 -1.1028 -1.3447
 5950SOL     OW18293   5.977   6.130   3.732  0.4240 -0.2224 -0.1316
 5950SOL    HW118294   5.900   6.153   3.785 -0.5439 -0.2340 -1.4926
 5950SOL    HW218295   6.028   6.210   3.728 -0.6973  0.4717 -1.1423
 5951SOL     OW18296   3.942   5.035   1.081  0.3495 -0.1526  0.6919
 5951SOL    HW118297   3.893   5.029   0.999  1.1109 -2.1332  0.3121
 5951SOL    HW218298   4.001   5.109   1.069 -0.3296  0.2807 -0.0909
 5952SOL     OW18299   6.094   6.022   5.360  0.0990 -0.4626  0.3367
 5952SOL    HW118300   6.189   6.028   5.358  0.2523 -1.4668  2.1992
 5952SOL    HW218301   6.076   5.939   5.404 -1.6454 -0.0001  0.5854
 5953SOL     OW18302   5.581   5.750   4.316 -0.4439 -0.0932 -0.5843
 5953SOL    HW118303   5.524   5.826   4.307 -1.4474 -0.6168  1.0407
 5953SOL    HW218304   5.523   5.679   4.344  0.4685 -1.4795 -2.0107
 5954SOL     OW18305   3.311   1.717   3.516  0.3437 -0.3191  0.1295
 5954SOL    HW118306   3.389   1.672   3.548  0.2747 -1.6689 -1.4693
 5954SOL    HW218307   3.257   1.730   3.594  0.8293 -2.1402  0.8206
 5955SOL     OW18308   1.842   2.363   0.497 -0.0961  0.0731  0.6258
 5955SOL    HW118309   1.783   2.422   0.451 -0.7728 -0.3806  0.9064
 5955SOL    HW218310   1.795   2.279   0.500  0.2159 -0.0754  1.5733
 5956SOL     OW18311   1.243   0.639   0.437  0.2174  0.4402 -0.5926
 5956SOL    HW118312   1.309   0.708   0.424 -1.2460  2.3177  1.3249
 5956SOL    HW218313   1.265   0.601   0.522  0.8748 -1.4104 -1.5353
 5957SOL     OW18314   5.165   2.712   5.753 -0.9333 -0.2302 -0.1090
 5957SOL    HW118315   5.107   2.661   5.811 -1.9588  0.3445 -0.5944
 5957SOL    HW218316   5.253   2.690   5.782 -1.3891 -1.1768  0.6283
 5958SOL     OW18317   0.220   3.439   5.118 -0.5469 -0.4546  0.2200
 5958SOL    HW118318   0.282   3.412   5.186 -1.7873 -2.2046  0.7345
 5958SOL    HW218319   0.259   3.518   5.080  1.8083 -1.2737  0.7391
 5959SOL     OW18320   4.763   2.909   1.431 -0.3113 -0.0443  0.3359
 5959SOL    HW118321   4.689   2.872   1.383  1.5433 -1.2706 -1.7718
 5959SOL    HW218322   4.821   2.944   1.363  0.6986  1.6327  1.9535
 5960SOL     OW18323   3.500   3.908   4.198  0.5967 -0.4833  0.3156
 5960SOL    HW118324   3.545   3.989   4.222 -2.6410  1.5519  0.0297
 5960SOL    HW218325   3.423   3.936   4.149 -0.7538 -3.7490  0.3040
 5961SOL     OW18326   1.173   5.258   2.240  0.2189 -0.0183  0.0903
 5961SOL    HW118327   1.157   5.171   2.277 -0.9109 -0.5095 -1.4404
 5961SOL    HW218328   1.267   5.260   2.225  0.2636 -0.9730  0.1723
 5962SOL     OW18329   5.000   3.000   2.418 -0.4099 -0.5285 -0.3768
 5962SOL    HW118330   5.075   2.980   2.473 -0.6158 -1.2174 -0.3324
 5962SOL    HW218331   4.988   3.094   2.427  0.1291 -0.4936  0.0244
 5963SOL     OW18332   4.894   3.915   3.928  0.0516  0.4234  0.3307
 5963SOL    HW118333   4.908   3.958   4.012 -0.5532 -0.2883  0.8061
 5963SOL    HW218334   4.872   3.986   3.868  1.6446  1.0860  0.4728
 5964SOL     OW18335   5.951   4.008   3.238 -0.4903 -0.0088 -0.3737
 5964SOL    HW118336   5.946   3.958   3.319 -0.4953 -1.5372 -1.2820
 5964SOL    HW218337   5.885   4.077   3.248  0.4854  0.7176  1.4649
 5965SOL     OW18338   5.287   1.319   3.200  0.4371 -0.0640  0.5567
 5965SOL    HW118339   5.218   1.353   3.144  0.6642  0.0361  0.3366
 5965SOL    HW218340   5.335   1.257   3.145  0.0713 -0.6980  0.9303
 5966SOL     OW18341   2.583   0.601   2.946 -0.6544 -0.2967  0.2602
 5966SOL    HW118342   2.665   0.569   2.909 -0.9070 -0.9967  0.2812
 5966SOL    HW218343   2.598   0.600   3.041  0.0918  1.7693  0.2108
 5967SOL     OW18344   5.513   1.522   5.143  0.3154 -0.2282  0.3787
 5967SOL    HW118345   5.538   1.493   5.232 -0.8554 -1.4835  0.3381
 5967SOL    HW218346   5.468   1.446   5.106  1.7246 -0.0972 -1.7023
 5968SOL     OW18347   2.239   5.998   3.980  0.1806 -0.0903  0.7882
 5968SOL    HW118348   2.299   6.064   3.945 -1.2416  1.1962  0.6788
 5968SOL    HW218349   2.296   5.927   4.010  1.6154 -0.3159 -2.1195
 5969SOL     OW18350   2.482   2.445   3.252 -0.2673  0.1201  0.6751
 5969SOL    HW118351   2.395   2.442   3.292 -0.7401 -0.1586 -0.3353
 5969SOL    HW218352   2.484   2.368   3.195  0.3878  0.4948  0.1845
 5970SOL     OW18353   0.535   5.983   5.282  0.1444 -0.0583  0.0772
 5970SOL    HW118354   0.563   6.020   5.198 -0.3655  0.6815  0.2201
 5970SOL    HW218355   0.612   5.993   5.339  0.4626 -0.4871 -0.2785
 5971SOL     OW18356   0.096   1.917   4.986 -0.4512  0.3038  0.4458
 5971SOL    HW118357   0.152   1.989   4.959  0.1680 -0.2320  0.2852
 5971SOL    HW218358   0.039   1.901   4.911 -0.5870  0.6162  0.4799
 5972SOL     OW18359   5.342   0.136   5.287 -0.5212 -0.5308  0.4341
 5972SOL    HW118360   5.413   0.072   5.290 -1.0902 -1.1981  0.0835
 5972SOL    HW218361   5.273   0.098   5.340 -0.0443  0.8725  2.1333
 5973SOL     OW18362   4.111   5.702   2.662 -0.6029 -0.1225  0.4690
 5973SOL    HW118363   4.118   5.757   2.584 -0.6147  0.6262  0.9822
 5973SOL    HW218364   4.172   5.630   2.646 -1.7908 -0.8675 -0.9346
 5974SOL     OW18365   4.834   0.997   4.171 -0.2250  0.4804 -0.1730
 5974SOL    HW118366   4.823   0.953   4.087 -1.5295 -0.2542  0.3497
 5974SOL    HW218367   4.914   1.049   4.161  1.0443 -1.5239 -1.0138
 5975SOL     OW18368   6.016   3.100   0.981 -0.3433  0.3058  0.0711
 5975SOL    HW118369   5.943   3.143   1.026 -0.9733  0.0762 -0.7025
 5975SOL    HW218370   5.975   3.055   0.908  0.6758  0.8024 -0.8322
 5976SOL     OW18371   4.460   3.977   1.069 -0.6140 -0.7113 -0.1265
 5976SOL    HW118372   4.395   4.048   1.066  2.5866  2.4791 -0.8769
 5976SOL    HW218373   4.507   3.992   1.151  1.0585 -1.0271 -0.9960
 5977SOL     OW18374   1.952   6.020   3.321  0.3295  0.5586 -0.0784
 5977SOL    HW118375   1.886   6.088   3.311 -1.0982 -0.9792 -1.9902
 5977SOL    HW218376   2.034   6.062   3.293  0.0357  2.2191  1.4040
 5978SOL     OW18377   4.485   5.242   2.927  0.2278  0.6706  0.6213
 5978SOL    HW118378   4.572   5.209   2.949  0.9955  0.8225 -1.9433
 5978SOL    HW218379   4.498   5.334   2.905 -0.7099  0.8650  0.8060
 5979SOL     OW18380   0.493   5.975   3.735 -0.0460  0.3763  0.0612
 5979SOL    HW118381   0.489   6.028   3.655  0.4825  1.6867  0.8752
 5979SOL    HW218382   0.426   5.907   3.721  0.6749 -0.0150 -1.8729
 5980SOL     OW18383   2.604   2.243   5.108 -0.1203 -0.0987  0.5364
 5980SOL    HW118384   2.693   2.211   5.119 -0.4570 -0.4624  2.5505
 5980SOL    HW218385   2.565   2.185   5.042  0.7585 -0.7052  0.5397
 5981SOL     OW18386   2.287   4.778   0.202  0.3108 -0.3858  0.3526
 5981SOL    HW118387   2.266   4.754   0.292  1.9321  3.1734  1.8778
 5981SOL    HW218388   2.383   4.778   0.199  0.2895 -0.1271 -1.2796
 5982SOL     OW18389   0.476   5.200   3.982  0.3967  0.3039 -0.1965
 5982SOL    HW118390   0.511   5.245   4.059  0.4997  1.2276 -0.7716
 5982SOL    HW218391   0.472   5.108   4.008 -0.9044  0.7661  1.4224
 5983SOL     OW18392   4.745   0.898   2.698  0.2980  0.5361 -0.4167
 5983SOL    HW118393   4.657   0.922   2.669 -0.1651  0.5877  0.9595
 5983SOL    HW218394   4.736   0.807   2.729  0.4731  0.8656  0.6537
 5984SOL     OW18395   0.226   0.510   0.637  0.0331  0.2044 -0.1486
 5984SOL    HW118396   0.288   0.557   0.581 -0.5544  1.3700  0.1314
 5984SOL    HW218397   0.217   0.566   0.715  1.2297 -1.6201  1.3942
 5985SOL     OW18398   3.844   4.043   5.334 -0.2733 -0.2677 -0.2213
 5985SOL    HW118399   3.786   4.067   5.406  2.5156  0.1275  2.0499
 5985SOL    HW218400   3.929   4.079   5.358  1.1038 -1.2857 -3.1046
 5986SOL     OW18401   4.384   5.627   1.216 -0.1957  0.7833  0.0759
 5986SOL    HW118402   4.432   5.699   1.176  1.0223 -0.7602 -1.4167
 5986SOL    HW218403   4.447   5.588   1.278  0.0425 -0.4136 -0.8790
 5987SOL     OW18404   0.578   3.333   1.855 -0.4541 -0.3293 -0.5506
 5987SOL    HW118405   0.605   3.251   1.814 -1.6158 -1.9788  1.8092
 5987SOL    HW218406   0.607   3.326   1.946 -3.6163  0.2900  0.6197
 5988SOL     OW18407   5.314   1.530   0.088 -0.3042  0.0334  0.1533
 5988SOL    HW118408   5.262   1.573   0.021  1.0229  1.5089  0.0083
 5988SOL    HW218409   5.403   1.527   0.052  0.0010 -1.1807  0.9381
 5989SOL     OW18410   1.956   2.590   3.879 -0.2849  0.3033 -0.1187
 5989SOL    HW118411   1.876   2.546   3.850  0.5191 -0.0150 -2.0400
 5989SOL    HW218412   2.006   2.522   3.924  0.3694 -0.4678 -1.9215
 5990SOL     OW18413   3.360   4.613   1.763  0.3246 -0.1175  0.5379
 5990SOL    HW118414   3.428   4.554   1.796 -0.2229 -0.9304  0.2599
 5990SOL    HW218415   3.404   4.696   1.749  1.7928 -1.1558 -1.5943
 5991SOL     OW18416   2.728   2.948   5.078  0.6369 -0.3820 -0.1064
 5991SOL    HW118417   2.757   3.037   5.058 -0.2275 -0.1141 -0.1950
 5991SOL    HW218418   2.633   2.955   5.087  0.4524 -1.4582 -1.0012
 5992SOL     OW18419   2.234   1.027   5.289 -0.4984  0.0846  0.1821
 5992SOL    HW118420   2.243   1.116   5.256  0.6325 -0.1956 -0.2805
 5992SOL    HW218421   2.228   0.972   5.211 -0.0342 -0.3566  0.4528
 5993SOL     OW18422   0.877   3.914   3.557  0.4833  0.1411 -0.4123
 5993SOL    HW118423   0.941   3.844   3.572 -0.5462 -0.4834  1.3507
 5993SOL    HW218424   0.913   3.989   3.604  0.5468  0.1723 -0.5102
 5994SOL     OW18425   0.777   1.976   4.778 -0.1574 -0.7572 -0.2324
 5994SOL    HW118426   0.713   2.032   4.733  1.0934  0.0386 -1.0809
 5994SOL    HW218427   0.724   1.912   4.825 -1.6318  0.9206  0.4919
 5995SOL     OW18428   5.530   4.578   5.220 -0.1302  0.4193 -0.0086
 5995SOL    HW118429   5.497   4.536   5.300 -0.5319  0.5193 -0.1174
 5995SOL    HW218430   5.625   4.580   5.231 -0.0414 -1.0829 -0.2735
 5996SOL     OW18431   0.622   5.996   2.513 -0.3294 -0.5653  0.3609
 5996SOL    HW118432   0.716   6.012   2.507 -0.1723 -1.3206  0.6991
 5996SOL    HW218433   0.609   5.966   2.604 -0.8776 -0.5644  0.2854
 5997SOL     OW18434   0.519   3.114   2.841  0.1444  0.0041 -0.3410
 5997SOL    HW118435   0.546   3.039   2.895  0.2791  0.7124  0.6160
 5997SOL    HW218436   0.450   3.156   2.892  0.2005  0.6348 -0.7763
 5998SOL     OW18437   4.295   0.618   3.454  0.2115 -0.0740 -0.1549
 5998SOL    HW118438   4.241   0.539   3.460  1.1988 -0.9681 -1.9875
 5998SOL    HW218439   4.376   0.594   3.500  0.2778  0.1039 -0.1805
 5999SOL     OW18440   5.594   1.400   4.806  0.1957 -0.4779  0.3215
 5999SOL    HW118441   5.690   1.400   4.809  0.2079  0.1992  0.1393
 5999SOL    HW218442   5.572   1.318   4.761  0.8645  1.2259 -3.5378
 6000SOL     OW18443   3.096   5.411   1.564  0.1538 -0.4124 -0.0288
 6000SOL    HW118444   3.108   5.350   1.638 -0.6836 -0.8773 -0.2587
 6000SOL    HW218445   3.182   5.414   1.522  0.7428  0.1149  1.1489
 6001SOL     OW18446   2.044   5.604   4.163  0.1980  0.0793 -0.6071
 6001SOL    HW118447   2.114   5.591   4.226 -0.3449  1.3808  0.2975
 6001SOL    HW218448   1.963   5.596   4.214 -0.2522  1.0076 -1.1562
 6002SOL     OW18449   5.952   0.657   3.153 -0.1177 -0.0207  0.0148
 6002SOL    HW118450   5.895   0.591   3.114 -0.5892  0.0157  0.6367
 6002SOL    HW218451   5.996   0.698   3.078 -1.0208  0.0556 -0.4793
 6003SOL     OW18452   4.399   4.535   5.488  0.0017 -0.3396  0.2928
 6003SOL    HW118453   4.370   4.462   5.541 -2.3039  0.4960  0.2797
 6003SOL    HW218454   4.446   4.592   5.549 -1.0662 -0.2518  1.0575
 6004SOL     OW18455   5.400   1.536   4.263  0.0855  0.5079  0.0873
 6004SOL    HW118456   5.467   1.508   4.326  1.0904  3.1665  0.3409
 6004SOL    HW218457   5.425   1.493   4.181  0.4986 -0.6681  0.7977
 6005SOL     OW18458   4.327   3.163   2.943 -0.4383  0.3839 -0.2277
 6005SOL    HW118459   4.270   3.212   3.003  0.2790  1.3308 -0.2879
 6005SOL    HW218460   4.289   3.179   2.856 -1.2717 -0.6985 -0.0844
 6006SOL     OW18461   0.597   4.958   4.989  0.5470  0.1262 -0.1164
 6006SOL    HW118462   0.603   4.901   4.913 -2.1427  3.1154 -2.8643
 6006SOL    HW218463   0.504   4.957   5.012  0.9717  0.9514  1.8684
 6007SOL     OW18464   4.983   3.458   5.445 -0.1427 -0.1988  0.1138
 6007SOL    HW118465   5.019   3.521   5.383 -2.2017  1.4004  0.4060
 6007SOL    HW218466   5.045   3.385   5.445  2.2814  1.7220 -0.3956
 6008SOL     OW18467   3.953   5.378   5.702  0.2646 -0.3253 -0.2700
 6008SOL    HW118468   3.986   5.465   5.680 -0.3992 -0.3267 -1.3100
 6008SOL    HW218469   4.021   5.341   5.758 -0.5880  1.8176  2.4388
 6009SOL     OW18470   5.536   3.750   1.106 -0.9562  0.0506 -0.0674
 6009SOL    HW118471   5.503   3.832   1.142 -1.0858 -0.6136  1.3983
 6009SOL    HW218472   5.486   3.682   1.152  1.0306 -0.9201  0.7485
 6010SOL     OW18473   3.850   2.266   3.554 -0.3715  0.3188  0.0387
 6010SOL    HW118474   3.859   2.258   3.459  0.7942 -0.9161  0.2205
 6010SOL    HW218475   3.918   2.209   3.590  0.1870  1.8617  1.6194
 6011SOL     OW18476   4.755   4.413   2.516  0.1072  0.2925  0.5445
 6011SOL    HW118477   4.841   4.374   2.528  0.0562 -1.1637 -2.8314
 6011SOL    HW218478   4.694   4.351   2.557  0.3397 -1.3943 -1.5058
 6012SOL     OW18479   5.516   0.963   5.991  0.5301 -0.8190  0.0306
 6012SOL    HW118480   5.575   0.918   6.051  2.1375  1.2287  0.1210
 6012SOL    HW218481   5.507   1.051   6.028 -2.4273 -0.9486 -0.1390
 6013SOL     OW18482   6.010   0.805   4.092 -0.2777 -1.0089 -0.0183
 6013SOL    HW118483   5.970   0.864   4.028 -1.1592  0.9767  2.1829
 6013SOL    HW218484   6.102   0.802   4.067  0.0744  2.3834  0.3978
 6014SOL     OW18485   4.410   2.052   3.144 -0.3665 -0.0711 -0.0211
 6014SOL    HW118486   4.444   2.094   3.064  0.4948  0.2291  0.4865
 6014SOL    HW218487   4.489   2.028   3.193 -0.8323 -2.2516 -0.2578
 6015SOL     OW18488   3.326   5.662   2.422  0.2966  0.0212  0.1796
 6015SOL    HW118489   3.331   5.745   2.375 -0.3065 -0.9147 -1.6509
 6015SOL    HW218490   3.412   5.651   2.462  0.8674  0.8362 -0.7934
 6016SOL     OW18491   4.458   5.804   2.972  0.2172  0.1594  0.2284
 6016SOL    HW118492   4.464   5.851   2.889  2.6776 -1.9617 -0.9123
 6016SOL    HW218493   4.508   5.857   3.034 -0.2120  0.8993 -0.0443
 6017SOL     OW18494   0.831   2.724   0.077 -0.1890  0.1688 -1.3041
 6017SOL    HW118495   0.788   2.644   0.046  0.2911 -0.2744 -0.8487
 6017SOL    HW218496   0.768   2.762   0.138  1.5087 -2.5694  2.5278
 6018SOL     OW18497   5.187   3.743   3.499 -0.4693  0.0486  0.0621
 6018SOL    HW118498   5.163   3.809   3.565 -1.4221 -0.4782  0.2627
 6018SOL    HW218499   5.165   3.784   3.415 -0.9158  0.0447  0.1757
 6019SOL     OW18500   3.066   5.976   5.379 -0.7778  0.7833  0.0864
 6019SOL    HW118501   2.998   6.041   5.359  0.5173  1.5054 -2.4660
 6019SOL    HW218502   3.062   5.915   5.305 -1.3327 -1.6099  1.9732
 6020SOL     OW18503   5.309   2.725   0.451 -0.0345  0.1917  0.0951
 6020SOL    HW118504   5.336   2.644   0.408 -0.3419  0.2169 -0.1455
 6020SOL    HW218505   5.388   2.754   0.498 -0.0472 -0.4677  0.5383
 6021SOL     OW18506   1.784   4.422   4.446 -0.4337 -0.4228  0.3318
 6021SOL    HW118507   1.735   4.397   4.367 -0.1707 -1.8792  0.6211
 6021SOL    HW218508   1.804   4.515   4.432 -1.0022 -0.4754 -0.9898
 6022SOL     OW18509   3.023   4.654   2.057 -0.2632  0.1365 -0.0037
 6022SOL    HW118510   3.065   4.591   2.116  0.0148 -0.3324 -0.6918
 6022SOL    HW218511   2.965   4.600   2.002 -0.6801  0.5942 -0.0244
 6023SOL     OW18512   3.521   6.049   4.877 -0.0506 -0.5318 -0.1002
 6023SOL    HW118513   3.572   6.120   4.916  2.0701 -1.0852 -1.6755
 6023SOL    HW218514   3.497   5.993   4.951  1.7055 -0.2649  0.7209
 6024SOL     OW18515   2.545   5.338   2.274  0.0583 -0.2622 -0.6322
 6024SOL    HW118516   2.548   5.317   2.367 -0.0362  1.1233 -0.2975
 6024SOL    HW218517   2.532   5.254   2.231  1.8983 -1.1709  0.4807
 6025SOL     OW18518   1.871   0.397   5.977 -0.5686  0.1408 -0.5183
 6025SOL    HW118519   1.815   0.379   5.901 -1.8030  1.7660 -0.0751
 6025SOL    HW218520   1.832   0.346   6.048 -2.3396  2.1712  0.0766
 6026SOL     OW18521   1.605   0.257   3.681 -0.3173  1.0210 -0.0933
 6026SOL    HW118522   1.570   0.334   3.637  0.4406  0.8134 -1.1134
 6026SOL    HW218523   1.696   0.280   3.702 -0.3289  0.6973  0.3135
 6027SOL     OW18524   0.758   2.120   4.248 -0.2334 -0.3644 -0.1273
 6027SOL    HW118525   0.737   2.169   4.327  0.4344 -1.7746  0.9742
 6027SOL    HW218526   0.688   2.141   4.187 -0.7623  0.7696  0.8356
 6028SOL     OW18527   2.472   1.001   5.405  0.2223  0.1463  0.0701
 6028SOL    HW118528   2.378   0.997   5.387  0.2978  0.3464 -0.3783
 6028SOL    HW218529   2.512   0.955   5.331  0.6578  2.4910 -1.2493
 6029SOL     OW18530   5.905   0.837   6.105 -0.2682 -0.2710  0.1124
 6029SOL    HW118531   5.832   0.883   6.147  1.4283  0.6702  2.2310
 6029SOL    HW218532   5.927   0.766   6.166  1.7505  0.6367  0.5368
 6030SOL     OW18533   0.352   1.459   0.679 -0.1990  0.0604  0.4062
 6030SOL    HW118534   0.350   1.438   0.772  2.0966  1.2580  0.8021
 6030SOL    HW218535   0.294   1.534   0.669 -0.7306 -0.2955  0.8010
 6031SOL     OW18536   0.979   2.690   4.011 -0.5716 -0.4848  0.5312
 6031SOL    HW118537   0.893   2.731   4.019  0.2861  2.2516 -2.1795
 6031SOL    HW218538   1.032   2.730   4.080 -0.7449  0.0573  0.3539
 6032SOL     OW18539   1.520   1.414   3.510 -0.0830  0.2086  0.3183
 6032SOL    HW118540   1.488   1.412   3.420  0.8203  0.9064 -0.0335
 6032SOL    HW218541   1.473   1.487   3.550 -0.2821  0.0698  0.3414
 6033SOL     OW18542   3.137   5.658   4.752  0.3647  0.4811 -0.6351
 6033SOL    HW118543   3.226   5.623   4.750  0.0302 -0.3825 -0.8370
 6033SOL    HW218544   3.085   5.595   4.703 -0.5146  0.5188  0.2130
 6034SOL     OW18545   3.214   5.916   3.862 -0.1205  0.7144  0.4103
 6034SOL    HW118546   3.219   5.850   3.931 -1.7194  0.5351  0.3815
 6034SOL    HW218547   3.245   5.871   3.784  1.3390  0.8060  0.9038
 6035SOL     OW18548   6.029   2.739   0.403  0.1683  0.0903  0.0892
 6035SOL    HW118549   6.065   2.780   0.324  2.3887 -0.7224  0.6070
 6035SOL    HW218550   6.014   2.811   0.463 -1.1015  0.6700 -0.8869
 6036SOL     OW18551   3.587   3.080   0.818 -0.1717  0.1991 -0.0203
 6036SOL    HW118552   3.576   3.157   0.762 -0.4228  0.0578 -0.1675
 6036SOL    HW218553   3.639   3.111   0.892  2.6363 -0.2442 -1.6629
 6037SOL     OW18554   0.127   4.233   0.771  0.5009 -0.3464 -0.4503
 6037SOL    HW118555   0.094   4.144   0.781 -0.9475  0.3270  1.1031
 6037SOL    HW218556   0.208   4.235   0.822  0.3958 -0.7129 -0.2700
 6038SOL     OW18557   0.620   3.072   3.905  0.1979  0.8777  0.0784
 6038SOL    HW118558   0.613   3.137   3.975 -0.8349  2.3932 -1.3806
 6038SOL    HW218559   0.630   3.123   3.825 -0.1455 -0.7653 -1.0596
 6039SOL     OW18560   2.902   3.383   5.369 -0.3670 -0.1467 -0.0817
 6039SOL    HW118561   2.868   3.472   5.367  3.1215  1.6904  3.9887
 6039SOL    HW218562   2.834   3.332   5.414 -0.7055  1.6303  1.5540
 6040SOL     OW18563   0.652   3.016   1.136  0.4128  0.0983  0.1437
 6040SOL    HW118564   0.707   3.088   1.106  0.5504  0.4699  1.2597
 6040SOL    HW218565   0.564   3.052   1.138  0.3225 -0.0870 -0.3085
 6041SOL     OW18566   5.185   0.090   2.401 -0.0705  0.1003 -0.0789
 6041SOL    HW118567   5.145   0.146   2.335  0.6124 -0.2961 -0.8555
 6041SOL    HW218568   5.151   0.002   2.382 -0.7579  0.1616  0.8209
 6042SOL     OW18569   3.456   2.901   4.623 -0.2557  0.3292  0.6599
 6042SOL    HW118570   3.540   2.935   4.653 -0.2855  1.0865 -0.0933
 6042SOL    HW218571   3.391   2.961   4.659 -0.2756  1.4172 -1.0725
 6043SOL     OW18572   2.289   2.249   0.572  0.3267 -0.3061  0.3230
 6043SOL    HW118573   2.211   2.302   0.588  0.0419 -0.6023 -0.0830
 6043SOL    HW218574   2.322   2.229   0.660 -1.1849 -1.8527  0.6079
 6044SOL     OW18575   3.224   0.325   4.274  0.4627  0.7481  0.0074
 6044SOL    HW118576   3.142   0.316   4.225  0.6517 -0.4065 -0.1248
 6044SOL    HW218577   3.291   0.289   4.216  0.9241  0.8251  0.4854
 6045SOL     OW18578   0.369   5.020   2.287 -0.4976 -0.1928  0.6875
 6045SOL    HW118579   0.437   5.078   2.252  2.2875 -2.0506  2.5990
 6045SOL    HW218580   0.366   5.042   2.381 -0.5658 -1.9363  1.1164
 6046SOL     OW18581   2.929   5.389   2.930 -0.4517  0.1110 -0.0087
 6046SOL    HW118582   3.018   5.402   2.963 -0.7018  2.2532 -0.0802
 6046SOL    HW218583   2.921   5.294   2.921  1.1876 -0.2540  1.7442
 6047SOL     OW18584   2.396   2.744   4.075  0.0030  0.0162  0.3535
 6047SOL    HW118585   2.352   2.678   4.127  0.4652 -0.3586  0.2749
 6047SOL    HW218586   2.326   2.785   4.023 -0.0540 -1.6696 -0.9819
 6048SOL     OW18587   1.938   4.945   1.734  0.1236  0.3336  0.7196
 6048SOL    HW118588   1.893   4.871   1.774 -1.7137  0.3400 -1.1672
 6048SOL    HW218589   1.934   5.014   1.800  0.2117 -0.6478  1.7920
 6049SOL     OW18590   2.002   1.743   5.168  0.4097  0.6765 -0.2140
 6049SOL    HW118591   1.942   1.782   5.231  0.4645 -0.5627  0.6124
 6049SOL    HW218592   2.087   1.743   5.212 -0.1739 -3.5787  1.3188
 6050SOL     OW18593   1.748   3.671   5.281  0.0006  0.2907 -0.0646
 6050SOL    HW118594   1.828   3.710   5.317  0.0485  1.2061 -1.1036
 6050SOL    HW218595   1.683   3.682   5.350  0.1445  1.8164 -0.1235
 6051SOL     OW18596   1.575   4.306   4.885 -0.4704 -0.3052  0.2957
 6051SOL    HW118597   1.544   4.386   4.926 -0.9242 -1.3027  2.0122
 6051SOL    HW218598   1.530   4.236   4.932 -0.4494 -1.5712 -1.4597
 6052SOL     OW18599   0.908   5.585   4.481 -0.3341  0.2265 -0.1173
 6052SOL    HW118600   0.956   5.544   4.408 -0.7355  0.4291 -0.5004
 6052SOL    HW218601   0.848   5.646   4.438  1.1020  2.1685  0.4844
 6053SOL     OW18602   2.997   1.105   3.604  0.6367  0.0794 -1.0179
 6053SOL    HW118603   2.992   1.159   3.525  0.2984  0.2275 -0.8966
 6053SOL    HW218604   2.908   1.104   3.639  0.7384 -0.1699 -0.7597
 6054SOL     OW18605   0.605   6.069   5.027 -0.2819  0.5623  0.3181
 6054SOL    HW118606   0.638   5.984   5.000 -0.0622  1.3603 -2.1984
 6054SOL    HW218607   0.678   6.129   5.011 -1.2586  1.5918 -0.4569
 6055SOL     OW18608   0.017   1.049   3.469  0.2865  0.6726 -0.1793
 6055SOL    HW118609   0.024   0.996   3.548 -0.0192 -0.1576 -0.6935
 6055SOL    HW218610  -0.048   1.004   3.416  0.5738  1.1554 -0.9575
 6056SOL     OW18611   0.779   5.743   6.064  0.2872  0.2590 -0.4946
 6056SOL    HW118612   0.862   5.767   6.022  0.4538 -0.1921 -0.4265
 6056SOL    HW218613   0.715   5.745   5.993  0.2433  1.1808 -0.4366
 6057SOL     OW18614   0.704   5.848   4.899 -0.3067 -0.6110 -0.1681
 6057SOL    HW118615   0.796   5.824   4.904 -0.2955 -0.5407 -0.0139
 6057SOL    HW218616   0.696   5.898   4.818  0.1192  0.7834  0.6206
 6058SOL     OW18617   3.681   2.907   1.985 -0.5038 -0.1091  0.2348
 6058SOL    HW118618   3.622   2.832   1.975 -0.5590 -0.1763  0.9708
 6058SOL    HW218619   3.675   2.929   2.078  1.9404 -1.1966  0.7353
 6059SOL     OW18620   2.742   2.688   0.951  0.5456 -0.5470  0.0656
 6059SOL    HW118621   2.785   2.637   0.882  1.4172  0.0852  0.1225
 6059SOL    HW218622   2.750   2.779   0.922 -3.4685 -0.4730 -1.4590
 6060SOL     OW18623   2.180   5.038   4.545  0.4600 -0.4755 -0.1871
 6060SOL    HW118624   2.122   5.019   4.471  0.2325  0.2173 -0.1935
 6060SOL    HW218625   2.121   5.051   4.619  0.6445 -0.4219 -0.0499
 6061SOL     OW18626   4.984   4.434   5.063 -0.4811  0.0608  0.3089
 6061SOL    HW118627   4.990   4.483   5.145 -1.1058 -1.5722  1.3656
 6061SOL    HW218628   4.907   4.379   5.074 -0.1053 -0.7739 -1.0705
 6062SOL     OW18629   2.281   4.454   4.582 -0.3670  0.2915  0.3774
 6062SOL    HW118630   2.270   4.365   4.549  1.5277  0.4957 -0.9928
 6062SOL    HW218631   2.375   4.468   4.584 -0.6179  2.6477 -0.5460
 6063SOL     OW18632   0.818   5.104   5.085 -0.4193 -0.1915 -0.2491
 6063SOL    HW118633   0.741   5.061   5.050 -0.5545 -1.1090  1.1146
 6063SOL    HW218634   0.890   5.043   5.069 -0.7761 -1.4954  2.5828
 6064SOL     OW18635   0.039   5.496   0.889  0.2553 -0.0424 -0.1714
 6064SOL    HW118636   0.099   5.458   0.825  0.0033 -0.0984 -0.3750
 6064SOL    HW218637   0.092   5.560   0.937  1.2274 -1.9924  1.4921
 6065SOL     OW18638   4.559   1.004   3.021  0.6891 -0.5484 -0.0616
 6065SOL    HW118639   4.533   1.014   3.112  0.0126  1.4713 -0.4063
 6065SOL    HW218640   4.650   0.977   3.024  0.9971  0.5255  1.2419
 6066SOL     OW18641   1.857   3.151   0.296 -0.2270 -0.3611  0.1794
 6066SOL    HW118642   1.853   3.055   0.292 -2.2025 -0.3627  0.9978
 6066SOL    HW218643   1.805   3.179   0.221 -0.5363  0.0577  0.5490
 6067SOL     OW18644   0.271   3.564   3.683  0.9226 -0.0220  0.3336
 6067SOL    HW118645   0.177   3.546   3.693  0.9522  0.5884  2.1031
 6067SOL    HW218646   0.314   3.492   3.729  1.4019 -1.0111 -1.5884
 6068SOL     OW18647   3.216   3.511   0.788 -0.1580 -0.1469 -0.5448
 6068SOL    HW118648   3.222   3.531   0.695  2.5784 -0.0436 -0.4197
 6068SOL    HW218649   3.261   3.583   0.832 -1.7101 -0.0065  0.9269
 6069SOL     OW18650   5.165   0.281   1.472  0.5626 -0.5159  0.3774
 6069SOL    HW118651   5.230   0.211   1.467  0.6965 -0.3357 -0.6458
 6069SOL    HW218652   5.173   0.315   1.561  2.9167  0.4651 -0.1225
 6070SOL     OW18653   1.762   2.512   2.138  0.0810 -0.1530 -0.8736
 6070SOL    HW118654   1.822   2.476   2.203 -0.6345  1.1001  0.5538
 6070SOL    HW218655   1.756   2.605   2.160 -1.8121 -0.1042 -1.4171
 6071SOL     OW18656   1.389   4.399   3.320 -0.1379 -0.2119  0.7864
 6071SOL    HW118657   1.401   4.323   3.376 -0.2351 -0.7529  0.0819
 6071SOL    HW218658   1.298   4.424   3.331 -0.4404 -0.9735  0.0589
 6072SOL     OW18659   4.867   4.793   0.133  0.5247  0.3396 -0.3199
 6072SOL    HW118660   4.929   4.738   0.181  1.7764  0.9521 -1.1817
 6072SOL    HW218661   4.913   4.816   0.052 -0.4812  1.5691 -0.5683
 6073SOL     OW18662   0.545   4.665   3.303  0.0578  0.0214  0.2045
 6073SOL    HW118663   0.641   4.671   3.308  0.1467 -0.3470 -0.7915
 6073SOL    HW218664   0.526   4.572   3.319 -0.0957 -0.0020 -0.1150
 6074SOL     OW18665   2.607   0.765   3.503 -0.1399 -0.0472  0.7744
 6074SOL    HW118666   2.566   0.851   3.501 -1.1063 -0.4983 -0.9302
 6074SOL    HW218667   2.605   0.739   3.595 -1.6110  0.9386  1.0508
 6075SOL     OW18668   2.424   5.306   2.805  0.0901 -0.0161 -0.6179
 6075SOL    HW118669   2.386   5.325   2.719 -0.4144  2.4929  0.0635
 6075SOL    HW218670   2.375   5.362   2.865  0.1019 -2.0488  1.4227
 6076SOL     OW18671   4.663   3.242   2.745  0.3856 -0.1375 -0.1227
 6076SOL    HW118672   4.652   3.178   2.675 -0.4254 -0.8829  0.6627
 6076SOL    HW218673   4.575   3.274   2.763  0.8281  1.6596 -0.8857
 6077SOL     OW18674   4.499   4.021   0.534 -0.6148 -0.5625  0.5470
 6077SOL    HW118675   4.486   3.980   0.620 -0.1426 -2.3560 -0.1865
 6077SOL    HW218676   4.582   3.985   0.503 -2.4034 -2.7883 -2.1382
 6078SOL     OW18677   2.498   2.727   5.701  0.1420  0.6010  0.5368
 6078SOL    HW118678   2.554   2.735   5.779 -1.0552  0.2355  1.4662
 6078SOL    HW218679   2.494   2.816   5.666  2.0005  0.4810 -0.0795
 6079SOL     OW18680   1.018   3.627   0.017  0.0010  0.1900 -0.4626
 6079SOL    HW118681   1.036   3.689  -0.053  0.3586 -0.0136 -0.5566
 6079SOL    HW218682   1.007   3.543  -0.028 -3.2204  0.6027 -0.6268
 6080SOL     OW18683   3.666   4.878   3.647 -0.1010  0.6373  0.3443
 6080SOL    HW118684   3.739   4.852   3.704  0.1321  0.9109  0.1749
 6080SOL    HW218685   3.641   4.797   3.602  0.3495  0.6187  0.1234
 6081SOL     OW18686   1.820   4.761   2.306  0.3985  0.2966 -0.1449
 6081SOL    HW118687   1.897   4.705   2.293  0.4642  0.2863  0.2858
 6081SOL    HW218688   1.854   4.850   2.298  0.6407  0.3148  1.0234
 6082SOL     OW18689   5.411   1.119   4.332 -0.1407 -0.2233  0.1794
 6082SOL    HW118690   5.379   1.093   4.246  2.1452  0.2947 -0.9082
 6082SOL    HW218691   5.439   1.037   4.373  0.7501 -0.2648 -0.4777
 6083SOL     OW18692   4.288   4.230   4.101  0.1283 -0.4592 -0.1136
 6083SOL    HW118693   4.224   4.163   4.124 -2.4453  2.0638  0.6187
 6083SOL    HW218694   4.291   4.288   4.177 -0.6413  2.2836 -2.0002
 6084SOL     OW18695   1.780   1.468   1.011  0.1561  0.0057  1.0638
 6084SOL    HW118696   1.844   1.525   0.968  0.4244 -0.5958  0.6578
 6084SOL    HW218697   1.707   1.526   1.033  0.3740  0.4816  0.5513
 6085SOL     OW18698   1.255   2.815   5.973  0.7527  0.2902 -0.3271
 6085SOL    HW118699   1.259   2.720   5.984  0.8393  0.3722  0.3814
 6085SOL    HW218700   1.162   2.837   5.986  0.4476  0.1407 -1.9845
 6086SOL     OW18701   0.584   1.345   1.727 -0.2383  0.1319 -0.2049
 6086SOL    HW118702   0.579   1.422   1.783  1.5528  0.1003  0.0763
 6086SOL    HW218703   0.507   1.350   1.671 -1.8793  0.3873  1.9528
 6087SOL     OW18704   3.170   2.733   4.203  0.2289 -0.2781 -0.1151
 6087SOL    HW118705   3.208   2.772   4.282 -1.0304 -2.0960  1.4798
 6087SOL    HW218706   3.118   2.804   4.164 -0.3062  0.2883  1.5233
 6088SOL     OW18707   0.660   4.790   3.656 -0.0511 -0.1789 -0.2574
 6088SOL    HW118708   0.736   4.814   3.604  0.0915 -0.9580 -0.4306
 6088SOL    HW218709   0.587   4.793   3.595 -0.1633  0.5857 -0.0870
 6089SOL     OW18710   3.885   3.315   4.884  0.0102 -0.3078 -0.3468
 6089SOL    HW118711   3.869   3.282   4.972  0.2412  0.4266 -0.0162
 6089SOL    HW218712   3.951   3.257   4.847 -0.6449 -1.0744 -0.3157
 6090SOL     OW18713   1.169   5.172   2.844  0.2223  0.0032 -0.5797
 6090SOL    HW118714   1.157   5.206   2.755 -0.2832 -0.3807 -0.6676
 6090SOL    HW218715   1.249   5.120   2.839 -0.0598 -0.4026 -0.9305
 6091SOL     OW18716   2.368   2.074   3.670 -0.0824 -0.6669  0.6019
 6091SOL    HW118717   2.444   2.017   3.677 -0.1061 -0.6093  1.5642
 6091SOL    HW218718   2.344   2.092   3.761 -1.3478 -0.8187  0.3119
 6092SOL     OW18719   5.845   1.169   5.904 -0.1943  0.6776  0.5187
 6092SOL    HW118720   5.814   1.175   5.995  1.8288  0.9121  1.2520
 6092SOL    HW218721   5.803   1.091   5.870  0.0336 -0.2054  2.1249
 6093SOL     OW18722   0.952   2.359   4.228  0.2964  0.0219 -0.1862
 6093SOL    HW118723   0.926   2.291   4.165  0.1224 -0.9995  0.9484
 6093SOL    HW218724   0.955   2.314   4.312  0.8560  1.2816  0.4993
 6094SOL     OW18725   0.936   2.949   4.277 -0.2960  0.5742  0.1248
 6094SOL    HW118726   0.877   2.946   4.202 -1.0849  0.2197  0.7484
 6094SOL    HW218727   0.883   2.984   4.348 -0.0419 -0.6582  0.9480
 6095SOL     OW18728   3.797   0.011   2.259 -0.5593 -0.0622  0.1759
 6095SOL    HW118729   3.835   0.009   2.171 -0.0950  0.6053  0.3542
 6095SOL    HW218730   3.868   0.041   2.315 -1.2598  0.8938  0.5694
 6096SOL     OW18731   5.283   1.689   2.566 -0.3385 -0.0692  0.2008
 6096SOL    HW118732   5.335   1.610   2.558  0.1104  0.3692 -1.9936
 6096SOL    HW218733   5.347   1.761   2.566 -0.8182  0.3692  0.0977
 6097SOL     OW18734   6.044   4.665   4.246  0.7939  0.0328  0.4160
 6097SOL    HW118735   6.001   4.645   4.329  0.9174  3.2393  1.3507
 6097SOL    HW218736   6.133   4.690   4.270  1.0089  0.4553 -0.7516
 6098SOL     OW18737   1.416   3.895   1.254 -0.4277  0.1625  0.4853
 6098SOL    HW118738   1.361   3.875   1.330  0.3658  1.4381  1.4344
 6098SOL    HW218739   1.451   3.982   1.272 -1.6147  1.2974 -2.1724
 6099SOL     OW18740   4.492   5.409   4.702  0.2492  0.2335 -0.2839
 6099SOL    HW118741   4.544   5.387   4.779 -0.0216  0.0332 -0.1569
 6099SOL    HW218742   4.423   5.466   4.734  0.0472  0.0275 -0.3529
 6100SOL     OW18743   0.400   4.689   5.470  0.0645 -0.3143  0.4330
 6100SOL    HW118744   0.387   4.649   5.556 -0.4850 -0.2853  0.3694
 6100SOL    HW218745   0.386   4.783   5.485 -2.3082 -0.5326 -0.0976
 6101SOL     OW18746   2.621   2.474   0.125 -0.2450  0.2789 -0.2097
 6101SOL    HW118747   2.594   2.421   0.199 -1.2462  1.5990  0.4149
 6101SOL    HW218748   2.544   2.526   0.102  0.9840  2.3478  0.0116
 6102SOL     OW18749   3.803   5.815   5.021 -0.4455  0.2666 -0.1328
 6102SOL    HW118750   3.818   5.890   5.078  2.4362  0.2149 -0.6499
 6102SOL    HW218751   3.781   5.743   5.081 -2.1493  1.2149  0.4478
 6103SOL     OW18752   5.049   2.434   5.342  0.3524 -0.2649 -0.5003
 6103SOL    HW118753   5.033   2.459   5.251  0.6853  0.4195 -0.3814
 6103SOL    HW218754   5.040   2.516   5.390 -0.5624 -0.7531  0.1804
 6104SOL     OW18755   1.178   2.035   5.402 -0.4106 -0.2615 -0.1231
 6104SOL    HW118756   1.153   1.944   5.411  0.3046 -0.5926 -1.2583
 6104SOL    HW218757   1.194   2.065   5.491 -0.5191 -1.2750  0.2443
 6105SOL     OW18758   3.490   3.700   5.918 -0.2772  0.4536 -0.4076
 6105SOL    HW118759   3.438   3.780   5.930 -1.2684 -0.4496  1.9473
 6105SOL    HW218760   3.427   3.629   5.925  1.0175 -0.6272  1.1875
 6106SOL     OW18761   2.908   5.805   2.188  0.0771  0.6749  0.4117
 6106SOL    HW118762   2.922   5.757   2.106  0.1471 -0.8741  1.3016
 6106SOL    HW218763   2.928   5.742   2.257  1.0359  2.2532  1.6410
 6107SOL     OW18764   1.773   4.201   0.322  0.0022  0.1116 -0.3976
 6107SOL    HW118765   1.818   4.122   0.349  1.0764  0.6325 -0.6265
 6107SOL    HW218766   1.781   4.261   0.396 -0.5807  0.1018 -0.3222
 6108SOL     OW18767   1.066   4.579   5.158 -0.4282 -0.0178 -0.2869
 6108SOL    HW118768   1.105   4.641   5.219 -0.1807  0.3235 -0.7873
 6108SOL    HW218769   1.112   4.593   5.075  1.0786 -2.2444  0.0636
 6109SOL     OW18770   3.731   6.110   4.006  0.6175 -0.2192  0.1595
 6109SOL    HW118771   3.704   6.160   4.082 -1.1895 -0.3688 -0.3409
 6109SOL    HW218772   3.708   6.020   4.026  0.9829 -0.3975 -0.1955
 6110SOL     OW18773   3.272   3.418   2.016 -0.5921  0.2208 -0.3597
 6110SOL    HW118774   3.280   3.513   2.019  0.5081  0.1566 -0.6206
 6110SOL    HW218775   3.292   3.395   1.925  0.3698 -0.3431 -0.0252
 6111SOL     OW18776   2.617   5.509   4.467  0.4880  0.0187  0.0645
 6111SOL    HW118777   2.599   5.541   4.556  0.2200 -0.8545  0.3311
 6111SOL    HW218778   2.616   5.588   4.413 -1.0982  0.3668  0.5508
 6112SOL     OW18779   0.939   6.001   0.692 -0.2155 -0.1563 -0.0921
 6112SOL    HW118780   0.911   6.002   0.783  0.8039  1.4809  0.2369
 6112SOL    HW218781   0.873   6.053   0.646  0.3926  0.7957  0.0915
 6113SOL     OW18782   5.208   3.332   2.639  0.4462  0.1826 -0.1892
 6113SOL    HW118783   5.269   3.336   2.564 -0.0824  1.8515 -0.5893
 6113SOL    HW218784   5.128   3.372   2.606  0.3243  1.3120  1.3621
 6114SOL     OW18785   3.476   1.237   1.609 -0.1550  0.4622 -0.2899
 6114SOL    HW118786   3.404   1.227   1.546 -0.6507  2.9367 -0.2203
 6114SOL    HW218787   3.436   1.280   1.685  0.8203 -0.8032  0.9963
 6115SOL     OW18788   4.065   4.097   4.194 -0.1611 -0.3036 -0.3867
 6115SOL    HW118789   4.044   4.026   4.255  1.1578 -0.6049 -0.2572
 6115SOL    HW218790   4.040   4.064   4.108  1.2047 -1.2905 -0.4384
 6116SOL     OW18791   5.290   5.187   3.170  0.0571 -0.3584  0.1093
 6116SOL    HW118792   5.305   5.268   3.219  2.1072 -0.5377 -0.1394
 6116SOL    HW218793   5.234   5.213   3.096 -2.8700 -0.0340  2.2521
 6117SOL     OW18794   2.420   5.407   4.107  0.5346 -0.6048  0.3709
 6117SOL    HW118795   2.417   5.499   4.131 -0.6231 -0.0673 -1.5963
 6117SOL    HW218796   2.405   5.360   4.189  2.6394  0.8718  1.6675
 6118SOL     OW18797   2.017   1.872   2.464 -0.2563 -0.6401 -0.4814
 6118SOL    HW118798   2.011   1.779   2.447  0.0052 -0.7094 -0.1982
 6118SOL    HW218799   2.068   1.907   2.391  0.0280 -0.7865 -0.3537
 6119SOL     OW18800   0.743   1.535   0.104  0.0273 -0.5230 -0.1092
 6119SOL    HW118801   0.729   1.492   0.019 -0.4283 -0.8221  0.1140
 6119SOL    HW218802   0.822   1.587   0.091  1.5445 -2.6424  0.0605
 6120SOL     OW18803   4.745   2.414   3.891 -0.3674 -0.1676 -0.1450
 6120SOL    HW118804   4.799   2.446   3.819  0.7115 -0.1230  0.6455
 6120SOL    HW218805   4.710   2.493   3.933  1.1126 -0.0270  0.9201
 6121SOL     OW18806   4.973   1.607   0.403  0.1421  0.3523 -0.0195
 6121SOL    HW118807   4.999   1.695   0.429  0.6534  0.3218 -0.4172
 6121SOL    HW218808   4.883   1.618   0.371 -0.4434  0.4184  1.5548
 6122SOL     OW18809   2.067   1.852   1.174 -0.3958 -0.3056 -0.1872
 6122SOL    HW118810   2.024   1.936   1.192 -1.3915 -0.5664 -1.2220
 6122SOL    HW218811   2.144   1.852   1.230 -2.0319 -0.0810  2.1762
 6123SOL     OW18812   0.463   4.415   3.327  0.4650  0.0094 -0.9713
 6123SOL    HW118813   0.377   4.392   3.292  0.5247  0.7306 -1.6283
 6123SOL    HW218814   0.475   4.357   3.402 -2.5222  2.7087  1.8930
 6124SOL     OW18815   1.777   5.195   2.570  0.4913 -0.2887  0.3400
 6124SOL    HW118816   1.721   5.272   2.565 -0.4785 -0.8422  2.0171
 6124SOL    HW218817   1.858   5.227   2.611  1.0040  0.2724 -1.0449
 6125SOL     OW18818   5.216   5.408   2.448 -0.2200  0.4469  0.4395
 6125SOL    HW118819   5.301   5.407   2.492 -0.8890  0.7088  1.7880
 6125SOL    HW218820   5.184   5.497   2.459 -1.0767  0.1094  0.7848
 6126SOL     OW18821   6.127   5.675   4.945  0.6240  0.5307  0.3204
 6126SOL    HW118822   6.142   5.639   4.858 -2.0313  2.6000 -1.1688
 6126SOL    HW218823   6.214   5.687   4.982  1.8547 -0.2339 -2.1223
 6127SOL     OW18824   4.779   1.636   0.952 -0.0140  0.3128 -0.4632
 6127SOL    HW118825   4.776   1.730   0.969  0.4876  0.3928 -0.8126
 6127SOL    HW218826   4.851   1.624   0.891  0.7060 -0.4361  0.4942
 6128SOL     OW18827   3.425   0.536   3.009 -0.1301  0.5566  0.1751
 6128SOL    HW118828   3.343   0.489   2.990 -2.3217  2.9807  2.6276
 6128SOL    HW218829   3.432   0.533   3.104  1.7558  1.8651  0.1294
 6129SOL     OW18830   1.329   3.930   5.570  0.7888  0.6902 -0.2564
 6129SOL    HW118831   1.317   3.985   5.647  0.7754 -0.1248  0.3374
 6129SOL    HW218832   1.342   3.992   5.498 -1.1146  1.5141  0.0580
 6130SOL     OW18833   1.556   3.653   2.700 -0.1760  0.1668 -0.6475
 6130SOL    HW118834   1.650   3.649   2.682 -0.5103 -0.8394 -2.3856
 6130SOL    HW218835   1.519   3.695   2.623 -1.2373 -0.0954 -0.2953
 6131SOL     OW18836   3.810   4.275   0.566 -0.3012 -0.4930 -0.1360
 6131SOL    HW118837   3.874   4.345   0.556  0.4771 -1.2162 -0.4468
 6131SOL    HW218838   3.853   4.198   0.528 -1.2423 -1.0719 -0.0767
 6132SOL     OW18839   1.288   2.517   1.878  0.3713  0.8059  0.6159
 6132SOL    HW118840   1.230   2.511   1.953 -0.7315  0.7033 -0.2232
 6132SOL    HW218841   1.330   2.431   1.873 -1.0056  0.1339 -0.0025
 6133SOL     OW18842   0.839   3.175   0.990  0.0353  0.3319 -0.0382
 6133SOL    HW118843   0.796   3.176   0.904  1.3584  0.4868 -0.7148
 6133SOL    HW218844   0.925   3.213   0.975 -0.1702  1.5614  1.6280
 6134SOL     OW18845   1.597   2.876   1.096 -0.6154 -0.0246 -0.2524
 6134SOL    HW118846   1.638   2.793   1.071 -1.9279 -0.3038 -1.5985
 6134SOL    HW218847   1.514   2.878   1.047 -0.2174  2.4763 -0.9688
 6135SOL     OW18848   6.056   0.892   2.213  0.0525  0.2679 -0.2116
 6135SOL    HW118849   6.030   0.801   2.229  1.0781 -0.4168 -2.0516
 6135SOL    HW218850   6.004   0.944   2.274  0.6284 -1.6695  2.0500
 6136SOL     OW18851   0.792   4.073   2.173  0.2490  0.1477 -0.5313
 6136SOL    HW118852   0.876   4.114   2.153  0.0801  0.6150 -0.2965
 6136SOL    HW218853   0.814   3.982   2.194  1.1947  1.0443  3.1089
 6137SOL     OW18854   0.210   5.437   2.935  0.1877  0.4240  0.0547
 6137SOL    HW118855   0.230   5.507   2.873 -1.2830  1.4127  0.6416
 6137SOL    HW218856   0.274   5.447   3.005 -0.5624  1.7586  0.5638
 6138SOL     OW18857   2.360   2.582   3.799 -0.3431  0.2992 -0.1989
 6138SOL    HW118858   2.284   2.562   3.854 -0.5939 -0.6943 -0.8648
 6138SOL    HW218859   2.359   2.513   3.732  1.3912  0.0066  0.0259
 6139SOL     OW18860   4.105   2.967   2.689  0.5007 -0.0720 -0.3210
 6139SOL    HW118861   4.102   2.978   2.594  1.1842  0.3896 -0.2999
 6139SOL    HW218862   4.038   2.902   2.708 -2.6204  2.7898 -0.6557
 6140SOL     OW18863   3.154   4.792   0.071 -0.4942  0.4477 -0.6728
 6140SOL    HW118864   3.236   4.803   0.024 -1.0333 -0.0785 -1.7615
 6140SOL    HW218865   3.140   4.877   0.114  1.3821  0.0545  0.8402
 6141SOL     OW18866   1.550   4.682   3.404  0.1169  0.4300 -0.0090
 6141SOL    HW118867   1.490   4.615   3.373  1.4974 -0.5571 -0.6810
 6141SOL    HW218868   1.624   4.677   3.343  0.7387  1.8261  0.5865
 6142SOL     OW18869   4.176   4.905   5.933  0.4455  0.0533 -0.4150
 6142SOL    HW118870   4.095   4.956   5.942  0.7340  0.4861 -0.2799
 6142SOL    HW218871   4.162   4.852   5.855 -0.4029 -0.6663  0.2019
 6143SOL     OW18872   1.453   5.707   0.161  0.1219  1.1058  0.2541
 6143SOL    HW118873   1.481   5.617   0.177 -0.2906  0.6917 -1.1633
 6143SOL    HW218874   1.518   5.742   0.101 -1.4359  0.6243 -1.8603
 6144SOL     OW18875   5.592   4.872   1.191  0.4444 -0.2987  0.6696
 6144SOL    HW118876   5.652   4.943   1.167  0.3214 -0.1997  0.6549
 6144SOL    HW218877   5.639   4.792   1.167 -0.4344 -0.1764 -1.7637
 6145SOL     OW18878   5.083   1.358   3.886 -0.0101 -0.5929 -0.3539
 6145SOL    HW118879   5.078   1.423   3.817  1.0449  0.1139  0.2258
 6145SOL    HW218880   5.172   1.324   3.882  0.8214  1.0849  2.0792
 6146SOL     OW18881   6.031   3.714   5.226  0.3587 -0.5772 -0.3732
 6146SOL    HW118882   6.037   3.715   5.131  0.1410 -0.1063 -0.3858
 6146SOL    HW218883   5.983   3.794   5.248 -1.8314 -1.9163 -0.0185
 6147SOL     OW18884   0.855   3.935   4.216  0.0910 -0.5920  0.3002
 6147SOL    HW118885   0.822   3.909   4.302 -3.5729 -1.0978 -1.1056
 6147SOL    HW218886   0.909   3.861   4.188 -0.0867 -1.1709  1.4359
 6148SOL     OW18887   2.956   3.342   2.679  0.2101 -0.2657 -0.1675
 6148SOL    HW118888   3.008   3.362   2.600 -1.3846  1.8007 -0.7843
 6148SOL    HW218889   2.912   3.424   2.699 -2.4787 -1.7967  0.5860
 6149SOL     OW18890   0.238   3.941   0.187 -0.0542  0.0759 -0.5991
 6149SOL    HW118891   0.155   3.949   0.139  0.0802 -0.1156 -0.8633
 6149SOL    HW218892   0.305   3.950   0.120  0.1256 -1.3509 -0.6304
 6150SOL     OW18893   5.731   4.575   4.826 -0.0794  0.0324  0.4069
 6150SOL    HW118894   5.806   4.528   4.789  0.6146  1.8415 -0.6165
 6150SOL    HW218895   5.661   4.560   4.763  0.3697  0.9802 -0.3453
 6151SOL     OW18896   5.533   2.824   4.666  0.0285  0.1372  0.0768
 6151SOL    HW118897   5.508   2.912   4.639 -1.2317  0.0707  0.9283
 6151SOL    HW218898   5.620   2.835   4.705  0.4846  0.7503 -1.0687
 6152SOL     OW18899   2.484   3.654   5.045  0.2182 -0.3044  0.1914
 6152SOL    HW118900   2.391   3.640   5.064  0.2070  0.3660  0.6730
 6152SOL    HW218901   2.485   3.683   4.954 -0.2871  1.8266  0.8131
 6153SOL     OW18902   3.308   4.896   5.246  0.4267  0.6604  0.1165
 6153SOL    HW118903   3.343   4.864   5.329 -1.9996  1.4746  1.5463
 6153SOL    HW218904   3.382   4.941   5.205  1.4535  1.1009  2.2994
 6154SOL     OW18905   1.985   5.166   0.502 -0.3884 -0.1045  0.5000
 6154SOL    HW118906   1.960   5.126   0.585  2.1792 -0.8576  0.9724
 6154SOL    HW218907   1.958   5.103   0.436 -2.4467  0.4942  0.6900
 6155SOL     OW18908   5.618   1.786   2.199  0.4575  0.2818  0.8086
 6155SOL    HW118909   5.623   1.882   2.201  2.1191  0.2124  1.6260
 6155SOL    HW218910   5.583   1.766   2.112 -1.0811  1.6463  1.0601
 6156SOL     OW18911   1.653   0.841   0.749 -0.1145 -0.1332  0.0815
 6156SOL    HW118912   1.668   0.763   0.802  2.0413  0.1128 -0.0902
 6156SOL    HW218913   1.574   0.880   0.786 -1.5860 -2.6563 -0.2043
 6157SOL     OW18914   0.045   5.451   5.324 -0.2951 -0.6238  0.9014
 6157SOL    HW118915   0.098   5.435   5.403  0.2498 -1.3901  0.3955
 6157SOL    HW218916   0.092   5.520   5.277  0.0194 -0.9877  0.6761
 6158SOL     OW18917   0.787   0.514   5.675  0.3119  0.4442 -0.7688
 6158SOL    HW118918   0.708   0.484   5.629  0.3138  2.2232 -2.0339
 6158SOL    HW218919   0.850   0.531   5.605  0.2849  3.3660 -0.1953
 6159SOL     OW18920   2.615   4.502   2.654  0.4809 -0.1212  0.2905
 6159SOL    HW118921   2.647   4.414   2.633  0.6474 -0.2853  1.1599
 6159SOL    HW218922   2.639   4.514   2.746  0.0983  0.6780  0.2925
 6160SOL     OW18923   3.652   0.033   1.449  0.2786 -0.2693  0.1441
 6160SOL    HW118924   3.742   0.015   1.478  0.8376 -0.4078 -1.5586
 6160SOL    HW218925   3.625  -0.047   1.404 -0.3671  0.0914 -0.1284
 6161SOL     OW18926   2.932   1.736   4.904  0.0972  0.3417  0.2331
 6161SOL    HW118927   2.926   1.829   4.881  0.2924  0.1552 -0.5809
 6161SOL    HW218928   2.876   1.692   4.841 -0.5713 -0.0289  1.0747
 6162SOL     OW18929   5.013   0.695   2.751  0.3091  0.3900 -0.7558
 6162SOL    HW118930   5.008   0.616   2.805  1.7946  0.9737  0.2750
 6162SOL    HW218931   4.964   0.761   2.801  4.6540  1.9901  1.9666
 6163SOL     OW18932   1.191   5.415   5.214 -0.5238 -0.5587 -0.1931
 6163SOL    HW118933   1.146   5.330   5.211  0.4367 -1.0734 -0.1980
 6163SOL    HW218934   1.125   5.475   5.249 -0.2601 -1.9458  3.0743
 6164SOL     OW18935   1.893   5.266   3.046  0.1616 -0.0824 -0.5530
 6164SOL    HW118936   1.862   5.185   3.086 -1.2047  0.4237 -0.5285
 6164SOL    HW218937   1.964   5.296   3.102 -0.9991  0.0450  0.9077
 6165SOL     OW18938   1.480   0.449   3.351  0.0985 -0.2010 -0.1086
 6165SOL    HW118939   1.507   0.536   3.321  0.3528 -0.6023 -1.1240
 6165SOL    HW218940   1.494   0.450   3.445 -0.1683  0.9485 -0.0741
 6166SOL     OW18941   0.385   4.183   3.850 -0.1297  0.3251  0.1338
 6166SOL    HW118942   0.317   4.120   3.873  0.7229 -0.2709  1.1357
 6166SOL    HW218943   0.342   4.268   3.857 -0.7276 -0.0264  0.9229
 6167SOL     OW18944   1.395   4.122   0.507  0.5001  0.0517 -0.6012
 6167SOL    HW118945   1.337   4.048   0.487  0.5586  0.1806 -1.2885
 6167SOL    HW218946   1.452   4.091   0.577 -1.4119  0.4235  1.2338
 6168SOL     OW18947   1.761   1.930   4.953  0.3237 -0.2488 -0.0943
 6168SOL    HW118948   1.769   2.021   4.925  0.8068 -0.2418  0.0649
 6168SOL    HW218949   1.830   1.884   4.905 -1.5774 -1.0478 -2.3098
 6169SOL     OW18950   5.767   2.411   2.045 -0.1548  0.2344 -0.4046
 6169SOL    HW118951   5.747   2.444   2.132 -0.7218 -0.5607 -0.2220
 6169SOL    HW218952   5.714   2.464   1.986 -2.0664 -1.1220 -0.0144
 6170SOL     OW18953   5.867   6.073   1.734 -0.4372 -0.2003  0.6087
 6170SOL    HW118954   5.832   5.995   1.777 -2.0361  0.4039  0.4418
 6170SOL    HW218955   5.803   6.095   1.666  1.3087 -0.2877 -1.1716
 6171SOL     OW18956   3.262   0.774   4.066 -0.2875  0.2062  0.0399
 6171SOL    HW118957   3.305   0.740   3.988 -1.4518  0.1662 -0.6124
 6171SOL    HW218958   3.320   0.844   4.098  1.2104 -1.1372  0.3457
 6172SOL     OW18959   3.027   0.572   0.570  0.3006 -0.2191 -0.4698
 6172SOL    HW118960   3.027   0.619   0.486  0.0550  1.2728  0.3465
 6172SOL    HW218961   3.006   0.638   0.635 -0.5085 -1.5648  0.6887
 6173SOL     OW18962   2.770   1.740   3.332  0.4715 -0.4831 -0.0425
 6173SOL    HW118963   2.838   1.714   3.393  1.5247  0.9187 -0.5424
 6173SOL    HW218964   2.817   1.783   3.260 -0.9326  0.7202 -0.3109
 6174SOL     OW18965   3.121   3.356   4.109 -0.0100  0.3436 -0.6146
 6174SOL    HW118966   3.165   3.379   4.027 -0.7247  2.6193 -0.4465
 6174SOL    HW218967   3.134   3.433   4.165  0.4671 -1.1600  1.4374
 6175SOL     OW18968   2.614   5.758   4.350  0.2094 -0.2917 -1.0312
 6175SOL    HW118969   2.641   5.849   4.362  1.8347 -0.8539 -0.0996
 6175SOL    HW218970   2.630   5.740   4.258  1.1584 -0.0061 -0.9335
 6176SOL     OW18971   0.967   3.504   1.063 -0.1391  0.1499  0.5344
 6176SOL    HW118972   1.029   3.443   1.025  1.0901  1.8253 -0.3025
 6176SOL    HW218973   0.886   3.454   1.072  0.9515 -1.7335  0.4454
 6177SOL     OW18974   0.618   5.715   5.848  0.1366  0.1432 -0.3591
 6177SOL    HW118975   0.606   5.650   5.778 -3.4853  1.2596 -0.9691
 6177SOL    HW218976   0.648   5.794   5.802  0.1716  0.1670 -0.2950
 6178SOL     OW18977   0.951   5.249   5.284 -0.0158 -0.4683  0.7331
 6178SOL    HW118978   0.980   5.174   5.336 -0.3358 -0.9061  0.2946
 6178SOL    HW218979   0.890   5.211   5.220 -0.8610  0.2927  1.0580
 6179SOL     OW18980   3.052   4.391   2.538 -0.5995  0.4663 -0.5143
 6179SOL    HW118981   3.012   4.333   2.603 -0.3402  1.2821  0.3948
 6179SOL    HW218982   2.979   4.423   2.486 -1.2456  2.1833  1.3244
 6180SOL     OW18983   3.523   4.928   4.514 -0.1609  0.2338 -0.6292
 6180SOL    HW118984   3.530   5.016   4.476  0.2838 -0.6080 -2.5844
 6180SOL    HW218985   3.605   4.885   4.490  0.3871 -0.2331  1.7616
 6181SOL     OW18986   0.090   2.241   1.940  0.1705 -0.3199  0.3617
 6181SOL    HW118987   0.108   2.288   1.859  0.0526  0.1794  0.6213
 6181SOL    HW218988   0.038   2.166   1.913  0.9529 -0.6959 -0.1455
 6182SOL     OW18989   3.641   4.492   3.781 -0.4750 -0.4349 -0.5359
 6182SOL    HW118990   3.736   4.494   3.779 -0.4639  0.5907  0.0791
 6182SOL    HW218991   3.619   4.523   3.869 -1.3775 -0.4973 -0.7325
 6183SOL     OW18992   2.523   5.248   2.524 -0.4624  0.0612  0.3024
 6183SOL    HW118993   2.475   5.171   2.554  0.9069 -1.7624 -1.9057
 6183SOL    HW218994   2.615   5.224   2.534 -0.0127  1.0452 -1.2911
 6184SOL     OW18995   4.490   4.091   4.878 -0.3485  0.5702  0.2496
 6184SOL    HW118996   4.447   4.102   4.793 -2.5890 -2.0879  0.8904
 6184SOL    HW218997   4.572   4.046   4.857 -0.6863  0.2933 -0.5540
 6185SOL     OW18998   3.251   1.783   3.245  0.0005 -0.7583 -0.7076
 6185SOL    HW118999   3.288   1.736   3.320 -0.0936 -1.5877 -1.1676
 6185SOL    HW219000   3.256   1.720   3.173  0.4657  0.1610 -1.4996
 6186SOL     OW19001   0.022   1.304   2.154 -0.0763 -0.9007  0.5023
 6186SOL    HW119002   0.047   1.248   2.081 -0.5334  0.3836 -0.7001
 6186SOL    HW219003  -0.073   1.295   2.160 -0.2678  0.3562 -0.2747
 6187SOL     OW19004   1.691   2.231   5.082  0.0837  0.0393  0.0206
 6187SOL    HW119005   1.599   2.242   5.057  0.4292  1.1461 -0.8507
 6187SOL    HW219006   1.737   2.218   4.999  0.5996 -1.5656  0.5196
 6188SOL     OW19007   1.525   5.290   1.153  1.2071  0.3284 -0.1949
 6188SOL    HW119008   1.545   5.284   1.059 -0.4657 -1.5016 -0.4789
 6188SOL    HW219009   1.565   5.212   1.191 -0.9483 -0.7288  0.0231
 6189SOL     OW19010   3.258   5.295   3.580 -0.0826  0.3663 -0.1365
 6189SOL    HW119011   3.207   5.247   3.514  0.4382  0.4059 -0.5711
 6189SOL    HW219012   3.312   5.356   3.529 -1.2772  1.9728  0.4255
 6190SOL     OW19013   5.097   3.192   1.570 -0.2366 -0.1945  0.3948
 6190SOL    HW119014   5.006   3.218   1.584 -0.0836  0.4032  0.3305
 6190SOL    HW219015   5.139   3.271   1.536  0.2554 -0.5305  0.2057
 6191SOL     OW19016   4.632   2.873   5.751  0.2638 -0.5027  0.1394
 6191SOL    HW119017   4.691   2.924   5.807  0.3943 -0.6229  0.1107
 6191SOL    HW219018   4.578   2.823   5.813  0.2709 -0.4831  0.1617
 6192SOL     OW19019   4.498   5.520   3.011 -0.7711 -0.1357  0.1972
 6192SOL    HW119020   4.492   5.611   2.983 -0.4651 -0.3645 -0.6663
 6192SOL    HW219021   4.406   5.492   3.021 -0.8893  0.0099 -0.4354
 6193SOL     OW19022   2.161   0.466   2.771 -0.2828  0.2531 -0.3345
 6193SOL    HW119023   2.202   0.379   2.776  1.2762  0.9825  0.2800
 6193SOL    HW219024   2.157   0.485   2.677  1.0797  0.2791 -0.4017
 6194SOL     OW19025   2.316   1.332   2.181 -0.1466 -0.2975 -0.2472
 6194SOL    HW119026   2.278   1.314   2.267  0.6964 -3.4322 -0.3934
 6194SOL    HW219027   2.241   1.343   2.124 -0.7202  1.1188  0.7240
 6195SOL     OW19028   3.338   4.556   4.275 -0.0417 -0.0421  0.1808
 6195SOL    HW119029   3.251   4.517   4.289  0.2253 -1.0539 -0.8043
 6195SOL    HW219030   3.353   4.609   4.353 -1.2412 -0.4230  0.7034
 6196SOL     OW19031   4.802   0.737   3.048  0.4448 -0.0652  0.2967
 6196SOL    HW119032   4.739   0.665   3.045 -0.2960  0.5776  0.1273
 6196SOL    HW219033   4.839   0.733   3.136 -0.6666  0.2407  0.7935
 6197SOL     OW19034   2.936   4.924   0.744 -0.1247  0.8757  0.0744
 6197SOL    HW119035   2.983   4.844   0.720  0.6648  0.9609  1.2514
 6197SOL    HW219036   2.942   4.979   0.666 -0.6706 -0.1880 -0.7539
 6198SOL     OW19037   3.746   0.333   2.152 -0.2489  0.3352 -0.3843
 6198SOL    HW119038   3.762   0.402   2.217  0.3655  1.7634 -1.9747
 6198SOL    HW219039   3.828   0.284   2.148 -0.1707  0.4588 -0.3140
 6199SOL     OW19040   4.016   1.454   1.349 -0.5499 -0.5036 -0.0492
 6199SOL    HW119041   4.014   1.503   1.430 -1.5816  0.8149 -0.8275
 6199SOL    HW219042   3.980   1.514   1.283  0.3605 -1.4761 -1.5042
 6200SOL     OW19043   3.702   4.950   5.854 -0.7275  0.1121  0.1273
 6200SOL    HW119044   3.668   5.034   5.886 -0.8555  0.0870  0.0557
 6200SOL    HW219045   3.633   4.887   5.873 -0.9417  0.1528 -0.4890
 6201SOL     OW19046   0.507   4.236   1.349  0.1037 -0.7133 -0.2825
 6201SOL    HW119047   0.595   4.241   1.312 -0.3347 -0.1258 -1.2757
 6201SOL    HW219048   0.519   4.191   1.433  1.4837  0.2612  0.0681
 6202SOL     OW19049   6.112   0.814   2.961  0.4633  0.6188  0.3498
 6202SOL    HW119050   6.084   0.903   2.986  0.2195  0.7774 -0.4559
 6202SOL    HW219051   6.207   0.816   2.969  0.4818  1.0413  0.0549
 6203SOL     OW19052   5.126   1.340   3.430  0.5319 -0.3432 -0.2952
 6203SOL    HW119053   5.180   1.315   3.356 -0.8713  1.2175 -1.9381
 6203SOL    HW219054   5.150   1.431   3.447  0.9787 -0.7284  1.3528
 6204SOL     OW19055   5.825   3.818   5.382  0.2628 -0.1643 -0.1799
 6204SOL    HW119056   5.890   3.786   5.445 -0.2791 -1.7694 -0.4019
 6204SOL    HW219057   5.759   3.861   5.435  1.5258  1.5923  0.0456
 6205SOL     OW19058   5.277   0.050   0.802  0.4518  0.2212 -0.5907
 6205SOL    HW119059   5.329   0.026   0.725  1.8398 -0.0833  0.4182
 6205SOL    HW219060   5.340   0.062   0.872 -0.7399  1.0101  0.4110
 6206SOL     OW19061   1.940   0.516   2.467  0.2474  0.1208 -0.6748
 6206SOL    HW119062   1.898   0.556   2.391 -1.0383 -0.4588 -0.2858
 6206SOL    HW219063   1.892   0.550   2.542 -0.5447 -1.6840 -0.3028
 6207SOL     OW19064   1.527   1.619   1.570 -0.3834 -0.1894  0.4181
 6207SOL    HW119065   1.456   1.557   1.555 -1.8756  1.9126 -2.0188
 6207SOL    HW219066   1.607   1.567   1.558 -1.5537 -1.7777 -1.0270
 6208SOL     OW19067   4.227   1.593   3.709 -0.0857  0.4048 -0.2801
 6208SOL    HW119068   4.271   1.522   3.756 -2.8643 -0.8912  0.5970
 6208SOL    HW219069   4.267   1.673   3.742  3.2584 -0.6105 -1.3918
 6209SOL     OW19070   3.878   3.689   3.728 -0.0464  0.6180  0.5666
 6209SOL    HW119071   3.956   3.634   3.728  1.2891  2.4374  0.7432
 6209SOL    HW219072   3.853   3.695   3.820  0.0565  0.6599  0.5918
 6210SOL     OW19073   5.553   3.624   0.320 -0.0976 -0.0825 -0.0782
 6210SOL    HW119074   5.613   3.575   0.263 -1.9419 -2.0291 -0.4886
 6210SOL    HW219075   5.477   3.567   0.328 -1.8180  2.1838  0.5924
 6211SOL     OW19076   3.337   3.979   3.108  0.4055  0.1895 -0.1726
 6211SOL    HW119077   3.335   3.921   3.184 -0.8709  0.4376  0.0098
 6211SOL    HW219078   3.282   3.935   3.043 -0.5351  1.1548 -0.0514
 6212SOL     OW19079   2.332   4.085   5.722 -0.1553 -0.1107 -0.5367
 6212SOL    HW119080   2.339   4.130   5.637 -0.4662  1.0091  0.0090
 6212SOL    HW219081   2.279   4.144   5.775  0.5430 -0.5191  0.6361
 6213SOL     OW19082   5.814   4.290   4.548  0.4052 -0.4394  0.0212
 6213SOL    HW119083   5.878   4.266   4.482 -0.4603  0.3924 -1.1704
 6213SOL    HW219084   5.745   4.224   4.540 -0.3831  0.4707 -0.9359
 6214SOL     OW19085   2.482   0.376   6.089 -0.0683  0.3533 -0.0778
 6214SOL    HW119086   2.548   0.392   6.157  0.5881  0.2176 -0.6716
 6214SOL    HW219087   2.528   0.323   6.024 -1.5694 -2.2101  0.8357
 6215SOL     OW19088   0.448   2.250   5.173 -0.0257  0.0002  0.1077
 6215SOL    HW119089   0.416   2.339   5.159 -3.0691 -0.5930  2.1364
 6215SOL    HW219090   0.423   2.203   5.094 -2.0108  0.1729  0.5725
 6216SOL     OW19091   5.597   1.386   3.013 -0.8369 -0.0640 -0.3018
 6216SOL    HW119092   5.633   1.355   3.096 -2.2559 -0.7743  0.0609
 6216SOL    HW219093   5.636   1.473   3.001  0.7262 -0.6630  0.2252
 6217SOL     OW19094   2.500   0.790   2.351 -0.0562  0.2922  0.1703
 6217SOL    HW119095   2.503   0.884   2.339  1.8629  0.1463 -0.9327
 6217SOL    HW219096   2.503   0.777   2.445 -0.0085  1.3216  0.3191
 6218SOL     OW19097   6.100   5.112   5.455  0.1815  0.1091  0.3888
 6218SOL    HW119098   6.137   5.024   5.457  1.1782  0.5310  1.1647
 6218SOL    HW219099   6.080   5.132   5.546  0.2011  0.7882  0.2501
 6219SOL     OW19100   4.826   1.869   5.303  0.8388 -0.9538  0.4171
 6219SOL    HW119101   4.859   1.951   5.268  0.5508 -0.8606  0.3588
 6219SOL    HW219102   4.830   1.808   5.230  0.0865 -0.7176  0.1628
 6220SOL     OW19103   4.108   4.309   1.419 -0.9598  0.4589 -0.4742
 6220SOL    HW119104   4.165   4.259   1.478 -1.0898 -1.6815 -2.0396
 6220SOL    HW219105   4.155   4.391   1.404  0.2550  0.0065  0.6245
 6221SOL     OW19106   5.852   5.127   3.299 -0.1416  0.3230 -0.4908
 6221SOL    HW119107   5.861   5.033   3.281  0.0696  0.2763 -0.1375
 6221SOL    HW219108   5.793   5.132   3.374 -1.8341  0.5636 -1.7925
 6222SOL     OW19109   3.763   1.202   5.283  0.2445  0.4440 -0.0599
 6222SOL    HW119110   3.826   1.234   5.218  0.6464 -0.4628 -0.1262
 6222SOL    HW219111   3.689   1.171   5.230 -0.1579  1.2509  0.0065
 6223SOL     OW19112   3.295   3.971   4.695  0.2233 -0.3436  0.4358
 6223SOL    HW119113   3.241   4.050   4.706  0.9977  0.8398 -3.0865
 6223SOL    HW219114   3.367   3.984   4.757 -0.1113  1.3291  0.5415
 6224SOL     OW19115   1.668   4.399   4.210 -0.2847  0.2924  0.2343
 6224SOL    HW119116   1.620   4.482   4.206  0.4070  0.6561 -1.2106
 6224SOL    HW219117   1.689   4.379   4.119 -0.2428 -1.3690  0.5780
 6225SOL     OW19118   6.062   4.873   5.807  0.6222 -0.6704 -0.1405
 6225SOL    HW119119   6.133   4.837   5.860 -0.5982 -0.9151  1.3765
 6225SOL    HW219120   6.012   4.797   5.778 -0.4564 -0.3791  0.9032
 6226SOL     OW19121   1.234   5.105   5.033  0.5367 -0.5674 -0.4953
 6226SOL    HW119122   1.150   5.141   5.061  1.3684  1.7166 -0.6814
 6226SOL    HW219123   1.248   5.029   5.090 -0.8730  0.0139  0.6881
 6227SOL     OW19124   1.195   3.695   4.723 -0.4154  0.3078  0.0123
 6227SOL    HW119125   1.188   3.765   4.658 -0.5866  1.8891  1.6544
 6227SOL    HW219126   1.288   3.673   4.725 -0.5114 -0.2782 -1.2597
 6228SOL     OW19127   6.027   2.128   1.546 -0.3623 -0.3947 -0.4103
 6228SOL    HW119128   5.936   2.104   1.564 -0.6358  0.9875  0.1649
 6228SOL    HW219129   6.036   2.117   1.451 -0.2638 -3.2653 -0.1565
 6229SOL     OW19130   0.732   1.058   5.361  0.3089  0.3498 -0.0886
 6229SOL    HW119131   0.745   0.979   5.413  2.5717  1.1084  0.6298
 6229SOL    HW219132   0.816   1.104   5.365 -1.3585  3.6559  0.9513
 6230SOL     OW19133   5.802   0.174   0.720 -0.4069  0.8912 -0.4269
 6230SOL    HW119134   5.875   0.208   0.668  0.1560 -0.8210 -0.8202
 6230SOL    HW219135   5.725   0.191   0.667  0.0471  0.1183 -1.3694
 6231SOL     OW19136   5.358   5.293   5.541  0.4133  0.6298  0.1228
 6231SOL    HW119137   5.405   5.213   5.518 -1.5584 -0.6825  0.3908
 6231SOL    HW219138   5.414   5.336   5.606  1.2440 -0.8596  0.4323
 6232SOL     OW19139   2.700   1.259   4.238 -0.3809 -0.0302 -0.2630
 6232SOL    HW119140   2.789   1.279   4.267  0.1583 -2.3175 -0.1147
 6232SOL    HW219141   2.649   1.254   4.319  0.0163 -1.4763 -0.0715
 6233SOL     OW19142   4.616   3.844   1.781  0.3537  0.0890 -0.4620
 6233SOL    HW119143   4.703   3.810   1.761  0.4087  0.4820 -0.9097
 6233SOL    HW219144   4.556   3.788   1.732  0.5095  1.2573 -2.0487
 6234SOL     OW19145   1.936   1.604   2.060  0.4256  1.0096  0.0973
 6234SOL    HW119146   2.020   1.617   2.016  1.0397  2.0506  1.5019
 6234SOL    HW219147   1.874   1.587   1.989  1.5764  1.5527 -1.0700
 6235SOL     OW19148   0.905   3.867   0.197  0.1930  0.0665 -0.2490
 6235SOL    HW119149   0.896   3.858   0.292  1.1442  2.6850  0.1962
 6235SOL    HW219150   0.919   3.778   0.166 -0.7378 -0.9485  1.9782
 6236SOL     OW19151   2.969   4.277   4.393  0.1996 -0.7801  0.1811
 6236SOL    HW119152   2.916   4.331   4.333  0.9606 -0.2820 -0.0616
 6236SOL    HW219153   2.918   4.275   4.474 -0.9289 -1.6040 -0.5209
 6237SOL     OW19154   5.810   4.900   3.633  0.6152 -0.1267  0.1154
 6237SOL    HW119155   5.792   4.993   3.616 -0.4052 -0.3200  0.1165
 6237SOL    HW219156   5.807   4.859   3.547 -0.0084 -0.3371  0.2343
 6238SOL     OW19157   1.985   4.540   1.090 -0.5875 -0.0227  0.0743
 6238SOL    HW119158   2.057   4.600   1.070 -0.2956 -0.6637 -0.8555
 6238SOL    HW219159   2.028   4.457   1.113 -1.0152 -0.1826  0.3066
 6239SOL     OW19160   4.882   5.820   5.731  0.4033  0.1587  0.0595
 6239SOL    HW119161   4.832   5.817   5.649 -0.7907 -0.4777  0.7824
 6239SOL    HW219162   4.834   5.883   5.785 -0.0467 -1.0052  1.0370
 6240SOL     OW19163   3.863   1.205   5.706  0.5352  0.3219  0.1773
 6240SOL    HW119164   3.915   1.147   5.649 -0.0622  0.2915 -0.3461
 6240SOL    HW219165   3.926   1.237   5.770  0.8166 -1.1672  0.6904
 6241SOL     OW19166   5.708   3.466   0.157  0.4719  0.1588 -0.8215
 6241SOL    HW119167   5.779   3.457   0.221  0.7379  0.6446 -1.0420
 6241SOL    HW219168   5.751   3.500   0.078 -0.0210  0.5511 -0.9235
 6242SOL     OW19169   5.731   5.356   5.649 -0.5342  0.0470  0.0388
 6242SOL    HW119170   5.781   5.303   5.711  0.7290  1.5005  0.3066
 6242SOL    HW219171   5.650   5.377   5.696  0.4634  1.2492  1.3017
 6243SOL     OW19172   4.905   3.156   5.181  0.2149  0.4744 -0.2423
 6243SOL    HW119173   4.927   3.107   5.260  2.1361 -0.8372 -1.5139
 6243SOL    HW219174   4.812   3.137   5.166  0.5112 -1.4770  0.2163
 6244SOL     OW19175   5.773   3.597   3.477 -0.4266  0.0512  0.0140
 6244SOL    HW119176   5.864   3.571   3.493 -0.9988 -3.1169 -1.2082
 6244SOL    HW219177   5.721   3.525   3.513 -2.3175  0.5612 -1.5693
 6245SOL     OW19178   1.202   0.046   5.214  0.1532  0.3402 -0.0626
 6245SOL    HW119179   1.281  -0.006   5.196  1.9255  2.6957  0.2953
 6245SOL    HW219180   1.131  -0.002   5.172  1.5588 -2.5008  0.5710
 6246SOL     OW19181   3.139   1.551   4.563  0.3520 -0.4116  0.0939
 6246SOL    HW119182   3.063   1.518   4.611  0.0306 -0.1970 -0.2572
 6246SOL    HW219183   3.116   1.641   4.540  1.1544  0.0169  0.9030
 6247SOL     OW19184   1.497   4.815   3.070 -0.5059 -0.3650  0.1783
 6247SOL    HW119185   1.496   4.730   3.026 -0.9898 -0.3953  0.2486
 6247SOL    HW219186   1.487   4.879   3.000 -0.4200 -0.3772  0.1548
 6248SOL     OW19187   0.000   4.246   2.773  1.1177 -0.0269  0.2284
 6248SOL    HW119188  -0.065   4.206   2.716  0.0872  0.4546  1.0286
 6248SOL    HW219189   0.035   4.173   2.825  0.7368 -0.1840  0.2621
 6249SOL     OW19190   5.565   1.644   5.686 -0.5456 -0.2277  0.5887
 6249SOL    HW119191   5.562   1.720   5.628 -1.2980  0.5696  1.6326
 6249SOL    HW219192   5.656   1.638   5.713 -0.7030  1.1843  1.5753
 6250SOL     OW19193   0.699   3.022   0.050 -0.0340  0.0195 -0.0574
 6250SOL    HW119194   0.701   3.099  -0.007 -2.0194 -0.7367 -1.2623
 6250SOL    HW219195   0.694   2.947  -0.010  1.8149 -1.1061  1.0744
 6251SOL     OW19196   2.670   5.165   1.779  0.2520  0.3273 -0.4938
 6251SOL    HW119197   2.750   5.117   1.756 -0.7234 -0.6701 -1.9603
 6251SOL    HW219198   2.615   5.160   1.701 -0.8209  1.9485  0.0963
 6252SOL     OW19199   5.258   3.287   5.542  0.5536  0.4514 -0.0253
 6252SOL    HW119200   5.304   3.307   5.460  0.3264 -0.2485 -0.3276
 6252SOL    HW219201   5.249   3.372   5.585  0.4133  0.8707 -0.8616
 6253SOL     OW19202   5.624   0.984   5.715  0.4361 -0.2135  0.1786
 6253SOL    HW119203   5.691   0.942   5.660  0.8477  0.0964  0.4368
 6253SOL    HW219204   5.582   0.911   5.760 -0.0652 -0.4968 -0.7080
 6254SOL     OW19205   3.531   5.027   4.826 -0.6507  0.7396 -0.2262
 6254SOL    HW119206   3.618   5.005   4.859 -1.1898  0.4080  1.0324
 6254SOL    HW219207   3.524   4.981   4.743 -0.8025 -1.9178  1.1455
 6255SOL     OW19208   1.492   5.761   4.595  0.1980 -1.0590  0.4420
 6255SOL    HW119209   1.425   5.704   4.557 -0.8487  1.0226 -1.0481
 6255SOL    HW219210   1.554   5.778   4.524 -1.1277  1.9208 -0.1751
 6256SOL     OW19211   5.884   0.407   1.556 -0.1645 -0.4088  0.3146
 6256SOL    HW119212   5.819   0.451   1.612 -0.1988 -1.2484  0.9544
 6256SOL    HW219213   5.904   0.325   1.602  1.8159  0.0973  0.4626
 6257SOL     OW19214   3.006   0.373   2.537 -0.1454  0.1759 -0.3641
 6257SOL    HW119215   2.935   0.437   2.545 -1.1112 -0.8409 -0.6031
 6257SOL    HW219216   3.081   0.424   2.506 -0.3776  1.5221  1.1522
 6258SOL     OW19217   2.391   3.213   3.511 -0.2210 -0.0491  0.3975
 6258SOL    HW119218   2.301   3.184   3.520 -0.2968  0.3143  0.8659
 6258SOL    HW219219   2.405   3.273   3.585  0.7075 -0.8862  0.9301
 6259SOL     OW19220   0.513   3.721   5.524 -0.5174  0.1593  0.4573
 6259SOL    HW119221   0.490   3.814   5.532 -2.1337 -0.2620  1.1178
 6259SOL    HW219222   0.604   3.722   5.495 -0.5997  1.9522  0.1059
 6260SOL     OW19223   5.685   5.982   5.533  0.3606  0.5722  0.1170
 6260SOL    HW119224   5.729   5.947   5.455  2.2723  0.5551  1.1500
 6260SOL    HW219225   5.602   5.933   5.537  0.6085 -0.0384 -1.4072
 6261SOL     OW19226   0.616   0.795   1.269  0.6163  0.2845 -0.6434
 6261SOL    HW119227   0.640   0.815   1.178  0.6850 -1.8445 -1.1416
 6261SOL    HW219228   0.520   0.796   1.268  0.5904 -1.0034 -1.0830
 6262SOL     OW19229   4.229   0.148   3.048 -0.2603  0.8286 -0.1393
 6262SOL    HW119230   4.256   0.220   3.106 -1.8254  2.2741 -1.1042
 6262SOL    HW219231   4.305   0.132   2.993  0.5699  0.8058  0.9789
 6263SOL     OW19232   4.576   4.658   5.935  0.0269 -0.0144 -0.0573
 6263SOL    HW119233   4.547   4.617   6.016  1.3263 -0.4920  0.1963
 6263SOL    HW219234   4.671   4.649   5.936  0.1127  0.4428 -1.3884
 6264SOL     OW19235   4.184   5.118   5.628 -0.6469 -0.2007 -0.3535
 6264SOL    HW119236   4.186   5.181   5.556  1.5894 -0.7851 -0.8707
 6264SOL    HW219237   4.154   5.168   5.703 -1.1104  0.9077 -1.2577
 6265SOL     OW19238   1.708   5.758   5.542 -0.3612 -0.2877 -0.3693
 6265SOL    HW119239   1.684   5.798   5.458 -2.3082  1.3287  0.8596
 6265SOL    HW219240   1.635   5.700   5.562 -0.0863 -0.3774  0.3853
 6266SOL     OW19241   1.921   4.463   2.701 -0.3045  0.2336 -0.0616
 6266SOL    HW119242   1.991   4.526   2.717 -0.9707  1.3284 -1.2970
 6266SOL    HW219243   1.928   4.401   2.774  0.2300  1.8434  1.3284
 6267SOL     OW19244   3.089   4.572   1.640  0.4184 -0.2065  1.2931
 6267SOL    HW119245   3.168   4.560   1.693  1.1112  0.3346  0.4020
 6267SOL    HW219246   3.117   4.627   1.567 -0.3229 -1.5366 -0.0541
 6268SOL     OW19247   0.480   1.355   3.619  0.0914 -0.0954  0.0028
 6268SOL    HW119248   0.422   1.279   3.629  0.0939 -0.2385 -0.9950
 6268SOL    HW219249   0.552   1.337   3.680 -0.0775 -0.7315  0.0272
 6269SOL     OW19250   5.406   4.668   4.266  0.0320 -0.1891 -0.0788
 6269SOL    HW119251   5.415   4.759   4.238 -3.1816 -0.0295 -1.0301
 6269SOL    HW219252   5.488   4.648   4.312  1.6764  2.4966 -1.5916
 6270SOL     OW19253   5.850   5.414   6.020  0.1857  0.3740 -0.0637
 6270SOL    HW119254   5.870   5.425   6.113  2.1554  3.5908 -0.7243
 6270SOL    HW219255   5.754   5.417   6.016 -0.0339 -1.1457  1.8928
 6271SOL     OW19256   3.683   4.248   5.647  0.3062  0.1976  0.0841
 6271SOL    HW119257   3.778   4.253   5.643  0.4863 -1.8015  0.5794
 6271SOL    HW219258   3.659   4.301   5.723  1.0739  0.2731  0.2766
 6272SOL     OW19259   0.337   5.998   6.069 -0.5993 -0.1125 -0.0201
 6272SOL    HW119260   0.340   5.907   6.099 -0.6994  0.1190  0.7319
 6272SOL    HW219261   0.340   5.992   5.974 -0.3992 -0.8922  0.0242
 6273SOL     OW19262   4.787   4.367   2.821  0.0517  0.5441  0.2210
 6273SOL    HW119263   4.851   4.333   2.759  0.1552  1.6689 -0.3168
 6273SOL    HW219264   4.770   4.294   2.881  1.3793  0.0448  0.0191
 6274SOL     OW19265   1.179   4.425   2.568 -0.0040  0.6227  0.1736
 6274SOL    HW119266   1.091   4.409   2.600  0.5493 -0.0226  1.4735
 6274SOL    HW219267   1.231   4.438   2.648  1.0449  1.0986 -0.5682
 6275SOL     OW19268   2.300   3.034   1.990  0.6620  0.0941  0.6447
 6275SOL    HW119269   2.363   3.048   1.919 -0.3095  0.9969 -0.0649
 6275SOL    HW219270   2.333   2.956   2.036  0.5520 -1.4026 -1.6588
 6276SOL     OW19271   3.944   2.001   3.059 -0.1059 -0.1316 -0.5639
 6276SOL    HW119272   3.881   1.965   3.121  1.0499  1.5312  1.7352
 6276SOL    HW219273   4.030   1.980   3.096  0.6166  2.3682 -0.6242
 6277SOL     OW19274   4.846   2.753   0.907  0.2434 -0.2768 -0.3345
 6277SOL    HW119275   4.851   2.735   0.813  0.8524 -0.1222 -0.3380
 6277SOL    HW219276   4.897   2.682   0.948 -1.0062 -1.0289 -0.0225
 6278SOL     OW19277   1.493   1.497   4.967 -0.1605  0.1250 -0.5175
 6278SOL    HW119278   1.584   1.516   4.989 -0.2087  0.0363 -0.2501
 6278SOL    HW219279   1.498   1.421   4.909 -0.1817 -1.0323  0.9430
 6279SOL     OW19280   5.578   1.642   0.843 -0.3199 -0.1805  1.0197
 6279SOL    HW119281   5.578   1.590   0.762 -2.4355  1.8421 -0.3893
 6279SOL    HW219282   5.671   1.659   0.860  0.1822  0.4574 -1.7936
 6280SOL     OW19283   5.449   0.631   0.585 -0.6023  0.0234 -0.0309
 6280SOL    HW119284   5.396   0.603   0.510 -0.1923  1.2947 -0.8285
 6280SOL    HW219285   5.532   0.583   0.574 -1.0509 -0.8722  0.4168
 6281SOL     OW19286   5.673   1.484   1.921 -0.2261 -0.1013 -0.3092
 6281SOL    HW119287   5.762   1.516   1.936  0.3937 -1.8779  0.0343
 6281SOL    HW219288   5.678   1.438   1.838 -1.3073  1.3515 -1.2191
 6282SOL     OW19289   5.837   5.105   0.122  0.4473  0.0531 -0.1283
 6282SOL    HW119290   5.902   5.164   0.161  1.5539 -1.3700  0.2687
 6282SOL    HW219291   5.877   5.077   0.040 -0.4305  0.4593 -0.7092
 6283SOL     OW19292   5.744   1.156   3.594  0.0561  0.4521  0.2300
 6283SOL    HW119293   5.698   1.090   3.647  0.6162  2.3178  3.2361
 6283SOL    HW219294   5.674   1.201   3.546 -1.1492  1.6555  2.9005
 6284SOL     OW19295   0.734   5.280   0.598  0.1463  0.4227  0.4911
 6284SOL    HW119296   0.760   5.252   0.511  0.1572 -0.1545  0.6773
 6284SOL    HW219297   0.791   5.232   0.658  1.1460  1.8998  0.7839
 6285SOL     OW19298   0.196   1.461   1.799 -0.5288 -0.1058  0.2272
 6285SOL    HW119299   0.268   1.401   1.778 -0.8495 -0.9450  1.4172
 6285SOL    HW219300   0.117   1.414   1.772 -0.7108  2.6036 -5.6472
 6286SOL     OW19301   4.954   3.887   5.351 -0.6078  0.2012 -0.4245
 6286SOL    HW119302   4.947   3.800   5.314  0.1060 -0.0951  0.1112
 6286SOL    HW219303   4.943   3.946   5.277  0.2398 -0.3691 -1.0229
 6287SOL     OW19304   2.838   5.484   3.685  0.3686 -0.4952  0.1453
 6287SOL    HW119305   2.851   5.566   3.733 -0.3933 -0.3466  0.1098
 6287SOL    HW219306   2.888   5.496   3.604 -1.1377  0.6534 -0.6622
 6288SOL     OW19307   4.278   2.585   0.252  0.2593 -0.4345  0.7490
 6288SOL    HW119308   4.310   2.495   0.263 -1.4170 -1.0245  1.1274
 6288SOL    HW219309   4.255   2.591   0.159 -1.8234 -1.2230  1.1576
 6289SOL     OW19310   4.987   3.343   0.548 -0.2727 -0.8603  0.7614
 6289SOL    HW119311   4.979   3.286   0.470  0.7435  1.0238 -0.8021
 6289SOL    HW219312   5.061   3.307   0.596  0.1765 -1.0673 -0.0562
 6290SOL     OW19313   5.576   1.993   0.365 -0.3733  0.2295 -0.6517
 6290SOL    HW119314   5.671   1.977   0.363  0.1827  2.0802  2.9198
 6290SOL    HW219315   5.537   1.907   0.377  0.9349 -0.4248 -0.9014
 6291SOL     OW19316   2.500   3.329   4.028  1.1303 -0.3416 -0.3831
 6291SOL    HW119317   2.546   3.400   3.985 -3.8009  2.7636 -1.3900
 6291SOL    HW219318   2.509   3.346   4.122  0.0492  1.7382 -0.6124
 6292SOL     OW19319   0.629   2.430   1.679  0.8082 -0.5989  0.2248
 6292SOL    HW119320   0.567   2.358   1.667  1.1068 -1.0692  1.3775
 6292SOL    HW219321   0.705   2.404   1.627  0.4866 -0.5625 -0.2753
 6293SOL     OW19322   5.471   0.919   3.429 -0.2404 -0.2402 -0.2538
 6293SOL    HW119323   5.560   0.891   3.409  0.4625  2.0085 -0.5255
 6293SOL    HW219324   5.417   0.875   3.363  0.9857  0.2731 -1.6527
 6294SOL     OW19325   0.686   3.097   4.211 -0.4579 -0.4674 -0.3333
 6294SOL    HW119326   0.694   3.108   4.306  1.2465 -0.2716 -0.4757
 6294SOL    HW219327   0.603   3.139   4.189 -0.8766 -0.5211  1.0729
 6295SOL     OW19328   0.483   5.531   6.021 -0.0225  0.8207 -0.5364
 6295SOL    HW119329   0.513   5.613   5.982 -0.9332  1.7305  0.5738
 6295SOL    HW219330   0.400   5.513   5.977 -0.4732  1.2223  0.1274
 6296SOL     OW19331   4.519   2.246   5.364  0.4731 -0.1241  0.0929
 6296SOL    HW119332   4.614   2.254   5.358  0.3893  0.3734 -0.5895
 6296SOL    HW219333   4.489   2.234   5.274 -0.2358  1.1334  0.1363
 6297SOL     OW19334   5.252   2.505   1.127  0.2031 -0.5456  0.2127
 6297SOL    HW119335   5.308   2.575   1.094 -0.8774  0.3970  0.3339
 6297SOL    HW219336   5.219   2.461   1.049  1.8162 -1.7336  0.1365
 6298SOL     OW19337   5.238   2.996   3.923  0.5447 -0.3249 -0.3832
 6298SOL    HW119338   5.266   3.078   3.965  0.6187  0.1113 -1.2725
 6298SOL    HW219339   5.151   3.015   3.890 -0.3420 -1.2835  1.2507
 6299SOL     OW19340   4.206   5.817   3.065  0.0319  0.2728 -0.0030
 6299SOL    HW119341   4.302   5.813   3.058 -0.0938 -0.8728 -1.4971
 6299SOL    HW219342   4.175   5.738   3.022 -1.6417  1.1363 -0.4779
 6300SOL     OW19343   2.053   1.821   1.520  0.0632  0.2094 -0.0319
 6300SOL    HW119344   2.092   1.734   1.512  0.0852  0.2251 -0.0905
 6300SOL    HW219345   2.124   1.882   1.501  0.2478  0.2567  0.7679
 6301SOL     OW19346   5.789   0.698   4.172  0.2335  0.6241 -0.5605
 6301SOL    HW119347   5.789   0.718   4.266  0.9194  1.4147 -0.7152
 6301SOL    HW219348   5.873   0.731   4.140  0.3448 -0.3358 -1.3172
 6302SOL     OW19349   1.903   4.316   2.955  0.2526 -0.0405 -0.2383
 6302SOL    HW119350   1.822   4.334   3.003 -0.2827  1.7579 -1.7064
 6302SOL    HW219351   1.912   4.221   2.959 -2.1715 -0.3371 -0.3984
 6303SOL     OW19352   5.605   3.649   3.681  0.7767 -0.1243  0.3873
 6303SOL    HW119353   5.534   3.630   3.619 -0.6677  1.3444  1.4991
 6303SOL    HW219354   5.677   3.679   3.626  0.3207 -0.9979 -0.7286
 6304SOL     OW19355   5.328   1.934   0.000  0.5076  0.3457 -0.0400
 6304SOL    HW119356   5.305   1.959   0.090 -2.4662  0.2367 -0.6978
 6304SOL    HW219357   5.324   2.015  -0.050 -1.8834 -0.1593 -0.7796
 6305SOL     OW19358   1.628   2.002   1.226 -0.3264 -0.0906 -0.4642
 6305SOL    HW119359   1.650   2.030   1.137  0.8735 -0.0010 -0.1624
 6305SOL    HW219360   1.632   2.083   1.277 -0.1965 -0.2659 -0.1949
 6306SOL     OW19361   2.475   3.068   1.560  0.2448 -0.3681  0.4629
 6306SOL    HW119362   2.390   3.023   1.551  0.5020 -0.8619  0.4608
 6306SOL    HW219363   2.539   3.003   1.531  0.6702 -0.1925  1.0054
 6307SOL     OW19364   2.891   3.605   1.667 -0.3283 -0.3525 -0.0744
 6307SOL    HW119365   2.876   3.569   1.579  0.3781 -1.5775  0.2719
 6307SOL    HW219366   2.825   3.673   1.677 -0.3929 -0.1614 -1.5738
 6308SOL     OW19367   5.203   3.913   1.565  0.5123  0.6662  0.2413
 6308SOL    HW119368   5.268   3.983   1.564 -0.7480  1.9003  1.1715
 6308SOL    HW219369   5.128   3.949   1.517 -0.5779  0.4246  1.7104
 6309SOL     OW19370   3.584   1.942   0.398  0.3884 -0.1542  0.5712
 6309SOL    HW119371   3.511   1.999   0.373  0.9950  0.3385 -0.0879
 6309SOL    HW219372   3.552   1.854   0.381  0.6142  0.1334 -1.5445
 6310SOL     OW19373   5.390   2.343   2.499  0.2440 -0.0319  0.2772
 6310SOL    HW119374   5.475   2.369   2.536 -0.1672 -0.2456  1.4075
 6310SOL    HW219375   5.357   2.423   2.458  0.2423  0.5141  1.2994
 6311SOL     OW19376   2.144   2.816   0.244  0.2714  0.1040  0.3046
 6311SOL    HW119377   2.144   2.722   0.224  1.9305 -0.3241  2.0455
 6311SOL    HW219378   2.115   2.821   0.335 -0.3397  1.3581  0.0651
 6312SOL     OW19379   3.719   2.925   1.408  0.0124 -0.0669  0.7278
 6312SOL    HW119380   3.814   2.924   1.416 -0.0176 -1.6617  1.4317
 6312SOL    HW219381   3.701   2.983   1.335  1.4891  0.7127  0.9486
 6313SOL     OW19382   6.049   0.680   2.450 -0.2214  0.3918  0.0555
 6313SOL    HW119383   6.004   0.764   2.458  3.6980  2.6817  0.6614
 6313SOL    HW219384   6.062   0.652   2.541  0.3448  0.2611 -0.0636
 6314SOL     OW19385   5.203   4.307   0.525  0.1498 -0.3681  0.2145
 6314SOL    HW119386   5.248   4.307   0.610  1.2969 -0.3091 -0.3684
 6314SOL    HW219387   5.121   4.353   0.541  1.4707  1.9861  0.7343
 6315SOL     OW19388   3.942   4.292   1.846 -0.0186 -0.0877 -0.2709
 6315SOL    HW119389   3.884   4.339   1.785  0.7954  0.9846 -0.2597
 6315SOL    HW219390   4.029   4.303   1.808  0.2055 -1.5370 -0.1982
 6316SOL     OW19391   0.967   5.488   3.576  0.0756  0.0089 -0.4262
 6316SOL    HW119392   0.886   5.442   3.554  0.4452 -0.0885 -1.6514
 6316SOL    HW219393   0.986   5.542   3.499  0.9833  0.3096 -0.0064
 6317SOL     OW19394   2.044   5.522   6.041 -0.2326  0.2349 -0.7167
 6317SOL    HW119395   2.047   5.474   6.124 -1.3888  1.0570 -0.1737
 6317SOL    HW219396   2.134   5.550   6.026 -0.2181  1.2918  1.0233
 6318SOL     OW19397   5.530   5.305   4.432 -0.3737 -0.0435  0.6337
 6318SOL    HW119398   5.563   5.366   4.497 -0.4406 -1.1234  1.7246
 6318SOL    HW219399   5.438   5.328   4.421 -0.4453 -0.0617  1.1844
 6319SOL     OW19400   2.683   3.980   4.256 -0.2322  0.1489  0.6618
 6319SOL    HW119401   2.590   4.000   4.253 -0.4596 -0.5834  2.2229
 6319SOL    HW219402   2.702   3.965   4.348  1.4600  0.3778  0.3834
 6320SOL     OW19403   1.836   0.903   5.735  0.6689 -0.9355 -0.1563
 6320SOL    HW119404   1.847   0.962   5.661  1.3638  1.0086  1.3887
 6320SOL    HW219405   1.771   0.946   5.791  0.3073 -2.2344  0.4738
 6321SOL     OW19406   3.181   1.186   4.473 -0.2007 -0.2681 -0.1922
 6321SOL    HW119407   3.197   1.228   4.557  2.1098 -0.2560 -0.5768
 6321SOL    HW219408   3.230   1.104   4.478 -1.2485 -0.9731 -1.0017
 6322SOL     OW19409   3.896   3.854   5.593  0.2622 -0.4007  0.4047
 6322SOL    HW119410   3.822   3.913   5.581 -0.0889 -0.5814  1.6200
 6322SOL    HW219411   3.929   3.872   5.681  1.0037 -1.0577  0.2784
 6323SOL     OW19412   3.301   1.651   0.383  1.0201 -0.2914  0.0028
 6323SOL    HW119413   3.223   1.704   0.399  0.1559 -1.0774 -1.4440
 6323SOL    HW219414   3.356   1.665   0.461  0.7464  2.4930 -0.2106
 6324SOL     OW19415   3.582   5.622   2.478  0.1573  0.4207 -0.0101
 6324SOL    HW119416   3.616   5.587   2.560 -1.5318 -0.0274  0.5375
 6324SOL    HW219417   3.660   5.644   2.427  1.2926  2.3228  2.3426
 6325SOL     OW19418   6.005   4.654   3.306 -0.1657 -0.0879  0.4748
 6325SOL    HW119419   6.006   4.639   3.400  1.4142 -0.1782  0.4694
 6325SOL    HW219420   6.000   4.566   3.268  0.0245 -0.1025  0.4809
 6326SOL     OW19421   4.160   5.258   5.404  0.6507  0.0552 -0.1651
 6326SOL    HW119422   4.193   5.348   5.406  0.8787  0.0004 -1.3432
 6326SOL    HW219423   4.089   5.259   5.340 -0.0015 -0.3941  0.5280
 6327SOL     OW19424   1.424   3.685   2.131 -0.0359 -0.0055  0.0617
 6327SOL    HW119425   1.489   3.739   2.177  0.5825 -0.4073 -0.3239
 6327SOL    HW219426   1.471   3.651   2.055 -0.8261  0.0334 -0.4586
 6328SOL     OW19427   2.994   1.352   3.286  0.4434  0.2049  0.0627
 6328SOL    HW119428   3.069   1.410   3.297  0.5695  0.6109 -2.2919
 6328SOL    HW219429   3.031   1.264   3.289  0.6751  0.3293  0.9899
 6329SOL     OW19430   0.077   1.832   5.743 -0.5414  0.9312  0.1173
 6329SOL    HW119431   0.146   1.898   5.741  1.7587 -1.3332 -0.7878
 6329SOL    HW219432   0.105   1.767   5.679 -1.6716 -1.8644  2.2851
 6330SOL     OW19433   2.230   1.469   5.702 -0.3922  0.0763  0.4317
 6330SOL    HW119434   2.317   1.438   5.678 -0.2766  0.7163 -0.0087
 6330SOL    HW219435   2.173   1.434   5.634 -0.6616 -1.1996  1.2706
 6331SOL     OW19436   1.221   4.582   3.528  0.0828 -0.0049  0.2412
 6331SOL    HW119437   1.296   4.583   3.588  2.5012  0.3469 -2.5350
 6331SOL    HW219438   1.153   4.631   3.574  1.4930 -0.3762  2.9487
 6332SOL     OW19439   3.869   1.430   4.256  0.0090 -0.1996  0.5247
 6332SOL    HW119440   3.801   1.452   4.192 -1.6612  1.9141  2.8321
 6332SOL    HW219441   3.926   1.369   4.210  0.0505  2.5917 -3.6432
 6333SOL     OW19442   2.964   0.491   0.166 -0.0045 -0.0521  0.0546
 6333SOL    HW119443   2.913   0.481   0.247 -2.5454  1.9963 -1.1245
 6333SOL    HW219444   2.994   0.582   0.169 -1.8714  0.7177 -2.1206
 6334SOL     OW19445   0.379   5.653   1.167 -0.0251  0.2436  0.2271
 6334SOL    HW119446   0.325   5.576   1.183 -1.1400  0.6725 -1.1254
 6334SOL    HW219447   0.365   5.709   1.244 -0.2660 -0.3373  0.6096
 6335SOL     OW19448   2.231   1.895   4.231 -0.1391  0.4712 -0.1622
 6335SOL    HW119449   2.184   1.820   4.267  0.7987 -0.4545 -0.7938
 6335SOL    HW219450   2.293   1.920   4.300  0.4320 -0.1748 -0.4210
 6336SOL     OW19451   5.366   5.995   0.198 -0.2465 -0.0756 -0.6720
 6336SOL    HW119452   5.426   5.949   0.257 -0.4008  0.1571 -0.3238
 6336SOL    HW219453   5.290   5.937   0.192 -0.7222  0.4272  0.3019
 6337SOL     OW19454   1.568   2.251   4.532 -0.0608 -0.7206  0.5822
 6337SOL    HW119455   1.590   2.344   4.537 -0.3166 -0.6105 -0.1504
 6337SOL    HW219456   1.476   2.251   4.507 -0.0716 -1.1776  0.6270
 6338SOL     OW19457   1.211   2.043   4.778  1.0441 -0.0182  0.2887
 6338SOL    HW119458   1.194   1.950   4.767 -1.0797  0.1500  1.5129
 6338SOL    HW219459   1.252   2.051   4.864  1.3712  0.1455  0.1165
 6339SOL     OW19460   1.562   1.143   0.617 -0.5467  0.2895  0.5050
 6339SOL    HW119461   1.579   1.140   0.523 -0.5969 -0.7927  0.5176
 6339SOL    HW219462   1.645   1.173   0.655 -0.9467  2.1090  0.0323
 6340SOL     OW19463   0.410   2.887   0.822  0.2047  0.5246  0.3905
 6340SOL    HW119464   0.350   2.895   0.896 -0.3930  0.5000 -0.0861
 6340SOL    HW219465   0.488   2.846   0.859 -0.2158  0.2079  0.9444
 6341SOL     OW19466   1.802   5.456   4.325  0.5085 -0.3705  0.0147
 6341SOL    HW119467   1.859   5.384   4.296 -0.6288 -1.2910 -0.0028
 6341SOL    HW219468   1.756   5.483   4.246 -0.5527 -1.0040  0.4015
 6342SOL     OW19469   2.150   5.573   3.876  0.3289 -0.2439  0.3187
 6342SOL    HW119470   2.126   5.579   3.968  1.1128 -0.8584  0.5689
 6342SOL    HW219471   2.238   5.611   3.871 -0.8189  2.5940 -0.6956
 6343SOL     OW19472   4.889   2.481   0.072  0.4129  0.5410 -0.9245
 6343SOL    HW119473   4.911   2.438   0.155  1.9391 -1.1881 -2.1402
 6343SOL    HW219474   4.903   2.574   0.089  0.8400  0.2016  0.7208
 6344SOL     OW19475   3.536   1.430   0.933 -0.2114  0.3580 -0.5640
 6344SOL    HW119476   3.480   1.506   0.948 -1.3013 -0.5090 -0.1228
 6344SOL    HW219477   3.618   1.453   0.976 -1.0667  0.6535  0.9888
 6345SOL     OW19478   3.025   4.233   3.266  0.3971 -0.4355  0.4452
 6345SOL    HW119479   3.012   4.172   3.339  0.5686  0.5537  1.3186
 6345SOL    HW219480   3.100   4.286   3.292 -0.1404  0.5736 -0.0121
 6346SOL     OW19481   0.503   0.172   0.324  0.3462 -0.1038  0.5106
 6346SOL    HW119482   0.488   0.124   0.243 -0.0658  0.8396  0.0153
 6346SOL    HW219483   0.570   0.122   0.370  0.6853 -0.5708 -0.4848
 6347SOL     OW19484   2.250   3.378   2.942 -1.3070  0.2114  0.5770
 6347SOL    HW119485   2.283   3.426   3.019 -0.6371 -0.0750  0.4804
 6347SOL    HW219486   2.273   3.287   2.959 -1.7067  0.0589  0.3138
 6348SOL     OW19487   5.702   4.792   5.551  0.5451 -0.2215 -0.0147
 6348SOL    HW119488   5.632   4.763   5.610  0.9745 -0.9649  0.1457
 6348SOL    HW219489   5.744   4.864   5.597  1.5709 -1.4886  1.1152
 6349SOL     OW19490   0.636   3.890   3.817 -0.4322  0.3116 -0.3304
 6349SOL    HW119491   0.700   3.819   3.806 -0.0571  0.2008  2.0791
 6349SOL    HW219492   0.552   3.845   3.825 -0.1272  0.0297  1.7721
 6350SOL     OW19493   4.383   1.260   1.934  0.3667  0.0171 -0.2190
 6350SOL    HW119494   4.418   1.349   1.924  3.9199 -1.3445 -1.7166
 6350SOL    HW219495   4.391   1.242   2.028  1.6914  0.5784 -0.1973
 6351SOL     OW19496   3.963   3.962   3.967 -0.0755  0.0887  0.2441
 6351SOL    HW119497   3.945   3.963   3.873 -2.0365 -0.7709  0.5571
 6351SOL    HW219498   4.017   3.884   3.980 -0.0761  0.0262 -0.1242
 6352SOL     OW19499   4.543   0.577   3.286 -0.2808 -0.3372  0.0776
 6352SOL    HW119500   4.513   0.625   3.209 -0.5965  0.7643  0.8736
 6352SOL    HW219501   4.504   0.623   3.360  1.5200 -0.2349  1.0130
 6353SOL     OW19502   5.340   0.089   3.407  0.0934  0.1918  0.1571
 6353SOL    HW119503   5.275   0.048   3.349  0.4862 -2.3537  1.3619
 6353SOL    HW219504   5.393   0.143   3.349 -1.2502 -0.0567 -1.3666
 6354SOL     OW19505   3.540   5.407   5.075  0.4140 -0.3873 -0.2839
 6354SOL    HW119506   3.600   5.370   5.140 -0.6816 -0.6908  0.5729
 6354SOL    HW219507   3.458   5.360   5.088 -1.2050  2.5454  1.1388
 6355SOL     OW19508   5.548   3.551   2.414 -0.0559 -0.0786  0.4743
 6355SOL    HW119509   5.535   3.628   2.470  0.9121  0.9759 -0.6740
 6355SOL    HW219510   5.637   3.523   2.432  0.3432  0.4096 -0.6724
 6356SOL     OW19511   4.700   0.139   0.077 -0.0801 -0.2099 -0.1965
 6356SOL    HW119512   4.648   0.215   0.105  1.6751  0.7290  0.6738
 6356SOL    HW219513   4.757   0.174   0.008  1.5204 -0.4249  0.9749
 6357SOL     OW19514   3.788   3.160   0.022  0.3449 -0.4243 -0.1668
 6357SOL    HW119515   3.796   3.185  -0.070  0.7910 -1.1162 -0.3192
 6357SOL    HW219516   3.701   3.121   0.029 -0.3479  1.1116  0.0674
 6358SOL     OW19517   5.105   4.351   1.393 -0.5451 -0.2457  0.2028
 6358SOL    HW119518   5.041   4.420   1.378  0.3367  1.4979  3.4530
 6358SOL    HW219519   5.187   4.387   1.360 -0.0667  0.4016  1.9823
 6359SOL     OW19520   3.256   1.159   1.451 -0.0677 -0.4819 -0.5252
 6359SOL    HW119521   3.292   1.075   1.424  2.1028  0.3060 -0.2612
 6359SOL    HW219522   3.185   1.137   1.511 -0.4302 -2.1194 -1.5180
 6360SOL     OW19523   4.681   5.881   5.460  0.6174 -0.0897  0.2765
 6360SOL    HW119524   4.622   5.893   5.534 -0.4534  1.2915 -0.7642
 6360SOL    HW219525   4.678   5.964   5.412 -0.9138 -1.7575 -2.8675
 6361SOL     OW19526   4.313   0.603   1.459  0.2900  0.3637  0.0218
 6361SOL    HW119527   4.366   0.611   1.379 -0.0947 -0.2247 -0.2994
 6361SOL    HW219528   4.224   0.618   1.429  0.0293 -0.8372  0.1549
 6362SOL     OW19529   5.046   4.864   1.706  0.2441  0.1497 -0.5024
 6362SOL    HW119530   5.092   4.893   1.627 -0.2374 -2.7023 -1.9564
 6362SOL    HW219531   4.956   4.851   1.679  0.1454 -1.2509  0.4012
 6363SOL     OW19532   3.133   2.152   0.320 -0.0538 -0.6398  0.1746
 6363SOL    HW119533   3.104   2.238   0.290  1.0155  0.0734  1.1450
 6363SOL    HW219534   3.053   2.099   0.318 -0.7185  0.3347 -0.4948
 6364SOL     OW19535   1.191   5.138   1.830  0.5089 -0.6311 -0.1959
 6364SOL    HW119536   1.173   5.069   1.765  0.1487 -0.8402  0.1258
 6364SOL    HW219537   1.109   5.148   1.878  0.2494  0.6912 -0.8608
 6365SOL     OW19538   3.806   5.947   1.195 -0.5942 -0.2016 -0.7357
 6365SOL    HW119539   3.764   5.873   1.237  0.0989 -1.3029 -1.8964
 6365SOL    HW219540   3.801   5.928   1.101 -0.2969  1.1653 -1.0600
 6366SOL     OW19541   4.324   2.457   5.465 -0.0820 -0.3178  0.0097
 6366SOL    HW119542   4.390   2.526   5.471 -2.0228  1.7482 -0.9882
 6366SOL    HW219543   4.338   2.419   5.378 -0.7773  0.8038 -0.6211
 6367SOL     OW19544   1.744   4.396   1.383  0.4688  0.1593  0.2545
 6367SOL    HW119545   1.799   4.400   1.461  1.2464 -0.2936 -0.2693
 6367SOL    HW219546   1.676   4.462   1.399  1.4465  1.0797  0.6799
 6368SOL     OW19547   2.016   3.175   1.947 -0.8054  0.0161 -0.4122
 6368SOL    HW119548   1.943   3.116   1.927 -0.3247 -0.4024 -1.0025
 6368SOL    HW219549   2.092   3.117   1.953 -0.3394  0.5649 -0.9021
 6369SOL     OW19550   0.132   0.114   3.253 -0.6366 -0.3323 -0.8698
 6369SOL    HW119551   0.061   0.075   3.304  0.2178  1.6829  2.1455
 6369SOL    HW219552   0.087   0.173   3.191 -1.6595 -1.6405 -1.4123
 6370SOL     OW19553   5.271   4.518   5.317 -0.0117 -0.6202 -0.4728
 6370SOL    HW119554   5.228   4.512   5.402  1.7498  0.7739  0.5737
 6370SOL    HW219555   5.215   4.577   5.266 -1.8110 -2.5115 -0.8487
 6371SOL     OW19556   1.324   1.737   1.174 -0.3740  0.4025  0.5295
 6371SOL    HW119557   1.327   1.768   1.265 -3.6445  1.6517  0.3374
 6371SOL    HW219558   1.278   1.654   1.178 -1.3834  0.9175 -0.0413
 6372SOL     OW19559   2.966   4.594   1.160  0.0406 -1.0850  0.0757
 6372SOL    HW119560   2.966   4.509   1.203  0.4076 -1.0152  0.2186
 6372SOL    HW219561   2.961   4.657   1.231  3.3719 -0.8739  0.2742
 6373SOL     OW19562   4.852   0.625   2.290 -0.2184 -0.5069 -0.2822
 6373SOL    HW119563   4.899   0.631   2.373  0.1804 -0.3265 -0.5145
 6373SOL    HW219564   4.772   0.576   2.310 -1.4041  1.6783  0.7844
 6374SOL     OW19565   1.389   1.480   3.843 -0.3368 -0.1417 -0.0812
 6374SOL    HW119566   1.437   1.532   3.908 -0.1236  0.3990 -0.6619
 6374SOL    HW219567   1.411   1.521   3.759 -1.5166 -0.1170 -0.3937
 6375SOL     OW19568   1.611   0.466   2.192  0.3671  0.1102 -0.1612
 6375SOL    HW119569   1.546   0.535   2.209  1.5033  0.6996  2.1750
 6375SOL    HW219570   1.559   0.392   2.162 -1.0302  1.5538 -1.5085
 6376SOL     OW19571   2.456   5.729   1.503  0.1676  0.0690 -1.2752
 6376SOL    HW119572   2.515   5.800   1.529 -2.7545  2.3277 -0.2772
 6376SOL    HW219573   2.452   5.735   1.408 -0.8653  2.1106 -1.1671
 6377SOL     OW19574   6.070   3.574   0.646 -0.4301  0.1237 -0.1595
 6377SOL    HW119575   6.113   3.559   0.730 -0.7360 -0.8929 -0.1677
 6377SOL    HW219576   5.996   3.631   0.667 -1.8723 -1.8978  0.7150
 6378SOL     OW19577   1.593   2.157   3.988 -0.0915 -0.0072 -0.5712
 6378SOL    HW119578   1.617   2.078   3.939  1.3860  0.3122 -0.4056
 6378SOL    HW219579   1.497   2.156   3.990 -0.1370 -3.0393  1.4272
 6379SOL     OW19580   0.887   4.809   1.652  0.1793  0.0054  0.2724
 6379SOL    HW119581   0.949   4.738   1.638 -0.5180 -0.5278 -0.1786
 6379SOL    HW219582   0.884   4.820   1.747  0.7274 -0.1681  0.3130
 6380SOL     OW19583   3.134   4.750   3.237  0.0651 -0.3393 -0.9312
 6380SOL    HW119584   3.167   4.661   3.254  0.9377  0.1766  0.2050
 6380SOL    HW219585   3.208   4.797   3.200  0.1367  0.3838  0.0993
 6381SOL     OW19586   1.968   0.678   3.357  0.2930 -0.0153 -0.1684
 6381SOL    HW119587   2.058   0.647   3.345 -0.4237 -2.5131  0.2246
 6381SOL    HW219588   1.954   0.739   3.285  1.4640 -1.6913 -1.9311
 6382SOL     OW19589   0.032   1.448   5.964  0.6089 -0.0778 -0.4177
 6382SOL    HW119590   0.002   1.415   5.879  0.4261 -1.2175  0.0699
 6382SOL    HW219591  -0.023   1.524   5.981  1.1953  0.6610 -1.6856
 6383SOL     OW19592   0.532   5.958   0.696 -0.6414 -0.6252  0.1047
 6383SOL    HW119593   0.571   5.948   0.609 -0.9143  2.5165 -0.4994
 6383SOL    HW219594   0.455   5.902   0.694 -0.4742 -0.8513 -1.5479
 6384SOL     OW19595   1.548   3.225   3.531  0.3319  0.5143 -0.0604
 6384SOL    HW119596   1.483   3.160   3.558 -0.7613  1.4950 -0.2294
 6384SOL    HW219597   1.496   3.298   3.498  1.5470  1.1569 -0.6091
 6385SOL     OW19598   1.142   3.102   4.699 -0.5758  0.2226 -0.0684
 6385SOL    HW119599   1.178   3.182   4.737  0.6743 -0.5265  0.4036
 6385SOL    HW219600   1.107   3.054   4.775  1.8691 -1.2532  0.2222
 6386SOL     OW19601   5.404   3.140   4.302  0.1319  0.2501 -0.3378
 6386SOL    HW119602   5.339   3.161   4.235  1.5671  2.6880 -1.0982
 6386SOL    HW219603   5.488   3.156   4.260  1.3919 -3.7897  0.2823
 6387SOL     OW19604   1.317   2.558   6.050 -0.1784 -0.1522 -0.1395
 6387SOL    HW119605   1.240   2.570   6.104  0.1467  1.5652 -0.0185
 6387SOL    HW219606   1.373   2.498   6.101 -1.5661 -1.7650 -0.4306
 6388SOL     OW19607   0.133   1.405   4.378 -0.3867 -0.7181  0.4078
 6388SOL    HW119608   0.073   1.462   4.330 -0.0440  0.1602  0.9940
 6388SOL    HW219609   0.089   1.320   4.380 -0.9764 -0.4405 -0.3605
 6389SOL     OW19610   1.939   4.525   0.819  0.1157  0.6551 -0.3689
 6389SOL    HW119611   1.949   4.523   0.915 -1.1998 -0.0783 -0.2264
 6389SOL    HW219612   1.848   4.499   0.804  0.5131  0.0404 -1.8699
 6390SOL     OW19613   4.544   5.220   4.220  0.7624 -0.1973 -0.0346
 6390SOL    HW119614   4.556   5.205   4.314  2.1947 -0.0207 -0.1641
 6390SOL    HW219615   4.487   5.297   4.215 -0.4936 -1.0408  0.6616
 6391SOL     OW19616   5.214   0.589   4.602 -0.0299  0.0409 -0.2761
 6391SOL    HW119617   5.310   0.591   4.597 -0.0092 -1.0372 -0.6007
 6391SOL    HW219618   5.186   0.663   4.548  0.6304  0.9008  0.5355
 6392SOL     OW19619   4.381   4.537   0.184  0.3103  0.4983  0.2350
 6392SOL    HW119620   4.335   4.582   0.114  0.3587  1.8054  1.0108
 6392SOL    HW219621   4.471   4.570   0.179  0.5179 -0.0195  0.4031
 6393SOL     OW19622   3.734   4.240   3.602  0.7403 -0.2057 -0.5346
 6393SOL    HW119623   3.759   4.284   3.683 -1.8011 -0.3788  0.4267
 6393SOL    HW219624   3.764   4.299   3.532  3.9954 -0.5874  0.3717
 6394SOL     OW19625   2.370   5.823   5.143  0.3949  0.0673 -0.3354
 6394SOL    HW119626   2.345   5.755   5.206  0.0665  0.1696 -0.3557
 6394SOL    HW219627   2.406   5.774   5.069 -0.0002 -0.0913 -0.4219
 6395SOL     OW19628   2.901   3.686   3.897  0.1535 -0.2065 -0.1951
 6395SOL    HW119629   2.995   3.702   3.898  0.4898 -2.0317  0.8058
 6395SOL    HW219630   2.863   3.769   3.928  1.3727  0.6623 -0.9081
 6396SOL     OW19631   2.997   3.182   5.205 -0.0971 -0.4054  0.1421
 6396SOL    HW119632   2.904   3.176   5.181  0.2911  0.1267 -1.7422
 6396SOL    HW219633   3.002   3.260   5.260 -0.8628 -0.8112  0.8007
 6397SOL     OW19634   2.435   4.688   5.664  0.0206  0.6851 -0.3298
 6397SOL    HW119635   2.375   4.737   5.607  1.2098  1.2686 -1.1155
 6397SOL    HW219636   2.491   4.755   5.703  0.7580  0.0693 -0.3160
 6398SOL     OW19637   0.483   0.257   5.006  0.0769  0.0473 -0.4436
 6398SOL    HW119638   0.543   0.258   5.081  0.0030  0.7070 -0.3789
 6398SOL    HW219639   0.429   0.179   5.019 -1.0881  1.0513  1.1519
 6399SOL     OW19640   0.374   3.327   2.221 -0.2699 -0.7252  0.4482
 6399SOL    HW119641   0.362   3.411   2.266 -0.4901 -0.8080  0.5443
 6399SOL    HW219642   0.466   3.328   2.193 -0.4494 -0.1572 -0.1508
 6400SOL     OW19643   1.507   3.924   3.268  0.2494 -0.3539  0.2350
 6400SOL    HW119644   1.602   3.933   3.276  0.6653 -1.5693 -2.4645
 6400SOL    HW219645   1.478   4.005   3.225 -0.0948  0.3341  1.6924
 6401SOL     OW19646   4.559   0.297   3.565  0.6716  0.2075  0.2102
 6401SOL    HW119647   4.582   0.236   3.636 -0.4865  1.0028  1.3043
 6401SOL    HW219648   4.505   0.364   3.607  0.9971  1.4005 -1.1909
 6402SOL     OW19649   3.809   1.361   5.477  0.2069  0.0081 -0.5218
 6402SOL    HW119650   3.788   1.299   5.407  1.7703 -0.4208 -0.6406
 6402SOL    HW219651   3.768   1.324   5.555 -0.8643  0.0742 -1.0294
 6403SOL     OW19652   4.945   4.497   4.236 -0.5782 -0.4336  0.2142
 6403SOL    HW119653   4.879   4.518   4.170 -0.5016  0.2462  0.3519
 6403SOL    HW219654   5.010   4.566   4.228  0.1452 -1.1111  0.0591
 6404SOL     OW19655   0.506   5.338   1.484 -0.1377 -0.4202 -0.5211
 6404SOL    HW119656   0.499   5.336   1.579 -0.0859  0.6733 -0.4835
 6404SOL    HW219657   0.596   5.364   1.467  0.7942 -3.5158 -0.9267
 6405SOL     OW19658   2.794   2.751   0.218  0.6185  0.2567 -0.0579
 6405SOL    HW119659   2.867   2.799   0.255  1.7045 -1.1409 -0.3204
 6405SOL    HW219660   2.781   2.677   0.277 -1.3025  1.0244  0.5771
 6406SOL     OW19661   5.034   1.148   4.086 -0.0877 -0.2474  0.1500
 6406SOL    HW119662   5.066   1.217   4.144 -0.0393 -0.7355  0.7082
 6406SOL    HW219663   5.018   1.193   4.003 -2.7494  1.0368  1.2440
 6407SOL     OW19664   1.094   1.853   1.047 -0.2285  0.0743  0.3295
 6407SOL    HW119665   1.160   1.801   1.093 -1.0932 -0.9571  0.4576
 6407SOL    HW219666   1.079   1.805   0.965 -0.0651  0.8733 -0.1771
 6408SOL     OW19667   2.573   5.408   3.607 -0.2659  0.0077 -0.6072
 6408SOL    HW119668   2.512   5.439   3.674 -1.2663 -0.4389 -1.2761
 6408SOL    HW219669   2.657   5.446   3.631 -0.6087 -0.1004  0.8622
 6409SOL     OW19670   4.354   1.650   2.824  0.0031 -0.1590  0.4381
 6409SOL    HW119671   4.442   1.687   2.835  0.0952 -0.5185  0.9316
 6409SOL    HW219672   4.296   1.715   2.864 -0.1433  0.9251 -1.4195
 6410SOL     OW19673   3.370   2.320   0.924 -0.0552 -0.5053 -0.1849
 6410SOL    HW119674   3.370   2.357   0.835 -1.8567 -0.7910 -0.3470
 6410SOL    HW219675   3.364   2.397   0.981 -1.0563 -0.3858 -0.4201
 6411SOL     OW19676   2.154   4.170   0.427 -0.5321 -0.1657 -0.5607
 6411SOL    HW119677   2.135   4.258   0.458  1.0176  0.5932 -1.6548
 6411SOL    HW219678   2.089   4.115   0.471  0.0534  1.1441  2.1820
 6412SOL     OW19679   5.140   0.779   5.534  0.0769 -0.5130  0.1969
 6412SOL    HW119680   5.052   0.760   5.502  0.3828 -0.3777 -0.7387
 6412SOL    HW219681   5.181   0.830   5.464  0.2808  1.0560  1.3965
 6413SOL     OW19682   1.678   2.093   5.757 -0.0323  0.5934  0.3411
 6413SOL    HW119683   1.699   2.169   5.812 -0.7688  0.5943  0.6294
 6413SOL    HW219684   1.637   2.031   5.817 -1.4199  0.8404 -0.3198
 6414SOL     OW19685   1.687   2.623   4.179 -0.2438  0.0843  0.0818
 6414SOL    HW119686   1.632   2.688   4.135 -0.2294 -0.8425 -1.4017
 6414SOL    HW219687   1.682   2.546   4.122  1.7826 -0.3656  0.4419
 6415SOL     OW19688   5.461   4.924   4.195  0.3359 -0.7200  0.3218
 6415SOL    HW119689   5.488   4.962   4.278  0.5880  1.2373 -0.5988
 6415SOL    HW219690   5.453   4.999   4.136 -0.2038 -2.0129 -1.3216
 6416SOL     OW19691   2.194   5.778   2.795  0.2279  0.0880 -0.0158
 6416SOL    HW119692   2.140   5.848   2.830  0.2429  0.6746 -1.1050
 6416SOL    HW219693   2.134   5.706   2.779  0.3633 -0.5150  1.9801
 6417SOL     OW19694   3.383   2.899   1.094  0.0295  0.2672 -0.0852
 6417SOL    HW119695   3.433   2.889   1.013  1.4817 -1.0432  0.9170
 6417SOL    HW219696   3.300   2.854   1.077  1.0619 -1.6431 -0.2571
 6418SOL     OW19697   1.270   2.359   0.940 -0.4552  0.5052  0.0863
 6418SOL    HW119698   1.304   2.433   0.890  0.2081  0.4313  0.4153
 6418SOL    HW219699   1.186   2.339   0.900 -0.4744  1.2108 -0.2330
 6419SOL     OW19700   2.418   3.322   1.519 -0.4714 -0.1363 -0.2947
 6419SOL    HW119701   2.447   3.231   1.520 -1.3085 -0.4397 -1.5832
 6419SOL    HW219702   2.378   3.334   1.433 -0.1810  1.5193 -0.2379
 6420SOL     OW19703   5.179   1.064   2.693 -0.5761  0.3396  0.2455
 6420SOL    HW119704   5.192   0.977   2.731 -0.0592 -0.1768 -1.0625
 6420SOL    HW219705   5.087   1.065   2.667 -0.3454 -0.1831 -0.6066
 6421SOL     OW19706   4.923   3.754   4.934  0.0044  0.3379 -0.1144
 6421SOL    HW119707   4.923   3.659   4.946  0.3606  0.2938 -0.4353
 6421SOL    HW219708   4.997   3.784   4.987 -0.4970  0.5079  0.4989
 6422SOL     OW19709   4.166   0.035   3.471 -0.3669 -0.1913  0.0672
 6422SOL    HW119710   4.097   0.062   3.411  0.0643 -0.1414 -0.4114
 6422SOL    HW219711   4.192  -0.051   3.440  0.5112  0.2345 -0.3991
 6423SOL     OW19712   6.123   3.223   4.312 -0.2917  0.2569  0.2825
 6423SOL    HW119713   6.156   3.191   4.396  0.3534  0.8286  0.2526
 6423SOL    HW219714   6.094   3.144   4.266  0.7719 -0.2423  0.4315
 6424SOL     OW19715   2.996   3.207   1.912 -0.3053 -0.5301  0.2272
 6424SOL    HW119716   3.052   3.244   1.844  0.4689 -0.7800  0.7131
 6424SOL    HW219717   2.914   3.187   1.867  0.5552 -1.7104 -0.9099
 6425SOL     OW19718   5.884   2.586   5.964  0.0590 -0.9265 -0.3173
 6425SOL    HW119719   5.822   2.659   5.968 -0.9968 -1.8353  0.5839
 6425SOL    HW219720   5.949   2.613   5.899 -1.2351  0.0773 -1.2402
 6426SOL     OW19721   0.830   0.129   3.736  0.3587 -0.0277  0.2449
 6426SOL    HW119722   0.769   0.199   3.762  0.1220 -0.3201  0.4921
 6426SOL    HW219723   0.785   0.084   3.665 -1.2599 -2.3125  2.5352
 6427SOL     OW19724   4.396   0.121   2.818 -0.5940  0.1412  0.3107
 6427SOL    HW119725   4.336   0.049   2.840 -1.1448 -0.3582 -2.4312
 6427SOL    HW219726   4.459   0.081   2.758  1.5429  1.0659  1.8313
 6428SOL     OW19727   3.670   5.186   2.073  0.2807 -0.0469  0.2076
 6428SOL    HW119728   3.651   5.175   2.166 -0.8060 -0.1436 -0.0090
 6428SOL    HW219729   3.584   5.202   2.033  0.8646  1.1410 -0.6199
 6429SOL     OW19730   3.712   0.658   0.406 -0.0532 -0.1498 -0.6178
 6429SOL    HW119731   3.800   0.628   0.430 -0.3333 -0.5232 -0.0105
 6429SOL    HW219732   3.711   0.750   0.431  0.1774 -0.1361 -0.6525
 6430SOL     OW19733   5.280   0.034   3.011  0.4454 -0.2235  0.0180
 6430SOL    HW119734   5.221   0.007   3.081 -0.2103 -0.1985 -0.5198
 6430SOL    HW219735   5.330   0.107   3.048 -0.8938  0.7311 -0.0124
 6431SOL     OW19736   0.591   4.141   3.689 -0.2257 -0.3666  0.3600
 6431SOL    HW119737   0.637   4.075   3.740 -0.6896  0.3767  1.7694
 6431SOL    HW219738   0.519   4.170   3.744 -1.5720 -0.4705 -1.2409
 6432SOL     OW19739   4.884   5.359   3.056  0.4529  0.2976 -0.4741
 6432SOL    HW119740   4.812   5.297   3.044 -0.0181  1.0298 -1.6550
 6432SOL    HW219741   4.842   5.445   3.047  1.2776  0.7610  0.0409
 6433SOL     OW19742   2.268   2.438   3.396 -0.3437  0.0324 -0.1869
 6433SOL    HW119743   2.181   2.400   3.384  0.5574 -1.4421 -2.6997
 6433SOL    HW219744   2.252   2.532   3.401 -2.2006 -0.2940  1.1667
 6434SOL     OW19745   3.718   5.633   5.713  0.2137 -0.9079  0.1070
 6434SOL    HW119746   3.628   5.608   5.697  0.5346 -1.7025 -0.5004
 6434SOL    HW219747   3.724   5.723   5.681 -0.8559 -0.1100  1.9817
 6435SOL     OW19748   5.371   0.328   3.534 -0.0994  0.1711  0.3424
 6435SOL    HW119749   5.352   0.244   3.493 -0.6759  0.8238 -0.7549
 6435SOL    HW219750   5.357   0.312   3.628  0.2031 -1.0539  0.1936
 6436SOL     OW19751   3.177   0.784   1.742  0.1707 -0.5127 -0.1568
 6436SOL    HW119752   3.157   0.875   1.719 -2.0782 -0.6661  0.9430
 6436SOL    HW219753   3.189   0.740   1.658 -0.1942  0.5019 -0.7647
 6437SOL     OW19754   5.519   2.303   2.239 -0.1721  0.6806  0.1785
 6437SOL    HW119755   5.461   2.297   2.315 -0.0952  0.8937  0.2546
 6437SOL    HW219756   5.577   2.377   2.259 -1.5232  2.1275 -1.0224
 6438SOL     OW19757   0.912   0.629   0.354  0.2014  0.0729 -0.0074
 6438SOL    HW119758   0.868   0.636   0.269 -0.3262 -0.7030  0.1918
 6438SOL    HW219759   0.986   0.689   0.347  1.9902 -2.1748 -2.1579
 6439SOL     OW19760   0.605   4.211   0.568  0.2303  0.5331 -0.2145
 6439SOL    HW119761   0.533   4.182   0.624  0.0524 -0.4908 -0.9338
 6439SOL    HW219762   0.589   4.304   0.554 -0.7707  0.3920 -0.0921
 6440SOL     OW19763   0.635   4.093   2.976 -0.3426  0.2188  0.9020
 6440SOL    HW119764   0.559   4.101   2.918  1.1545  0.6060 -1.1431
 6440SOL    HW219765   0.634   4.174   3.028 -0.2982  1.1511 -0.4795
 6441SOL     OW19766   2.044   5.797   5.726 -0.0539 -0.4874 -0.0600
 6441SOL    HW119767   2.118   5.745   5.693 -0.5440 -0.1839 -1.7628
 6441SOL    HW219768   2.030   5.864   5.659 -0.3306  1.0018  1.4176
 6442SOL     OW19769   5.124   5.457   4.096 -0.1565 -0.2367 -0.2035
 6442SOL    HW119770   5.150   5.463   4.188  0.2186 -1.5767 -0.1956
 6442SOL    HW219771   5.204   5.475   4.047  0.1368 -1.4865 -0.2198
 6443SOL     OW19772   1.879   4.061   5.461  0.1163  0.0803  0.2883
 6443SOL    HW119773   1.920   4.015   5.534 -0.0173  0.9605  0.9394
 6443SOL    HW219774   1.909   4.015   5.383 -0.9197 -1.8266  0.9530
 6444SOL     OW19775   2.610   1.283   2.636  0.1049  0.0172  0.2954
 6444SOL    HW119776   2.522   1.269   2.601 -0.0250  2.2503 -0.4591
 6444SOL    HW219777   2.626   1.377   2.623  2.8742 -0.4322 -0.2439
 6445SOL     OW19778   3.773   3.850   1.286 -0.5954 -0.3026 -0.5078
 6445SOL    HW119779   3.850   3.903   1.262  0.0403  0.4318  2.6798
 6445SOL    HW219780   3.698   3.905   1.262 -0.0320  0.3912 -0.7372
 6446SOL     OW19781   0.659   0.564   6.025 -0.4718  0.1770 -0.6120
 6446SOL    HW119782   0.661   0.659   6.033 -0.2862  0.0036  3.2010
 6446SOL    HW219783   0.576   0.537   6.064 -0.1459 -1.2525 -0.8240
 6447SOL     OW19784   3.760   2.855   5.326  0.2289  0.0043 -0.3979
 6447SOL    HW119785   3.711   2.927   5.366  1.5836 -0.7708  3.0025
 6447SOL    HW219786   3.842   2.895   5.297 -0.5931  0.4918 -2.1788
 6448SOL     OW19787   3.260   1.238   2.988 -0.0505  0.1504  0.0253
 6448SOL    HW119788   3.311   1.193   3.054 -0.8653 -0.4612  0.2512
 6448SOL    HW219789   3.169   1.224   3.014 -0.3422  1.9346  0.1170
 6449SOL     OW19790   5.768   2.822   0.704  0.0262  0.3184 -0.2534
 6449SOL    HW119791   5.761   2.916   0.716 -0.9922  0.2844 -0.4674
 6449SOL    HW219792   5.766   2.786   0.793 -0.6165  0.4545 -0.2027
 6450SOL     OW19793   1.611   1.017   4.599  0.0031  0.4002  0.2954
 6450SOL    HW119794   1.530   1.041   4.644  0.3604 -0.6930  1.6060
 6450SOL    HW219795   1.586   0.945   4.540 -0.0781  0.3957  0.3354
 6451SOL     OW19796   2.446   3.852   3.075 -0.0975 -0.3347  0.4260
 6451SOL    HW119797   2.416   3.763   3.057 -1.7996  0.1949  0.5352
 6451SOL    HW219798   2.416   3.870   3.164  2.5217 -0.5433  1.4524
 6452SOL     OW19799   5.011   3.403   1.890  0.3161 -0.0419 -0.2389
 6452SOL    HW119800   4.953   3.466   1.932  0.9027  0.2147  0.2086
 6452SOL    HW219801   5.050   3.450   1.817  1.2352  0.3371  0.4710
 6453SOL     OW19802   2.700   0.190   4.154 -0.5490 -0.0089 -0.3958
 6453SOL    HW119803   2.613   0.225   4.133 -1.3280 -0.2456  2.1933
 6453SOL    HW219804   2.737   0.253   4.217  0.4926 -0.7664 -0.2289
 6454SOL     OW19805   5.091   4.111   0.263  0.1472 -0.3960 -0.2167
 6454SOL    HW119806   5.118   4.203   0.267 -0.1472 -0.3171 -0.0555
 6454SOL    HW219807   4.999   4.112   0.290  0.7701 -1.0192  2.1971
 6455SOL     OW19808   3.819   5.071   2.641 -0.2957  0.1709  0.0007
 6455SOL    HW119809   3.758   5.071   2.567 -0.0268  0.5697 -0.2266
 6455SOL    HW219810   3.850   4.981   2.647 -0.8550 -0.0214  0.0786
 6456SOL     OW19811   3.975   6.066   5.034 -0.0867  0.1176 -0.0134
 6456SOL    HW119812   4.064   6.032   5.041  0.5837  1.5987 -0.7739
 6456SOL    HW219813   3.947   6.043   4.945 -0.5042 -0.3927  0.2414
 6457SOL     OW19814   4.916   0.029   2.586  0.1139 -0.3841 -0.3852
 6457SOL    HW119815   4.987   0.009   2.647  0.3146 -0.8775 -0.7730
 6457SOL    HW219816   4.955   0.088   2.523 -0.2364  0.5474  0.2519
 6458SOL     OW19817   2.994   5.508   0.990  0.1124  0.0159 -0.2549
 6458SOL    HW119818   3.059   5.541   0.928  0.1006 -1.7684 -1.2793
 6458SOL    HW219819   2.943   5.445   0.940 -1.6349  0.4694  0.8729
 6459SOL     OW19820   1.806   4.604   0.473  0.2886 -0.2184  0.7430
 6459SOL    HW119821   1.865   4.604   0.398  0.1933  2.0754  0.6145
 6459SOL    HW219822   1.793   4.511   0.493  2.3067 -0.8321 -0.4886
 6460SOL     OW19823   1.530   4.906   5.282 -0.0076 -0.2538  0.2504
 6460SOL    HW119824   1.532   5.002   5.283 -0.0932 -0.2268 -0.7906
 6460SOL    HW219825   1.476   4.882   5.357  1.5726  0.4366  1.6913
 6461SOL     OW19826   5.952   0.624   0.126 -0.5410  0.0547 -0.5137
 6461SOL    HW119827   5.867   0.597   0.162 -0.8120 -0.2324 -1.3314
 6461SOL    HW219828   5.985   0.546   0.082  0.6125 -0.1172  0.6021
 6462SOL     OW19829   3.642   4.149   4.888 -0.0125 -0.2664  0.0918
 6462SOL    HW119830   3.701   4.150   4.963  0.7368 -0.7250 -0.4657
 6462SOL    HW219831   3.586   4.073   4.902  1.2369 -1.3704 -0.6007
 6463SOL     OW19832   5.823   4.934   4.957  0.3599 -0.6572  0.0813
 6463SOL    HW119833   5.756   4.939   5.026 -1.3921 -2.0517 -1.4068
 6463SOL    HW219834   5.797   4.999   4.892  1.9431  0.5771  0.6091
 6464SOL     OW19835   6.128   2.491   1.077 -0.2925 -0.2108  0.9651
 6464SOL    HW119836   6.213   2.507   1.037 -0.7618 -0.4150 -0.1315
 6464SOL    HW219837   6.141   2.412   1.130  0.3656  0.1457  1.3495
 6465SOL     OW19838   0.772   6.105   5.926 -0.0468  0.2759 -0.3019
 6465SOL    HW119839   0.747   6.093   6.018  0.1552  0.5397 -0.2142
 6465SOL    HW219840   0.859   6.067   5.920  0.0164  0.4277 -0.3425
 6466SOL     OW19841   3.246   2.013   5.001  0.2413 -0.2295 -0.0475
 6466SOL    HW119842   3.324   2.013   4.946 -1.1031  0.5326 -2.0431
 6466SOL    HW219843   3.205   2.098   4.986 -0.4858 -0.2036  1.7515
 6467SOL     OW19844   4.481   2.931   1.563 -0.5773 -0.4465  0.6288
 6467SOL    HW119845   4.448   2.944   1.475 -0.6905 -0.7104  0.6307
 6467SOL    HW219846   4.574   2.952   1.558 -0.9718  1.5687  0.9087
 6468SOL     OW19847   1.800   1.868   1.402 -0.4246 -0.2647  0.3216
 6468SOL    HW119848   1.788   1.952   1.357 -0.4650 -0.7127 -0.5368
 6468SOL    HW219849   1.875   1.882   1.458 -0.9462  0.6054  0.8368
 6469SOL     OW19850   4.206   3.522   2.094  1.1495 -0.1602  0.2098
 6469SOL    HW119851   4.182   3.432   2.118  1.2017 -0.1965  0.1275
 6469SOL    HW219852   4.156   3.540   2.015  1.6904 -0.3797 -0.1919
 6470SOL     OW19853   5.342   5.385   0.386  0.1886 -0.2301  0.1569
 6470SOL    HW119854   5.379   5.312   0.435  0.2993  1.0447  2.0970
 6470SOL    HW219855   5.367   5.463   0.437  0.4723  1.2244 -2.0464
 6471SOL     OW19856   2.233   4.297   5.901  0.6762 -0.0130 -0.0516
 6471SOL    HW119857   2.242   4.339   5.987 -2.1997 -1.3858  1.0475
 6471SOL    HW219858   2.255   4.366   5.839  0.1661  1.8780  1.7447
 6472SOL     OW19859   1.730   1.838   1.843 -0.0333  0.4123  0.5608
 6472SOL    HW119860   1.670   1.873   1.777 -0.7454  0.7510  1.3734
 6472SOL    HW219861   1.718   1.743   1.839 -0.7857  0.4889  0.8622
 6473SOL     OW19862   1.923   3.761   5.509  0.0470  0.0978 -0.0099
 6473SOL    HW119863   1.959   3.811   5.582  2.1193 -0.0300 -0.8771
 6473SOL    HW219864   1.947   3.670   5.528  1.0263  0.1185 -1.0378
 6474SOL     OW19865   5.781   2.379   3.218 -0.6364 -0.1162 -0.0243
 6474SOL    HW119866   5.699   2.421   3.244  0.4334  0.9884  1.7056
 6474SOL    HW219867   5.842   2.451   3.204  0.4847 -0.9845  0.2361
 6475SOL     OW19868   3.551   4.713   2.398  0.6962 -0.4900 -0.7387
 6475SOL    HW119869   3.627   4.723   2.341 -0.3263 -3.2933 -2.7770
 6475SOL    HW219870   3.547   4.620   2.418 -1.6606 -0.2907  0.0884
 6476SOL     OW19871   0.225   3.746   2.629 -0.8080  0.1876  0.3822
 6476SOL    HW119872   0.188   3.780   2.710 -0.6203  0.5606  0.3143
 6476SOL    HW219873   0.151   3.739   2.569 -1.1679 -1.2452  0.9576
 6477SOL     OW19874   5.404   5.607   4.567 -0.0067 -0.3048  0.0487
 6477SOL    HW119875   5.383   5.695   4.537 -1.3875 -0.9582 -1.0486
 6477SOL    HW219876   5.332   5.584   4.626  0.6639 -0.4871  0.8127
 6478SOL     OW19877   5.828   5.817   3.074 -0.0835  0.1982  0.0686
 6478SOL    HW119878   5.881   5.895   3.087  0.6819 -0.1585 -0.7862
 6478SOL    HW219879   5.753   5.846   3.021  0.6298  0.2169 -0.9652
 6479SOL     OW19880   4.147   2.344   0.900  0.4062 -0.2559  0.3852
 6479SOL    HW119881   4.232   2.378   0.926 -0.0329  1.7564 -0.5932
 6479SOL    HW219882   4.084   2.395   0.950 -0.2951  0.6044 -1.2927
 6480SOL     OW19883   1.010   2.709   0.338 -0.3829 -0.3823 -0.1044
 6480SOL    HW119884   0.941   2.760   0.296  0.8748  0.8724 -0.7141
 6480SOL    HW219885   0.968   2.672   0.416 -1.8312  0.0238 -0.6507
 6481SOL     OW19886   2.929   1.584   4.209 -0.2083  0.3907 -0.4203
 6481SOL    HW119887   2.953   1.494   4.230  1.7578  0.4871 -1.8963
 6481SOL    HW219888   2.845   1.598   4.252 -1.1198 -2.4919 -1.0493
 6482SOL     OW19889   5.155   2.908   1.919 -0.0010 -0.5639 -0.8613
 6482SOL    HW119890   5.107   2.886   1.839 -1.6968 -1.2654  0.2773
 6482SOL    HW219891   5.094   2.962   1.969  0.2751 -1.6797  0.7582
 6483SOL     OW19892   1.025   1.394   1.408 -0.1140 -0.2840 -0.1642
 6483SOL    HW119893   1.063   1.468   1.361 -0.1148  2.1356  3.2555
 6483SOL    HW219894   0.932   1.394   1.383  0.1360  0.0581 -1.1246
 6484SOL     OW19895   3.358   4.281   1.207  0.3514 -0.3746 -0.0980
 6484SOL    HW119896   3.400   4.365   1.188 -1.6554  0.8189  0.4494
 6484SOL    HW219897   3.403   4.219   1.150  3.6168  0.5312  1.2521
 6485SOL     OW19898   3.395   3.529   5.520 -0.6751  0.5809  0.3917
 6485SOL    HW119899   3.353   3.510   5.604 -0.2053  1.8914  0.9636
 6485SOL    HW219900   3.332   3.501   5.454 -1.5082  0.4944  1.2002
 6486SOL     OW19901   2.903   5.821   5.979  0.9150  0.1473  0.0857
 6486SOL    HW119902   2.963   5.872   6.033  1.7347 -1.1915  0.4689
 6486SOL    HW219903   2.959   5.775   5.916  0.2208 -0.4970 -0.0808
 6487SOL     OW19904   3.248   2.722   3.026  0.3340  0.5480  0.2048
 6487SOL    HW119905   3.320   2.755   2.973 -0.6611  0.8552 -1.0052
 6487SOL    HW219906   3.256   2.626   3.021  1.6091  0.5534  1.4658
 6488SOL     OW19907   2.180   5.811   5.454  0.7896 -0.4791 -0.6021
 6488SOL    HW119908   2.196   5.744   5.387 -2.5753 -1.0432 -1.0045
 6488SOL    HW219909   2.153   5.888   5.405 -2.1366 -1.0223 -0.0473
 6489SOL     OW19910   1.129   4.464   3.815  0.3748 -0.4567  0.1006
 6489SOL    HW119911   1.151   4.541   3.867 -0.3688 -0.7360  0.8629
 6489SOL    HW219912   1.074   4.411   3.874 -1.4937 -0.2294 -1.3542
 6490SOL     OW19913   4.663   6.079   3.432  0.1993  0.6714 -0.4782
 6490SOL    HW119914   4.650   6.010   3.497  0.5383  0.3138 -0.7891
 6490SOL    HW219915   4.585   6.134   3.440 -0.3807 -0.1048 -0.6799
 6491SOL     OW19916   1.747   3.677   1.321  0.0855 -0.5136  0.2575
 6491SOL    HW119917   1.696   3.755   1.299 -0.9866 -1.8996 -2.5557
 6491SOL    HW219918   1.825   3.712   1.365 -1.2595  1.9603  0.8847
 6492SOL     OW19919   3.322   4.263   5.389  0.1606 -0.2003  0.1337
 6492SOL    HW119920   3.318   4.253   5.294  2.0597  2.1114 -0.2990
 6492SOL    HW219921   3.415   4.260   5.409  0.0630  2.4461  1.4353
 6493SOL     OW19922   2.109   1.748   4.415  0.2003  0.5739 -0.3624
 6493SOL    HW119923   2.122   1.786   4.502  1.0330  0.0027 -0.2206
 6493SOL    HW219924   2.115   1.653   4.430 -1.3759  0.3809 -0.7723
 6494SOL     OW19925   1.917   3.991   0.358  0.9880  0.1409 -0.5853
 6494SOL    HW119926   2.004   3.970   0.325  1.3321 -0.5665  0.6662
 6494SOL    HW219927   1.897   3.918   0.417  0.4140  1.2936  0.6991
 6495SOL     OW19928   4.852   5.295   2.035 -0.2484 -0.0260  0.1578
 6495SOL    HW119929   4.878   5.212   2.076 -1.5780  0.0538  1.2051
 6495SOL    HW219930   4.855   5.277   1.941 -1.1297 -1.4723  0.3763
 6496SOL     OW19931   5.717   2.063   2.888 -0.5975  0.4333 -0.2208
 6496SOL    HW119932   5.731   2.150   2.925 -2.1983 -0.3708  2.6486
 6496SOL    HW219933   5.623   2.048   2.897 -0.4507 -1.3696 -1.1882
 6497SOL     OW19934   2.720   5.707   4.091 -0.3699  0.8996  0.3652
 6497SOL    HW119935   2.787   5.652   4.131 -1.9029  0.2839  2.2474
 6497SOL    HW219936   2.769   5.776   4.045  1.5296  0.0248  0.9849
 6498SOL     OW19937   1.675   0.786   0.489  0.1154  0.0377 -0.2323
 6498SOL    HW119938   1.695   0.816   0.577  0.3633  1.1109 -0.6410
 6498SOL    HW219939   1.710   0.854   0.431 -1.4367  0.1625 -1.0935
 6499SOL     OW19940   4.700   1.330   1.760  0.5229 -0.2606 -1.0179
 6499SOL    HW119941   4.764   1.397   1.735  1.8564 -1.1204 -0.0551
 6499SOL    HW219942   4.643   1.321   1.684  0.8012  1.3856 -1.4545
 6500SOL     OW19943   5.640   4.049   1.973 -0.1674 -0.1193  0.4755
 6500SOL    HW119944   5.622   4.137   1.941  0.8229 -0.0927 -0.0410
 6500SOL    HW219945   5.682   4.062   2.058 -0.2767 -0.0999  0.5261
 6501SOL     OW19946   0.356   3.808   2.895  0.2516 -0.6212  0.3416
 6501SOL    HW119947   0.383   3.899   2.889  0.2043 -0.6765 -1.2097
 6501SOL    HW219948   0.422   3.760   2.844 -0.1942 -1.3336  0.4170
 6502SOL     OW19949   0.152   0.654   4.614 -0.0614  0.0829 -0.6795
 6502SOL    HW119950   0.234   0.699   4.596 -0.6217  1.4161 -0.0696
 6502SOL    HW219951   0.113   0.703   4.687 -1.2808 -0.6660 -0.7938
 6503SOL     OW19952   2.265   2.484   1.108 -0.1200 -0.4454  0.7510
 6503SOL    HW119953   2.308   2.558   1.065  1.3239 -0.7069  1.6743
 6503SOL    HW219954   2.173   2.494   1.085  0.1912  1.0310 -0.0256
 6504SOL     OW19955   5.932   3.772   1.236 -0.5104  0.6350  0.0592
 6504SOL    HW119956   5.869   3.786   1.307  0.1172  0.5116  0.6541
 6504SOL    HW219957   5.906   3.689   1.197 -1.2847  1.0431 -0.3174
 6505SOL     OW19958   3.257   2.151   1.225 -0.9144  0.5694  0.1271
 6505SOL    HW119959   3.342   2.124   1.260  0.7217  2.5983 -1.9832
 6505SOL    HW219960   3.210   2.069   1.212  1.1159 -0.7042  0.3582
 6506SOL     OW19961   2.057   1.525   1.709 -1.1313 -0.0924  0.1101
 6506SOL    HW119962   2.085   1.545   1.620  1.0498 -0.9880  0.5069
 6506SOL    HW219963   2.019   1.606   1.742 -2.7366  0.0243 -1.8526
 6507SOL     OW19964   4.459   3.024   4.890  0.1285 -0.0519 -0.1635
 6507SOL    HW119965   4.372   3.037   4.853  0.2793  1.5347 -0.0106
 6507SOL    HW219966   4.443   3.005   4.982 -0.0668 -0.2892 -0.2433
 6508SOL     OW19967   3.085   3.731   1.374  0.2034 -0.0607  0.1434
 6508SOL    HW119968   3.061   3.705   1.463 -0.7169 -0.0896 -0.1026
 6508SOL    HW219969   3.179   3.712   1.368  0.5535  1.0640  1.4958
 6509SOL     OW19970   0.663   0.339   1.608 -0.6321  0.5959 -0.5090
 6509SOL    HW119971   0.619   0.395   1.543 -1.5949  1.3590  0.7437
 6509SOL    HW219972   0.697   0.400   1.673  2.2342  0.0132 -1.3159
 6510SOL     OW19973   1.105   5.178   0.320 -0.0137  0.0277 -0.5300
 6510SOL    HW119974   1.162   5.104   0.342 -1.8401 -0.9328  1.3333
 6510SOL    HW219975   1.043   5.143   0.256 -0.0452  0.3406 -0.6731
 6511SOL     OW19976   1.208   0.797   5.645 -0.1627 -1.1146  0.1640
 6511SOL    HW119977   1.230   0.825   5.557 -2.5805 -3.0544 -1.2031
 6511SOL    HW219978   1.225   0.703   5.646 -2.4567 -1.6085  0.8570
 6512SOL     OW19979   5.815   0.506   1.325  0.6420 -0.2633 -0.2897
 6512SOL    HW119980   5.754   0.572   1.357 -1.0999 -2.0651  0.2892
 6512SOL    HW219981   5.849   0.464   1.403 -0.2819 -1.7665 -0.6624
 6513SOL     OW19982   4.177   2.837   4.769 -0.0283 -0.4591  0.6509
 6513SOL    HW119983   4.228   2.808   4.693 -1.3811  0.2591 -0.5781
 6513SOL    HW219984   4.195   2.771   4.836  0.7682 -1.4261 -0.4659
 6514SOL     OW19985   1.266   0.659   5.074  0.1899 -0.1548  0.3989
 6514SOL    HW119986   1.327   0.713   5.024  0.4733 -0.0010  0.9024
 6514SOL    HW219987   1.186   0.659   5.022  0.7035 -0.5872 -0.4006
 6515SOL     OW19988   5.818   1.587   5.729 -0.2065  0.3948 -0.0278
 6515SOL    HW119989   5.854   1.676   5.721  0.1680  0.1731 -0.8936
 6515SOL    HW219990   5.862   1.537   5.661 -1.3719 -0.1462 -0.4152
 6516SOL     OW19991   4.800   2.152   0.931 -0.0116 -0.4150 -0.1407
 6516SOL    HW119992   4.890   2.181   0.942 -0.7012  0.6221  4.5207
 6516SOL    HW219993   4.796   2.066   0.973 -1.1851 -0.4505 -0.2756
 6517SOL     OW19994   3.453   5.066   0.469 -0.1724  0.4845  0.3604
 6517SOL    HW119995   3.399   5.065   0.548  2.1763  1.1012  2.0581
 6517SOL    HW219996   3.403   5.118   0.406 -1.8559  0.4225  1.5919
 6518SOL     OW19997   2.401   4.351   0.686  0.0105  0.1833 -0.1566
 6518SOL    HW119998   2.482   4.357   0.635 -0.4308  1.9566 -0.7341
 6518SOL    HW219999   2.418   4.283   0.751  2.4190  1.3464  0.5471
 6519SOL     OW20000   1.737   1.674   4.457 -0.0698 -0.0587  0.2276
 6519SOL    HW120001   1.797   1.608   4.490 -1.5968 -1.9716 -0.6459
 6519SOL    HW220002   1.789   1.724   4.393  0.3319 -2.4374 -1.4128
 6520SOL     OW20003   5.029   3.872   0.396 -0.3438  0.1917 -0.2141
 6520SOL    HW120004   5.074   3.828   0.467  0.2895 -1.8371 -1.7648
 6520SOL    HW220005   5.073   3.957   0.388 -0.2027  0.3167  1.5250
 6521SOL     OW20006   1.461   0.882   2.961 -0.7872 -0.5527 -0.2213
 6521SOL    HW120007   1.435   0.832   3.039 -0.1956 -0.2336  0.1921
 6521SOL    HW220008   1.388   0.943   2.947 -0.7396 -0.3673  0.3003
 6522SOL     OW20009   4.061   0.081   2.672  0.3506  0.1418 -0.9371
 6522SOL    HW120010   4.011   0.064   2.751  0.5418  1.7942 -0.4213
 6522SOL    HW220011   4.147   0.044   2.689 -0.1765 -1.2281 -1.1670
 6523SOL     OW20012   2.682   5.293   1.226 -0.5210  0.3627  0.5800
 6523SOL    HW120013   2.690   5.384   1.255 -0.5083  0.3501  0.6164
 6523SOL    HW220014   2.731   5.243   1.290 -0.8139  0.2940  0.7544
 6524SOL     OW20015   2.666   3.600   5.890 -0.7803  0.0494 -0.6680
 6524SOL    HW120016   2.570   3.608   5.895 -0.6512  1.8008 -0.6118
 6524SOL    HW220017   2.680   3.507   5.871 -2.4902 -0.2509 -0.6854
 6525SOL     OW20018   4.075   4.064   2.323  0.1966 -0.2003  0.1177
 6525SOL    HW120019   4.009   4.098   2.383  0.0361  2.2923 -1.3526
 6525SOL    HW220020   4.033   4.065   2.237  1.1333 -1.6158 -0.4024
 6526SOL     OW20021   2.111   5.027   3.652  0.6321 -0.6551  0.0646
 6526SOL    HW120022   2.076   5.013   3.564  2.7505  1.9144 -1.3143
 6526SOL    HW220023   2.095   5.120   3.669  2.8123 -0.4157  1.1451
 6527SOL     OW20024   0.954   1.684   3.540 -0.5268  0.5353 -0.5058
 6527SOL    HW120025   0.912   1.600   3.559 -0.6962  0.6176 -0.5110
 6527SOL    HW220026   0.975   1.680   3.447 -2.6093  1.3892 -1.0676
 6528SOL     OW20027   2.613   0.834   1.267  0.2899  0.2164 -0.9754
 6528SOL    HW120028   2.578   0.920   1.292 -0.3836  0.1417 -1.6198
 6528SOL    HW220029   2.616   0.837   1.172  1.8514  0.1233 -0.9517
 6529SOL     OW20030   5.485   1.436   3.801 -0.2287 -0.4452 -0.2885
 6529SOL    HW120031   5.421   1.366   3.794  0.4746 -1.2144  0.7103
 6529SOL    HW220032   5.567   1.392   3.824  0.5676  0.5618 -1.0887
 6530SOL     OW20033   5.258   0.738   1.143  0.3985 -0.2038  0.1920
 6530SOL    HW120034   5.316   0.709   1.213 -0.1950  0.8341  1.1517
 6530SOL    HW220035   5.295   0.701   1.063  1.6782 -0.5537  0.9344
 6531SOL     OW20036   1.316   5.398   1.789  0.0378  0.5558  0.2800
 6531SOL    HW120037   1.302   5.303   1.785 -0.9231  0.7223 -1.1342
 6531SOL    HW220038   1.262   5.428   1.861 -0.3764  0.1386  0.1470
 6532SOL     OW20039   3.354   0.159   3.577  0.1778  0.0104 -0.6280
 6532SOL    HW120040   3.398   0.243   3.568 -1.1890  0.8798  0.4469
 6532SOL    HW220041   3.386   0.125   3.661  0.9845 -0.7361 -1.2136
 6533SOL     OW20042   0.866   5.528   1.460  0.0188  0.3788 -0.2545
 6533SOL    HW120043   0.822   5.466   1.518 -1.8129  2.9808  1.3482
 6533SOL    HW220044   0.946   5.551   1.506 -0.3534  0.7814  0.2059
 6534SOL     OW20045   2.080   5.823   5.151 -0.0733  0.1004 -0.1385
 6534SOL    HW120046   2.169   5.818   5.117  0.7025 -0.5650  1.8370
 6534SOL    HW220047   2.075   5.909   5.193  0.4283 -0.6944  1.6578
 6535SOL     OW20048   5.633   5.803   0.003 -0.8327  0.3659 -0.0918
 6535SOL    HW120049   5.590   5.741   0.061  0.9152 -0.3449  0.5119
 6535SOL    HW220050   5.619   5.767  -0.085 -1.6545  0.2821  0.0710
 6536SOL     OW20051   4.651   0.900   5.634 -0.0244  0.8590  0.0008
 6536SOL    HW120052   4.592   0.970   5.663  0.7425  2.0951 -1.3173
 6536SOL    HW220053   4.735   0.922   5.675 -0.0756 -0.0268  0.6055
 6537SOL     OW20054   5.699   0.912   1.660 -0.4142 -0.2663  0.4779
 6537SOL    HW120055   5.710   0.917   1.755  0.4297 -1.2192  0.4441
 6537SOL    HW220056   5.674   1.000   1.634  2.4307  0.8681  1.2161
 6538SOL     OW20057   0.214   4.237   5.013 -0.2146 -0.4934 -0.4134
 6538SOL    HW120058   0.167   4.263   5.092 -0.1682 -1.6749  0.0135
 6538SOL    HW220059   0.305   4.227   5.041 -0.2012 -0.9425 -0.6083
 6539SOL     OW20060   5.024   0.835   3.584  0.1517  0.2579 -1.2555
 6539SOL    HW120061   4.943   0.884   3.598  0.4439  0.3197  0.4392
 6539SOL    HW220062   5.008   0.749   3.622  0.7631  0.1584 -1.2094
 6540SOL     OW20063   4.377   2.564   3.145  0.3354  0.2186 -0.2929
 6540SOL    HW120064   4.435   2.515   3.087 -1.0160 -0.0315 -1.4841
 6540SOL    HW220065   4.370   2.510   3.224  0.9688 -0.1896 -0.5139
 6541SOL     OW20066   2.129   4.440   3.049  0.5993  0.0365 -0.3246
 6541SOL    HW120067   2.093   4.466   3.134  0.7410 -1.0864  0.0923
 6541SOL    HW220068   2.053   4.430   2.992  0.4244 -0.2225 -0.0463
 6542SOL     OW20069   0.133   3.409   1.584  0.0086  0.2279  0.3774
 6542SOL    HW120070   0.202   3.378   1.525 -1.4306 -0.8736 -0.8201
 6542SOL    HW220071   0.090   3.329   1.613  0.5740  0.7560  2.8620
 6543SOL     OW20072   1.324   5.557   4.436 -0.3702 -0.3587  0.0230
 6543SOL    HW120073   1.275   5.475   4.428 -0.5011 -0.2722 -0.0751
 6543SOL    HW220074   1.287   5.613   4.368 -1.0673  0.1730  0.8157
 6544SOL     OW20075   5.376   5.248   0.118 -0.5584  0.1566  0.1261
 6544SOL    HW120076   5.282   5.234   0.111 -0.4377 -0.7797  0.1688
 6544SOL    HW220077   5.388   5.295   0.200 -1.0080  0.5332 -0.0209
 6545SOL     OW20078   4.317   3.654   4.694  0.1544  0.4729  0.3913
 6545SOL    HW120079   4.339   3.685   4.606  1.6845  0.1919  0.6508
 6545SOL    HW220080   4.370   3.575   4.706 -1.8628 -0.9023  0.6758
 6546SOL     OW20081   5.203   5.523   4.966 -0.4915 -0.0309 -0.1645
 6546SOL    HW120082   5.135   5.498   5.028 -1.1480  1.3763 -0.2600
 6546SOL    HW220083   5.232   5.609   4.997  0.8761 -0.3711 -0.4391
 6547SOL     OW20084   1.708   3.336   5.838  0.2000 -0.1068 -0.4259
 6547SOL    HW120085   1.633   3.380   5.877  0.8708  0.1888  0.5496
 6547SOL    HW220086   1.692   3.342   5.743 -1.7353 -1.3335 -0.2482
 6548SOL     OW20087   3.192   1.404   1.350  0.0354 -0.1283 -0.6916
 6548SOL    HW120088   3.263   1.465   1.371 -0.4017 -0.4068  1.9283
 6548SOL    HW220089   3.215   1.323   1.395 -0.7978 -0.9826 -1.7583
 6549SOL     OW20090   5.533   1.224   5.756  0.1603  0.3509  0.1574
 6549SOL    HW120091   5.462   1.229   5.820  1.4350  0.6828  1.5809
 6549SOL    HW220092   5.564   1.133   5.762  0.1618  0.3308 -0.1321
 6550SOL     OW20093   3.175   1.063   0.038  0.0872 -0.2509  0.1021
 6550SOL    HW120094   3.121   1.139   0.061  0.2410 -0.2638  0.5126
 6550SOL    HW220095   3.152   1.044  -0.053 -0.0312  0.2201  0.0315
 6551SOL     OW20096   5.595   4.415   2.272 -0.1403  0.3569 -0.1467
 6551SOL    HW120097   5.534   4.414   2.346  1.1408  2.8874  1.0753
 6551SOL    HW220098   5.541   4.433   2.196 -1.1088  1.0392  0.6778
 6552SOL     OW20099   1.470   6.002   4.686 -0.0442 -0.1291 -0.2774
 6552SOL    HW120100   1.531   6.057   4.637 -0.4925 -0.4496 -1.2282
 6552SOL    HW220101   1.475   5.916   4.643  0.6741 -0.8661  1.2081
 6553SOL     OW20102   1.365   5.409   0.056  0.4576  0.5062 -0.1609
 6553SOL    HW120103   1.294   5.348   0.035  0.7396 -0.2650  1.0153
 6553SOL    HW220104   1.327   5.466   0.123  1.3159 -0.7942  1.5229
 6554SOL     OW20105   3.408   0.401   1.670 -0.4225  0.1377 -0.5014
 6554SOL    HW120106   3.490   0.449   1.679 -1.5168  1.9181  0.3571
 6554SOL    HW220107   3.405   0.345   1.748 -0.4899  0.8017 -0.0222
 6555SOL     OW20108   0.917   5.500   1.024 -0.1373  0.0760  0.2411
 6555SOL    HW120109   0.920   5.423   0.966 -1.2071  0.6972 -0.6769
 6555SOL    HW220110   0.836   5.544   1.001 -0.4192  0.5461  2.0001
 6556SOL     OW20111   0.374   2.804   2.834 -0.7704 -0.2189 -0.2119
 6556SOL    HW120112   0.442   2.789   2.768 -0.8989  1.9252 -0.9196
 6556SOL    HW220113   0.405   2.757   2.911 -0.0070 -1.7764 -1.4098
 6557SOL     OW20114   0.448   1.930   0.839 -0.5419  0.4996  0.8236
 6557SOL    HW120115   0.418   1.861   0.779 -0.3884 -1.5366  2.9754
 6557SOL    HW220116   0.380   1.998   0.832  0.4493  1.3769 -3.0960
 6558SOL     OW20117   0.864   3.409   4.186  0.3457 -0.0791  0.5030
 6558SOL    HW120118   0.889   3.328   4.143 -0.7515 -0.1326 -0.0731
 6558SOL    HW220119   0.826   3.463   4.116  3.0583  1.8761  0.3550
 6559SOL     OW20120   5.824   3.055   5.456 -0.1987 -0.2838 -0.0374
 6559SOL    HW120121   5.863   3.141   5.472  1.5296 -1.2622  1.4895
 6559SOL    HW220122   5.731   3.072   5.447  0.1575  1.7993 -0.3114
 6560SOL     OW20123   5.072   3.361   3.207 -0.2678 -0.1043 -0.7003
 6560SOL    HW120124   5.149   3.316   3.171  1.1702  0.1767  1.7588
 6560SOL    HW220125   5.078   3.449   3.171  2.5546  0.9274  1.8247
 6561SOL     OW20126   4.062   0.771   3.305  0.5234 -0.4528 -0.0758
 6561SOL    HW120127   4.088   0.700   3.247 -1.1448 -2.0890  1.0679
 6561SOL    HW220128   4.101   0.749   3.389 -0.0057 -0.0132  0.2894
 6562SOL     OW20129   0.020   2.524   5.011 -0.1835 -0.2926 -1.0199
 6562SOL    HW120130  -0.070   2.549   5.030 -0.2779 -0.8597 -0.7008
 6562SOL    HW220131   0.036   2.557   4.922 -0.0154  1.6496 -0.3263
 6563SOL     OW20132   3.860   5.437   1.307 -0.6858  0.0612  0.5153
 6563SOL    HW120133   3.834   5.357   1.262 -1.9486  0.3781  0.6378
 6563SOL    HW220134   3.858   5.414   1.400  0.3195 -0.1388  0.4977
 6564SOL     OW20135   4.263   1.626   1.137 -0.4845 -0.0919 -0.1946
 6564SOL    HW120136   4.195   1.647   1.201 -1.0519 -0.4474 -0.6684
 6564SOL    HW220137   4.298   1.542   1.166  0.5706  0.6311  0.7057
 6565SOL     OW20138   5.307   4.318   5.135 -0.0097 -0.0776  0.2067
 6565SOL    HW120139   5.289   4.398   5.184  1.9717  0.2977  0.4244
 6565SOL    HW220140   5.399   4.326   5.110 -0.4156 -1.1673 -1.9054
 6566SOL     OW20141   3.426   3.764   1.678 -0.1160  0.6783 -0.0343
 6566SOL    HW120142   3.404   3.714   1.600 -0.2856  0.2780  0.2650
 6566SOL    HW220143   3.426   3.855   1.649  2.4800  0.4035 -1.1516
 6567SOL     OW20144   5.176   6.107   4.550 -0.2722 -0.6588  0.3313
 6567SOL    HW120145   5.175   6.020   4.591 -3.1541 -0.8335  0.0509
 6567SOL    HW220146   5.101   6.107   4.491  0.7803  1.3942 -1.1313
 6568SOL     OW20147   3.139   2.477   2.304  0.1512  0.4671  0.2025
 6568SOL    HW120148   3.078   2.519   2.364  0.2299  2.3053 -0.9346
 6568SOL    HW220149   3.105   2.498   2.217  0.6834 -1.1517 -0.4400
 6569SOL     OW20150   5.413   0.129   4.994  0.1160  0.5076  0.3311
 6569SOL    HW120151   5.497   0.168   4.972  0.5941 -0.7388 -0.1278
 6569SOL    HW220152   5.400   0.151   5.087  0.0475  2.2651 -0.0564
 6570SOL     OW20153   0.319   4.754   5.205  0.1283 -0.5480 -0.0122
 6570SOL    HW120154   0.325   4.833   5.152 -0.6876 -0.6934 -0.3392
 6570SOL    HW220155   0.378   4.769   5.278  2.1448 -0.8081 -1.5225
 6571SOL     OW20156   1.377   1.750   2.449  0.2744  0.5861  0.8634
 6571SOL    HW120157   1.428   1.724   2.525  1.0799 -0.1102  0.1165
 6571SOL    HW220158   1.395   1.682   2.384 -1.2108  0.5936  0.3906
 6572SOL     OW20159   3.947   3.882   2.023  0.2953  0.2807  0.0325
 6572SOL    HW120160   3.883   3.823   2.063 -1.4930  0.4021 -2.3838
 6572SOL    HW220161   3.928   3.968   2.062 -0.0157  0.0497  0.3976
 6573SOL     OW20162   1.134   0.464   0.256  0.4109  0.6023  0.0163
 6573SOL    HW120163   1.164   0.536   0.312 -1.2080  1.4118 -0.1028
 6573SOL    HW220164   1.042   0.484   0.238  0.1899 -0.9987 -0.8291
 6574SOL     OW20165   5.501   0.935   2.274 -0.3486 -0.4811 -0.3807
 6574SOL    HW120166   5.568   0.899   2.215  0.9576 -0.1878  0.8692
 6574SOL    HW220167   5.501   1.029   2.255  0.3984 -0.3191  0.3767
 6575SOL     OW20168   1.992   0.334   3.130  0.0689  0.8264 -0.1891
 6575SOL    HW120169   2.061   0.389   3.167  0.1702  0.5018  0.1141
 6575SOL    HW220170   1.910   0.375   3.157  0.1259  1.5870 -1.0986
 6576SOL     OW20171   5.629   4.430   0.354  0.4123 -0.4352 -0.2539
 6576SOL    HW120172   5.690   4.502   0.369  0.3930 -0.5511  0.4351
 6576SOL    HW220173   5.659   4.388   0.274  0.3114  0.4535 -0.7790
 6577SOL     OW20174   5.206   0.671   4.907  0.6128 -0.3854 -0.3783
 6577SOL    HW120175   5.187   0.588   4.951  1.2630 -0.6506 -0.5861
 6577SOL    HW220176   5.181   0.656   4.815  0.1550 -0.1464 -0.2963
 6578SOL     OW20177   5.942   2.446   2.497  0.2452 -0.1575  0.3007
 6578SOL    HW120178   5.977   2.422   2.583  0.6658  0.4141  0.2914
 6578SOL    HW220179   5.993   2.522   2.471  0.5550 -0.7095 -0.7423
 6579SOL     OW20180   1.908   3.224   5.457 -0.0879  0.5396  0.1775
 6579SOL    HW120181   1.835   3.193   5.403 -1.7315  2.1521  1.3507
 6579SOL    HW220182   1.931   3.150   5.513 -0.3012 -0.2183 -0.7126
 6580SOL     OW20183   2.427   5.726   3.482  0.3475  0.4472 -1.1216
 6580SOL    HW120184   2.339   5.689   3.494  1.4640 -1.9890  0.3412
 6580SOL    HW220185   2.476   5.657   3.438  1.9476  1.0658 -0.3690
 6581SOL     OW20186   4.778   5.603   1.172 -0.0396  0.6875 -0.2284
 6581SOL    HW120187   4.726   5.586   1.250 -2.2159 -1.8244 -2.0153
 6581SOL    HW220188   4.822   5.519   1.154  1.0573  1.4494 -1.2589
 6582SOL     OW20189   4.549   4.822   2.249  0.0232 -0.2486 -0.1399
 6582SOL    HW120190   4.564   4.741   2.298  1.6112  0.4075  0.5486
 6582SOL    HW220191   4.567   4.892   2.313 -2.3589  0.7067 -0.3883
 6583SOL     OW20192   3.516   1.939   0.696  0.2799  0.2396  0.1282
 6583SOL    HW120193   3.497   2.016   0.749 -0.9391  0.2288 -0.2744
 6583SOL    HW220194   3.570   1.971   0.624  1.0603  0.4356  0.7828
 6584SOL     OW20195   4.341   5.269   0.838 -0.2553  0.2717  0.1261
 6584SOL    HW120196   4.331   5.336   0.905  1.0156  0.7202 -0.1095
 6584SOL    HW220197   4.304   5.190   0.878  1.3115  0.2859  1.7648
 6585SOL     OW20198   1.076   2.775   3.638  0.5517  0.0676 -0.2586
 6585SOL    HW120199   0.986   2.764   3.668  0.7293 -3.0167 -0.5276
 6585SOL    HW220200   1.083   2.867   3.615 -1.7690  0.9687  2.1164
 6586SOL     OW20201   1.474   1.089   3.319 -0.0566  0.0067 -0.0078
 6586SOL    HW120202   1.537   1.064   3.386  1.8257  1.3463 -1.1946
 6586SOL    HW220203   1.392   1.048   3.347  1.0390 -0.8260  2.2062
 6587SOL     OW20204   5.329   1.256   1.881 -0.0088  0.5160 -0.0286
 6587SOL    HW120205   5.239   1.253   1.913  0.1875  0.7630  0.5484
 6587SOL    HW220206   5.361   1.166   1.891  0.5187  0.8833  1.8358
 6588SOL     OW20207   0.449   3.168   4.118 -0.2303 -0.2001 -0.1931
 6588SOL    HW120208   0.462   3.241   4.179 -0.4370 -0.3145 -0.0119
 6588SOL    HW220209   0.355   3.153   4.118 -0.0291 -1.8320  1.3767
 6589SOL     OW20210   2.270   2.421   1.891 -0.2893 -0.1133 -0.1743
 6589SOL    HW120211   2.268   2.373   1.974  2.7105 -0.7377 -0.3226
 6589SOL    HW220212   2.294   2.510   1.916 -0.5245 -0.0211 -0.2822
 6590SOL     OW20213   3.072   5.888   4.409 -0.1844 -0.0607 -0.1039
 6590SOL    HW120214   3.159   5.902   4.448  1.3436 -3.7623 -1.7357
 6590SOL    HW220215   3.038   5.811   4.454 -2.6908  1.2361  0.4070
 6591SOL     OW20216   1.415   2.075   3.200 -0.0286 -0.4233  0.4668
 6591SOL    HW120217   1.327   2.056   3.232 -0.6365  2.3277  0.6681
 6591SOL    HW220218   1.472   2.063   3.276  0.0604 -3.4905  0.0272
 6592SOL     OW20219   1.661   5.947   2.288  0.1861 -0.9667  0.2351
 6592SOL    HW120220   1.727   5.950   2.357  1.5974 -0.7527 -1.0616
 6592SOL    HW220221   1.688   5.873   2.233 -0.9635 -1.2001 -0.0282
 6593SOL     OW20222   2.763   0.994   1.703 -0.4590  0.0826 -0.4905
 6593SOL    HW120223   2.717   1.012   1.785 -1.5804 -1.6978 -0.6844
 6593SOL    HW220224   2.855   1.015   1.722 -0.7830  0.2348  1.0306
 6594SOL     OW20225   3.911   3.653   2.935 -0.4750  0.0074  0.4635
 6594SOL    HW120226   3.931   3.728   2.879 -2.0659  1.2021  1.4049
 6594SOL    HW220227   3.903   3.691   3.023  0.8659 -1.6400  1.3502
 6595SOL     OW20228   4.988   4.242   3.224  0.8853  0.0385 -0.6433
 6595SOL    HW120229   5.000   4.326   3.268 -0.5039  0.1400 -0.4363
 6595SOL    HW220230   4.964   4.181   3.294  1.4764 -0.4478 -0.8525
 6596SOL     OW20231   4.431   2.465   4.789 -0.4079 -0.0661  0.3789
 6596SOL    HW120232   4.407   2.373   4.796 -0.5726 -0.3656 -2.7782
 6596SOL    HW220233   4.524   2.467   4.810 -0.6966 -0.6567  1.8907
 6597SOL     OW20234   5.896   0.432   5.190 -0.1401 -0.1558  0.4809
 6597SOL    HW120235   5.840   0.361   5.220  1.6438 -1.2899  1.2741
 6597SOL    HW220236   5.964   0.440   5.257 -0.3434  2.4284  0.5021
 6598SOL     OW20237   0.127   1.164   0.727  0.1961  0.5761 -0.1129
 6598SOL    HW120238   0.115   1.259   0.727 -0.4150  0.5035 -0.1628
 6598SOL    HW220239   0.161   1.144   0.640 -0.4436  0.6625 -0.3897
 6599SOL     OW20240   2.852   2.823   5.729 -0.2349 -0.1227 -0.0240
 6599SOL    HW120241   2.923   2.786   5.781  0.1599 -0.4782 -0.7996
 6599SOL    HW220242   2.846   2.766   5.652  1.1091  1.9695 -1.8141
 6600SOL     OW20243   1.559   1.840   3.573  0.3622  0.5193  0.8590
 6600SOL    HW120244   1.653   1.821   3.577  0.4637  0.9271  0.5194
 6600SOL    HW220245   1.547   1.884   3.489 -0.5637 -1.7330 -0.2424
 6601SOL     OW20246   2.720   5.122   3.130 -0.5030 -0.0043 -0.1551
 6601SOL    HW120247   2.797   5.077   3.164 -0.5386  0.0414 -0.0121
 6601SOL    HW220248   2.714   5.096   3.039 -1.1515 -1.1397  0.1958
 6602SOL     OW20249   3.662   3.924   2.300 -0.5763  0.3806 -0.2786
 6602SOL    HW120250   3.624   3.924   2.212 -2.5944 -0.9479  0.5230
 6602SOL    HW220251   3.738   3.982   2.293  0.5248 -1.1842 -3.3941
 6603SOL     OW20252   5.818   1.206   1.703 -0.1559 -0.7090  0.1517
 6603SOL    HW120253   5.755   1.266   1.663  0.7264  0.8162  0.9611
 6603SOL    HW220254   5.781   1.187   1.789 -0.9137 -2.1520 -0.4599
 6604SOL     OW20255   3.976   4.660   3.444 -0.6472 -0.1419  0.0449
 6604SOL    HW120256   3.972   4.751   3.474  1.0048  0.0568 -0.2826
 6604SOL    HW220257   3.894   4.647   3.397 -1.8161  0.5549  1.7780
 6605SOL     OW20258   1.134   4.283   1.560 -0.5049 -0.2581  0.4670
 6605SOL    HW120259   1.195   4.290   1.634 -0.6480  1.0639  0.4807
 6605SOL    HW220260   1.089   4.199   1.574  1.7154 -1.5951  0.1203
 6606SOL     OW20261   5.678   3.609   5.301  0.1600  0.2633  0.0368
 6606SOL    HW120262   5.653   3.564   5.382  0.2419 -0.1032 -0.1405
 6606SOL    HW220263   5.739   3.677   5.330 -0.2181  0.4776  0.3433
 6607SOL     OW20264   0.177   5.387   5.552  0.2909 -0.2811 -0.0759
 6607SOL    HW120265   0.121   5.417   5.623 -1.1854  1.0090 -1.7222
 6607SOL    HW220266   0.229   5.317   5.592 -1.3606 -0.4793  1.9292
 6608SOL     OW20267   2.628   1.538   0.204 -0.7552 -0.1256 -0.2479
 6608SOL    HW120268   2.594   1.506   0.287 -0.4441  2.5258  1.0006
 6608SOL    HW220269   2.710   1.581   0.226 -0.2064 -0.1034 -2.1008
 6609SOL     OW20270   0.491   4.624   0.781 -0.5219  0.0983 -0.3874
 6609SOL    HW120271   0.429   4.584   0.842  0.1290 -3.0372 -1.6000
 6609SOL    HW220272   0.530   4.696   0.831 -2.7000  0.0841  1.5286
 6610SOL     OW20273   4.078   3.707   5.343 -0.4030 -0.3635 -0.1162
 6610SOL    HW120274   4.137   3.652   5.395  1.0026 -1.1769 -2.4390
 6610SOL    HW220275   4.042   3.770   5.406  2.6282 -0.0883  1.5286
 6611SOL     OW20276   0.845   5.100   1.202 -0.2738 -0.2528 -0.1459
 6611SOL    HW120277   0.850   5.044   1.280  1.5323 -0.3747 -0.2952
 6611SOL    HW220278   0.826   5.187   1.236  2.6666  0.1453  0.7425
 6612SOL     OW20279   3.258   3.543   0.525 -0.7990  0.0895  0.6361
 6612SOL    HW120280   3.184   3.482   0.528 -0.3174 -0.4982  2.7563
 6612SOL    HW220281   3.329   3.494   0.485 -1.2616  0.3408 -0.5317
 6613SOL     OW20282   4.779   3.008   5.932 -0.1567 -0.0171  0.4633
 6613SOL    HW120283   4.807   3.097   5.911 -1.8500  0.5537  0.5152
 6613SOL    HW220284   4.855   2.969   5.976  1.3160  0.7203 -1.3153
 6614SOL     OW20285   4.613   1.719   2.894  0.1706  0.2836 -0.0929
 6614SOL    HW120286   4.661   1.791   2.854  0.6373 -0.5567 -1.1030
 6614SOL    HW220287   4.660   1.640   2.866 -0.3967 -0.4270  0.8736
 6615SOL     OW20288   2.129   5.671   3.591 -0.2220 -0.3255 -0.5417
 6615SOL    HW120289   2.158   5.759   3.617 -2.1767  0.2646 -0.2104
 6615SOL    HW220290   2.118   5.624   3.673 -0.4134 -0.4608 -0.6449
 6616SOL     OW20291   1.814   5.974   5.662  0.0893 -0.4982  0.1276
 6616SOL    HW120292   1.835   6.020   5.581 -1.9340 -1.0134 -0.7498
 6616SOL    HW220293   1.759   5.901   5.635 -1.5165 -0.0993  2.0294
 6617SOL     OW20294   3.086   4.521   2.865 -0.4690  0.1987 -0.6348
 6617SOL    HW120295   3.174   4.491   2.889  0.2605  2.2631 -0.5888
 6617SOL    HW220296   3.028   4.467   2.919  0.8282 -0.0583  0.5925
 6618SOL     OW20297   2.978   2.172   2.426  0.1296  0.3610 -0.5223
 6618SOL    HW120298   2.996   2.213   2.510 -0.2621  0.6722 -0.5927
 6618SOL    HW220299   2.905   2.221   2.389 -0.8485 -0.8395 -0.2775
 6619SOL     OW20300   0.281   4.650   0.064 -0.2119 -0.6700  0.0353
 6619SOL    HW120301   0.328   4.570   0.087  0.2398 -0.6886 -0.8903
 6619SOL    HW220302   0.190   4.622   0.055 -0.4197 -0.6380  1.8138
 6620SOL     OW20303   2.734   4.314   1.257 -0.2762 -0.4832 -1.0545
 6620SOL    HW120304   2.650   4.322   1.302  0.2893  1.4505 -0.2352
 6620SOL    HW220305   2.798   4.343   1.321  1.2201 -3.1317 -1.2257
 6621SOL     OW20306   3.154   2.626   3.325 -0.1911 -0.2895  0.0907
 6621SOL    HW120307   3.158   2.693   3.257 -1.2399 -0.3963 -0.0902
 6621SOL    HW220308   3.069   2.584   3.313 -0.6336  0.0449  1.7985
 6622SOL     OW20309   1.123   4.390   3.353 -0.2947  0.5645 -0.1071
 6622SOL    HW120310   1.034   4.372   3.323  0.6996 -0.9448 -2.3625
 6622SOL    HW220311   1.113   4.466   3.411 -2.9233  0.9579 -0.9339
 6623SOL     OW20312   1.132   2.758   4.251 -0.1500  0.0781  0.2380
 6623SOL    HW120313   1.083   2.825   4.299 -2.0807 -1.3690  0.4209
 6623SOL    HW220314   1.193   2.723   4.316  0.8885  1.6265  0.1349
 6624SOL     OW20315   5.375   5.880   4.518  0.6736 -0.4407  0.2978
 6624SOL    HW120316   5.402   5.907   4.606  2.4368 -0.6361 -0.1400
 6624SOL    HW220317   5.411   5.947   4.460  1.8912 -1.6913 -0.4770
 6625SOL     OW20318   3.299   3.931   3.413  0.0848  0.5932 -0.1648
 6625SOL    HW120319   3.284   3.925   3.508  2.4226 -1.0147  0.1804
 6625SOL    HW220320   3.348   4.012   3.402  0.0547  0.6439  0.0584
 6626SOL     OW20321   5.175   5.344   2.963 -0.4580 -0.1874  0.0643
 6626SOL    HW120322   5.134   5.358   2.878  0.0950  2.1334  0.1203
 6626SOL    HW220323   5.106   5.360   3.027 -0.2490  0.5855  0.0980
 6627SOL     OW20324   3.147   3.764   3.973  0.1166 -0.6524  0.0035
 6627SOL    HW120325   3.173   3.756   4.065  0.1754 -1.2373 -0.0614
 6627SOL    HW220326   3.225   3.800   3.929 -0.7240  2.1878  0.6002
 6628SOL     OW20327   4.308   5.881   5.838  0.1357  0.7137  0.0476
 6628SOL    HW120328   4.300   5.815   5.906 -0.7523 -0.7875 -1.4449
 6628SOL    HW220329   4.219   5.894   5.806  0.6510  0.6033 -1.5127
 6629SOL     OW20330   4.397   1.389   3.815  0.5257  0.2373 -0.1615
 6629SOL    HW120331   4.488   1.405   3.841  1.2975 -1.2050 -1.7321
 6629SOL    HW220332   4.400   1.306   3.767 -1.7728 -0.2532  0.4116
 6630SOL     OW20333   4.923   0.235   0.876  0.3734 -0.0714 -0.1629
 6630SOL    HW120334   4.948   0.258   0.786 -0.0192  1.1214  0.0140
 6630SOL    HW220335   4.944   0.142   0.883 -0.9208 -0.5722 -1.9570
 6631SOL     OW20336   5.340   4.551   1.409  0.1372  0.0983  0.1183
 6631SOL    HW120337   5.273   4.580   1.472  0.1272 -0.7238  0.5029
 6631SOL    HW220338   5.412   4.614   1.420 -0.2962  0.5918  0.1837
 6632SOL     OW20339   4.628   1.658   3.168 -0.0146  0.7156 -0.3012
 6632SOL    HW120340   4.706   1.704   3.196  0.6224  0.2197 -1.1882
 6632SOL    HW220341   4.623   1.674   3.073 -0.0226 -0.6189 -0.5555
 6633SOL     OW20342   2.098   3.831   2.562  0.0806 -0.7399  0.0827
 6633SOL    HW120343   2.076   3.824   2.655  0.6722 -0.9854  0.2120
 6633SOL    HW220344   2.194   3.836   2.561  0.0368  0.2480 -0.4547
 6634SOL     OW20345   2.221   0.792   2.639  0.7068 -1.0644 -0.2075
 6634SOL    HW120346   2.300   0.743   2.664  0.8328 -0.2194  1.1367
 6634SOL    HW220347   2.246   0.884   2.646 -0.1981 -0.7875 -0.4498
 6635SOL     OW20348   4.850   4.472   0.145 -0.8178  0.1025  0.3555
 6635SOL    HW120349   4.879   4.488   0.235  0.5326  3.0275 -0.4874
 6635SOL    HW220350   4.929   4.446   0.098 -0.8789  1.5517 -0.5886
 6636SOL     OW20351   1.055   4.099   5.626  0.1392 -0.0370 -0.0688
 6636SOL    HW120352   1.062   4.146   5.709  0.6447 -0.3360  0.0587
 6636SOL    HW220353   1.116   4.145   5.568 -0.6213  0.5162 -0.4372
 6637SOL     OW20354   3.096   5.080   0.901  0.0421 -0.1659 -0.2174
 6637SOL    HW120355   3.073   5.063   0.993 -0.3450  0.3557 -0.2122
 6637SOL    HW220356   3.027   5.037   0.851  0.9254 -1.5340 -0.3214
 6638SOL     OW20357   2.881   5.852   1.829 -0.4943 -0.2586 -0.4641
 6638SOL    HW120358   2.907   5.781   1.889 -0.2366  1.2629  1.3290
 6638SOL    HW220359   2.787   5.860   1.841 -0.1979  1.2335  1.1806
 6639SOL     OW20360   1.677   4.044   6.069 -0.1727 -0.5759  0.0530
 6639SOL    HW120361   1.676   4.136   6.042 -0.9166 -0.2761  1.0191
 6639SOL    HW220362   1.763   4.031   6.109 -0.3657 -0.0527  0.6613
 6640SOL     OW20363   2.908   0.286   1.938 -0.0372  0.6566 -0.1850
 6640SOL    HW120364   2.925   0.192   1.926 -0.8582  0.3624  0.7563
 6640SOL    HW220365   2.979   0.330   1.891  0.7474 -0.4473 -0.0800
 6641SOL     OW20366   4.876   3.305   1.252 -0.5664 -0.6284  0.0563
 6641SOL    HW120367   4.876   3.210   1.269  0.9725 -1.0100 -1.7873
 6641SOL    HW220368   4.951   3.338   1.302  0.7598 -0.9188 -1.6555
 6642SOL     OW20369   5.989   2.337   2.215  0.0383  0.4985 -0.1054
 6642SOL    HW120370   5.977   2.303   2.126  1.3450  1.5314 -0.7114
 6642SOL    HW220371   5.928   2.410   2.221 -1.2982 -0.6102  0.4903
 6643SOL     OW20372   1.912   4.839   6.041  0.1555 -0.2633 -0.0776
 6643SOL    HW120373   1.970   4.881   5.978  1.5872  1.0020  1.9496
 6643SOL    HW220374   1.945   4.867   6.126 -4.5348  2.2810  1.3134
 6644SOL     OW20375   0.296   4.949   2.982  0.0312  0.6340 -0.2830
 6644SOL    HW120376   0.249   4.888   2.926 -0.1143  0.4651  0.0247
 6644SOL    HW220377   0.387   4.918   2.980 -0.5823 -1.7475  2.6563
 6645SOL     OW20378   5.638   4.474   2.953 -0.0027 -0.3071  0.4980
 6645SOL    HW120379   5.579   4.519   2.892  0.8472  0.0332 -0.0919
 6645SOL    HW220380   5.699   4.542   2.982  0.9332 -0.9390  0.0537
 6646SOL     OW20381   0.746   0.922   2.083 -0.0154 -0.1463  0.0868
 6646SOL    HW120382   0.726   0.986   2.151  0.2292  0.7338 -0.6477
 6646SOL    HW220383   0.774   0.974   2.008 -2.2164 -0.9493 -1.3937
 6647SOL     OW20384   1.306   2.988   1.089  0.2427 -0.6785 -0.1203
 6647SOL    HW120385   1.392   3.026   1.106  0.9697 -1.8227 -1.0389
 6647SOL    HW220386   1.271   3.039   1.016  0.9709 -1.3652 -0.9775
 6648SOL     OW20387   2.092   1.419   4.761  0.1163 -0.4197  0.1876
 6648SOL    HW120388   2.024   1.369   4.806 -0.1113 -0.9752 -0.7661
 6648SOL    HW220389   2.129   1.475   4.830 -1.0449 -0.3655  0.7959
 6649SOL     OW20390   1.191   0.526   5.527 -0.2449  0.5782  0.1189
 6649SOL    HW120391   1.190   0.436   5.495  1.3887  1.3771 -2.5281
 6649SOL    HW220392   1.107   0.562   5.497  0.7216  0.9440 -2.4283
 6650SOL     OW20393   5.969   4.074   2.045  0.3327 -0.0900  0.3189
 6650SOL    HW120394   6.054   4.031   2.057 -1.1166 -2.7945  1.6425
 6650SOL    HW220395   5.935   4.036   1.964  1.0101  2.3062 -1.2097
 6651SOL     OW20396   3.105   4.894   3.503 -0.0699  0.2927  0.4633
 6651SOL    HW120397   3.016   4.892   3.538  0.0832  0.9265  0.8809
 6651SOL    HW220398   3.096   4.858   3.414 -0.7008  0.1427  0.5837
 6652SOL     OW20399   3.943   5.682   4.770  0.0289  0.0129 -0.2705
 6652SOL    HW120400   4.006   5.637   4.827  0.2988  0.1044 -0.4959
 6652SOL    HW220401   3.883   5.726   4.831 -1.4139 -2.1825  0.0255
 6653SOL     OW20402   3.311   4.736   3.631 -0.0629  0.3286 -0.1729
 6653SOL    HW120403   3.362   4.794   3.686  0.0750  0.5182 -0.4968
 6653SOL    HW220404   3.247   4.792   3.589 -0.9394 -0.0046  0.6916
 6654SOL     OW20405   3.395   5.204   0.989 -0.1797 -0.5707 -0.2085
 6654SOL    HW120406   3.324   5.193   0.925 -0.4602 -2.1632  0.3406
 6654SOL    HW220407   3.386   5.130   1.048  0.4316  0.5470  1.3612
 6655SOL     OW20408   2.345   3.621   2.324 -0.1693 -0.2151 -0.3567
 6655SOL    HW120409   2.402   3.552   2.291  1.0059  1.0651 -1.1343
 6655SOL    HW220410   2.261   3.605   2.281 -0.3242 -1.9020  0.5029
 6656SOL     OW20411   0.083   2.259   2.758  0.3864 -0.1564 -0.3537
 6656SOL    HW120412   0.117   2.183   2.806 -1.5541 -1.0063 -0.2400
 6656SOL    HW220413   0.159   2.295   2.714  1.5274 -1.6503  0.2987
 6657SOL     OW20414   2.453   0.902   2.814  0.1828 -0.3305  0.4210
 6657SOL    HW120415   2.541   0.940   2.810 -0.1256  0.2858 -0.6883
 6657SOL    HW220416   2.462   0.815   2.774  0.2277 -0.1543  0.0492
 6658SOL     OW20417   3.545   5.028   3.995 -0.1843 -0.1869 -0.0380
 6658SOL    HW120418   3.603   4.952   4.003  0.5136  0.3845  0.5059
 6658SOL    HW220419   3.462   4.999   4.033  0.2546 -0.4989  0.7235
 6659SOL     OW20420   0.447   3.237   5.821  0.0781 -0.8487 -0.3676
 6659SOL    HW120421   0.482   3.203   5.903  0.1949  2.6659  1.1781
 6659SOL    HW220422   0.525   3.259   5.769  0.0936  0.4194  0.1687
 6660SOL     OW20423   0.413   1.928   2.758 -0.0109  0.4026 -0.3635
 6660SOL    HW120424   0.407   1.839   2.793  0.2340  0.7332  0.5415
 6660SOL    HW220425   0.452   1.917   2.671  0.2394 -0.3531 -0.1584
 6661SOL     OW20426   1.703   5.781   6.128 -0.2312 -0.2911 -0.6660
 6661SOL    HW120427   1.709   5.818   6.040  0.4787  0.8897 -0.1459
 6661SOL    HW220428   1.734   5.691   6.119  0.4729  0.0220 -1.5073
 6662SOL     OW20429   0.251   4.452   0.536  0.7290 -0.5310 -0.5497
 6662SOL    HW120430   0.265   4.396   0.612  3.0330  0.0576 -0.4511
 6662SOL    HW220431   0.222   4.536   0.572  2.1338 -0.1501 -0.2441
 6663SOL     OW20432   0.506   5.210   5.628 -0.1416  0.3796  0.5732
 6663SOL    HW120433   0.441   5.144   5.654  1.6586 -1.2409  1.1595
 6663SOL    HW220434   0.536   5.181   5.542  0.3999  0.6132  0.6805
 6664SOL     OW20435   1.765   3.311   1.076 -0.6389 -0.1836 -0.4103
 6664SOL    HW120436   1.785   3.223   1.108 -0.9864 -0.3560 -0.6733
 6664SOL    HW220437   1.710   3.349   1.145  0.1368  0.1085  0.0706
 6665SOL     OW20438   3.082   1.564   5.134 -0.5838  0.3165 -0.2497
 6665SOL    HW120439   2.998   1.609   5.125 -1.5176 -1.5664 -1.6036
 6665SOL    HW220440   3.085   1.537   5.226 -2.4734 -1.3720 -0.6289
 6666SOL     OW20441   0.654   3.595   0.946 -0.5420  0.0471  0.1571
 6666SOL    HW120442   0.592   3.533   0.985 -1.9108 -0.1303 -2.1441
 6666SOL    HW220443   0.599   3.663   0.908  0.7765  0.7705 -0.5121
 6667SOL     OW20444   3.230   3.380   5.745 -0.0385  0.2766  0.0086
 6667SOL    HW120445   3.264   3.293   5.727  0.5103  0.6754 -0.9675
 6667SOL    HW220446   3.139   3.377   5.717  0.5888  0.6556 -2.2776
 6668SOL     OW20447   5.559   5.200   3.356 -0.1322  0.2172  0.2871
 6668SOL    HW120448   5.597   5.211   3.268 -0.5739 -1.0474 -0.0892
 6668SOL    HW220449   5.499   5.274   3.366 -0.7323 -0.0971 -0.8448
 6669SOL     OW20450   0.948   0.217   1.301  0.1608 -0.0248  0.2694
 6669SOL    HW120451   0.957   0.226   1.207  0.9394  0.1541  0.3498
 6669SOL    HW220452   1.006   0.284   1.337 -0.2208 -0.0127  0.8714
 6670SOL     OW20453   1.582   4.893   0.279  0.3383 -0.4490 -0.0864
 6670SOL    HW120454   1.632   4.819   0.245 -1.6341 -2.8408  1.7839
 6670SOL    HW220455   1.514   4.908   0.214  0.6535 -0.3920 -0.4031
 6671SOL     OW20456   5.656   1.208   3.943  0.4723  0.3361  0.0855
 6671SOL    HW120457   5.674   1.114   3.951  0.3183  0.2659 -0.3185
 6671SOL    HW220458   5.725   1.241   3.886  1.4982  0.8007  1.5717
 6672SOL     OW20459   0.535   0.353   4.545 -0.1643 -0.0003 -0.3182
 6672SOL    HW120460   0.540   0.308   4.630 -0.2268  0.4114 -0.0912
 6672SOL    HW220461   0.615   0.326   4.499  0.4922  0.7332  0.3587
 6673SOL     OW20462   4.479   2.244   6.092 -0.3594 -0.4164 -0.1953
 6673SOL    HW120463   4.562   2.275   6.129 -0.0549 -0.5919 -0.7176
 6673SOL    HW220464   4.494   2.151   6.075 -0.8068 -0.5418  0.1016
 6674SOL     OW20465   0.614   0.328   3.630  0.4774  0.5618 -0.2047
 6674SOL    HW120466   0.703   0.362   3.639  0.6525  0.5338 -1.6050
 6674SOL    HW220467   0.561   0.404   3.608  0.3305  0.4139 -0.3636
 6675SOL     OW20468   5.436   0.790   0.073  0.5566 -0.2565 -0.6020
 6675SOL    HW120469   5.531   0.774   0.070  0.4442 -1.3803  1.0655
 6675SOL    HW220470   5.420   0.825   0.160 -0.2582  2.4067 -1.7099
 6676SOL     OW20471   2.167   0.433   2.513  0.6825 -0.0980  0.3529
 6676SOL    HW120472   2.072   0.443   2.507  0.5231 -1.6636  0.0235
 6676SOL    HW220473   2.184   0.344   2.484  2.4726  0.7899 -1.5894
 6677SOL     OW20474   3.293   4.056   5.203 -0.3322  0.0210  0.8316
 6677SOL    HW120475   3.238   3.979   5.188 -0.9984  0.2081  2.1531
 6677SOL    HW220476   3.256   4.123   5.145 -2.0969  0.3950  2.2954
 6678SOL     OW20477   3.685   1.619   1.364 -0.5822  0.1426 -0.9381
 6678SOL    HW120478   3.712   1.662   1.444 -1.8276 -1.3623  0.3732
 6678SOL    HW220479   3.752   1.642   1.300 -0.7074  3.1861 -0.1079
 6679SOL     OW20480   1.602   5.209   0.889  0.4723  0.4136 -0.6511
 6679SOL    HW120481   1.632   5.171   0.806  0.2233  1.0358 -1.0376
 6679SOL    HW220482   1.682   5.227   0.937  0.6195  0.0294 -0.7473
 6680SOL     OW20483   5.626   2.657   0.224  0.4132  0.1269  0.0685
 6680SOL    HW120484   5.672   2.638   0.306 -1.5096  0.2275  1.2455
 6680SOL    HW220485   5.658   2.591   0.163  1.2683 -0.4966  1.1417
 6681SOL     OW20486   0.063   3.933   5.922  0.3197  0.2814  0.0242
 6681SOL    HW120487   0.143   3.929   5.870  0.5908  1.1039  0.3674
 6681SOL    HW220488  -0.005   3.955   5.859  0.3111 -0.6512 -0.3103
 6682SOL     OW20489   5.716   2.702   4.418 -0.1226 -0.4481 -0.0250
 6682SOL    HW120490   5.692   2.759   4.491 -1.0114 -0.3386 -0.3774
 6682SOL    HW220491   5.810   2.715   4.406  0.0855 -0.6792  1.2648
 6683SOL     OW20492   0.135   4.476   1.453  0.3394  0.4331  0.2360
 6683SOL    HW120493   0.164   4.407   1.393 -2.1862 -2.8527  2.4428
 6683SOL    HW220494   0.184   4.459   1.534 -2.0932 -0.5267  1.6120
 6684SOL     OW20495   4.773   0.250   5.891  0.0627 -0.5325 -0.2115
 6684SOL    HW120496   4.857   0.271   5.932 -0.5715  0.2703  0.7287
 6684SOL    HW220497   4.769   0.306   5.813  0.0351  0.0907  0.2256
 6685SOL     OW20498   1.365   0.473   4.680  0.1066  0.4415 -0.4386
 6685SOL    HW120499   1.459   0.464   4.693  0.2173  1.2479 -0.6669
 6685SOL    HW220500   1.354   0.558   4.638 -0.6841  0.1483 -0.8523
 6686SOL     OW20501   5.535   3.007   5.049  0.5767 -0.5452  0.2112
 6686SOL    HW120502   5.620   3.051   5.040  0.4187 -0.1581  0.5304
 6686SOL    HW220503   5.487   3.032   4.970  0.9465 -1.1960 -0.2221
 6687SOL     OW20504   2.798   4.120   6.039 -0.4714 -0.6979 -0.3193
 6687SOL    HW120505   2.703   4.115   6.032 -0.5275 -0.8986  0.5630
 6687SOL    HW220506   2.829   4.048   5.983 -0.8244 -0.5022 -0.7747
 6688SOL     OW20507   4.567   4.563   2.405 -0.2343  0.3574 -0.2581
 6688SOL    HW120508   4.631   4.500   2.439 -0.7203  0.1211  0.2473
 6688SOL    HW220509   4.497   4.508   2.369  0.4425  0.5988 -2.0331
 6689SOL     OW20510   4.417   4.347   3.854  0.2665 -0.4728  0.4694
 6689SOL    HW120511   4.513   4.343   3.862  0.2932 -2.5629 -0.4144
 6689SOL    HW220512   4.385   4.321   3.941  0.4789  0.1244  0.7357
 6690SOL     OW20513   4.121   0.526   2.709 -0.1033 -0.0661  0.4664
 6690SOL    HW120514   4.196   0.471   2.731  1.1362  0.5937 -1.8092
 6690SOL    HW220515   4.057   0.465   2.671  0.7542 -0.1554 -0.8828
 6691SOL     OW20516   0.404   5.148   1.951 -0.2821  0.1893  0.0038
 6691SOL    HW120517   0.454   5.185   2.024  2.6366  1.2499 -2.3399
 6691SOL    HW220518   0.417   5.054   1.958 -2.2780 -0.0162  2.2547
 6692SOL     OW20519   4.685   5.470   1.910 -0.2106  0.0646  0.2970
 6692SOL    HW120520   4.647   5.501   1.993  0.6907  0.8158  0.4507
 6692SOL    HW220521   4.747   5.402   1.936  1.1946  1.3383  0.4204
 6693SOL     OW20522   2.958   3.906   2.355 -0.3861  0.0505 -0.1313
 6693SOL    HW120523   2.913   3.979   2.310  2.4501  1.9059 -0.1909
 6693SOL    HW220524   3.001   3.858   2.284  0.4127  0.2815  0.1945
 6694SOL     OW20525   0.143   2.518   5.269  0.5338  0.0380  0.0517
 6694SOL    HW120526   0.221   2.555   5.228  1.0636 -1.5240 -0.4218
 6694SOL    HW220527   0.086   2.495   5.195 -0.2309  0.8315  0.3801
 6695SOL     OW20528   1.400   0.647   1.923 -0.6986  0.6849 -0.0432
 6695SOL    HW120529   1.478   0.690   1.890 -0.5709 -0.1658 -0.9014
 6695SOL    HW220530   1.419   0.630   2.015  0.8286 -0.9945 -0.6214
 6696SOL     OW20531   1.901   1.226   5.155 -0.0335  0.0899 -0.2002
 6696SOL    HW120532   1.909   1.143   5.202 -0.8358 -0.2915 -0.7227
 6696SOL    HW220533   1.831   1.273   5.202 -0.7626 -0.2471 -0.9241
 6697SOL     OW20534   3.471   3.230   2.600 -0.8897 -0.3760 -0.4886
 6697SOL    HW120535   3.461   3.325   2.599  0.7578 -0.1709 -1.3355
 6697SOL    HW220536   3.408   3.200   2.665 -0.2093  1.4473  1.1197
 6698SOL     OW20537   2.207   4.106   2.828  0.4771  0.2155 -0.5252
 6698SOL    HW120538   2.115   4.110   2.854  0.9597  1.4351  1.2022
 6698SOL    HW220539   2.221   4.014   2.804 -1.4677  0.2620 -2.1057
 6699SOL     OW20540   0.232   5.975   5.290 -0.0695 -0.3639 -0.2949
 6699SOL    HW120541   0.211   5.882   5.286  0.0767 -0.4714  1.0265
 6699SOL    HW220542   0.327   5.979   5.295 -0.0882 -0.1467 -0.0948
 6700SOL     OW20543   2.069   5.138   4.003 -0.2409 -0.1194  0.7034
 6700SOL    HW120544   2.153   5.126   3.960  0.8908 -0.5906  2.9349
 6700SOL    HW220545   2.042   5.051   4.031  0.0307  0.3551  2.6073
 6701SOL     OW20546   0.593   4.480   0.552 -0.1050 -0.8323 -0.4404
 6701SOL    HW120547   0.533   4.520   0.489 -0.3602 -0.3826  0.0703
 6701SOL    HW220548   0.571   4.523   0.636  1.9350  0.4795 -0.4964
 6702SOL     OW20549   4.312   2.818   4.171  0.2017 -0.0752  0.1801
 6702SOL    HW120550   4.254   2.785   4.240  1.9728 -0.9060  1.3706
 6702SOL    HW220551   4.376   2.872   4.218  0.3478  0.9054 -1.1012
 6703SOL     OW20552   5.522   2.538   6.027  0.4848  0.5531 -0.3243
 6703SOL    HW120553   5.446   2.524   5.970  0.7453  1.2325 -0.8628
 6703SOL    HW220554   5.532   2.456   6.076  0.3874 -0.1288 -1.4210
 6704SOL     OW20555   1.885   5.030   2.373  0.1987  0.1037 -0.0221
 6704SOL    HW120556   1.850   5.074   2.451 -0.9307  1.9344 -1.4833
 6704SOL    HW220557   1.976   5.059   2.370  1.2529 -2.5003  2.2688
 6705SOL     OW20558   4.837   4.677   5.666 -0.1560 -0.1732 -0.1395
 6705SOL    HW120559   4.923   4.707   5.635  0.1491 -1.7101 -0.8888
 6705SOL    HW220560   4.851   4.655   5.758  0.5324 -1.3095 -0.4930
 6706SOL     OW20561   5.464   4.647   0.452  0.1842 -0.0848 -0.9409
 6706SOL    HW120562   5.457   4.700   0.372  0.4027  0.0518 -0.8706
 6706SOL    HW220563   5.515   4.570   0.425  0.0464 -0.1568 -0.9932
 6707SOL     OW20564   2.952   0.248   0.023 -0.6391  0.0038  0.2486
 6707SOL    HW120565   2.965   0.340   0.043  1.9621 -0.1474 -0.2596
 6707SOL    HW220566   2.879   0.246  -0.038 -0.3957  1.8057 -0.1529
 6708SOL     OW20567   5.847   5.622   1.736 -0.4950 -0.0799 -0.5657
 6708SOL    HW120568   5.840   5.671   1.818 -3.0969 -0.1129 -0.6726
 6708SOL    HW220569   5.851   5.530   1.763  1.1895 -0.0063 -0.4577
 6709SOL     OW20570   5.241   2.113   2.539 -0.2397 -0.0704  0.1335
 6709SOL    HW120571   5.263   2.045   2.476  0.0189 -0.3215  0.4939
 6709SOL    HW220572   5.289   2.190   2.509 -1.1743  0.1906 -0.7454
 6710SOL     OW20573   2.686   2.251   4.387  0.6743  0.0930  0.0708
 6710SOL    HW120574   2.696   2.189   4.459  1.4779  1.4119  1.1583
 6710SOL    HW220575   2.602   2.229   4.347 -0.4519  0.1478  2.2592
 6711SOL     OW20576   4.454   0.053   5.292  0.1682  0.1194 -0.0358
 6711SOL    HW120577   4.415   0.049   5.379 -2.1556 -0.1584 -1.0170
 6711SOL    HW220578   4.531  -0.004   5.297 -1.2825 -1.8602  1.2051
 6712SOL     OW20579   2.639   1.208   5.461  0.5739 -0.0365 -0.2963
 6712SOL    HW120580   2.701   1.154   5.511  2.3570  1.5082 -0.7152
 6712SOL    HW220581   2.572   1.147   5.431  0.5402 -1.3740  2.2409
 6713SOL     OW20582   4.096   2.159   2.904 -0.4507 -0.0443  0.3234
 6713SOL    HW120583   4.105   2.113   2.820  1.8011  1.1270 -0.1446
 6713SOL    HW220584   4.033   2.106   2.954 -0.7304 -1.5613 -1.5423
 6714SOL     OW20585   5.550   1.466   0.628  0.3628  0.1734  0.5799
 6714SOL    HW120586   5.490   1.413   0.576  0.5168 -1.0392  1.5749
 6714SOL    HW220587   5.635   1.423   0.619  0.4857  0.2123  1.4435
 6715SOL     OW20588   0.011   5.950   3.348  0.1316 -0.0760 -0.0221
 6715SOL    HW120589  -0.008   5.857   3.363 -0.9000 -0.0129 -0.8506
 6715SOL    HW220590  -0.058   5.980   3.288  0.7855  1.0844 -0.2308
 6716SOL     OW20591   5.925   5.006   6.006  0.1355 -0.1606  0.0794
 6716SOL    HW120592   5.984   4.968   5.941  1.0969 -0.6272  1.1838
 6716SOL    HW220593   5.845   4.953   5.999  0.4650 -0.6248 -0.2763
 6717SOL     OW20594   0.432   4.192   4.610 -0.4253 -0.2478  0.7759
 6717SOL    HW120595   0.420   4.098   4.597  0.3215 -0.4912  1.7412
 6717SOL    HW220596   0.526   4.206   4.600 -0.2488  0.0652  2.5063
 6718SOL     OW20597   2.518   3.945   0.615 -0.6935  0.2823  0.4081
 6718SOL    HW120598   2.598   3.928   0.665  0.3758  1.8108 -0.6720
 6718SOL    HW220599   2.513   3.873   0.553  0.4021  0.6706 -0.1519
 6719SOL     OW20600   2.932   2.988   6.014 -0.0030 -0.1685 -0.4748
 6719SOL    HW120601   2.893   3.012   5.930  0.3952  1.3624 -0.2420
 6719SOL    HW220602   2.988   2.913   5.994 -0.6930 -0.4673 -1.3710
 6720SOL     OW20603   2.515   3.711   3.816  0.1559 -0.1734  0.0386
 6720SOL    HW120604   2.432   3.739   3.777  0.1771  0.2737  0.3032
 6720SOL    HW220605   2.582   3.755   3.765  0.2846 -1.3960 -0.8685
 6721SOL     OW20606   2.915   0.974   0.882  0.0831 -0.7495  0.3850
 6721SOL    HW120607   2.906   0.971   0.977  1.0058 -0.4578  0.4894
 6721SOL    HW220608   2.931   1.066   0.861 -1.0620 -0.6487 -0.1616
 6722SOL     OW20609   3.530   5.838   5.058  0.2264 -0.3781  0.4857
 6722SOL    HW120610   3.480   5.768   5.100  0.3665 -0.5442  0.3773
 6722SOL    HW220611   3.595   5.792   5.004 -1.9782 -0.2950 -2.5272
 6723SOL     OW20612   2.575   4.656   0.855  0.1597  0.4078 -0.2758
 6723SOL    HW120613   2.598   4.627   0.767  0.5149  1.3047 -0.4913
 6723SOL    HW220614   2.607   4.587   0.913  1.4425  0.5889 -0.7339
 6724SOL     OW20615   2.471   4.131   0.827  0.1547 -0.3098  0.0336
 6724SOL    HW120616   2.532   4.126   0.901  0.8461 -0.5533 -0.5340
 6724SOL    HW220617   2.494   4.056   0.772  0.3493  0.4265 -0.9298
 6725SOL     OW20618   2.909   0.169   0.573  0.1070  0.2315 -0.3453
 6725SOL    HW120619   2.930   0.180   0.480  0.1326  0.0532 -0.3605
 6725SOL    HW220620   2.975   0.221   0.619 -0.2910  0.8366 -0.4547
 6726SOL     OW20621   5.230   4.674   5.878  0.3536  0.1472 -0.0747
 6726SOL    HW120622   5.171   4.668   5.802  1.9135 -0.0152 -1.3261
 6726SOL    HW220623   5.226   4.587   5.918 -2.0440  0.7963  1.3340
 6727SOL     OW20624   1.004   0.463   2.737 -0.0606 -0.5472  0.3561
 6727SOL    HW120625   0.918   0.422   2.735 -0.6427  0.6678 -0.7044
 6727SOL    HW220626   1.001   0.523   2.811  0.3137 -1.3748  1.0593
 6728SOL     OW20627   5.391   0.111   0.087 -0.1827 -0.0843  0.0652
 6728SOL    HW120628   5.470   0.153   0.122  0.1953 -1.9523  1.6292
 6728SOL    HW220629   5.380   0.032   0.140 -2.5293 -0.4304 -0.8083
 6729SOL     OW20630   1.584   4.021   3.613  0.0414 -0.2112  0.1465
 6729SOL    HW120631   1.595   4.026   3.708  0.5768 -0.5878  0.1104
 6729SOL    HW220632   1.672   4.002   3.580  0.0819  0.9887 -0.5130
 6730SOL     OW20633   3.138   0.490   1.769  0.0469  0.6839  0.0853
 6730SOL    HW120634   3.206   0.479   1.702  0.0600 -0.7930  0.3089
 6730SOL    HW220635   3.165   0.568   1.818  3.0142 -1.2135  1.7690
 6731SOL     OW20636   0.187   1.475   5.194 -0.0803 -0.2816  0.2584
 6731SOL    HW120637   0.220   1.558   5.228 -1.4361 -0.1116  1.2427
 6731SOL    HW220638   0.264   1.431   5.159  0.4065  2.1407 -1.9811
 6732SOL     OW20639   5.304   1.201   1.438 -0.4903  0.4638 -0.0227
 6732SOL    HW120640   5.309   1.188   1.343 -0.8485  0.2215 -0.0069
 6732SOL    HW220641   5.215   1.233   1.453 -0.1851  1.2745  0.1396
 6733SOL     OW20642   0.968   4.543   2.958  0.5782 -0.6204  0.0498
 6733SOL    HW120643   0.952   4.637   2.950 -1.1073 -0.9728 -1.4374
 6733SOL    HW220644   1.058   4.536   2.991  0.8985  1.4967 -0.2523
 6734SOL     OW20645   0.401   2.408   1.140  0.0030  0.2456  0.1787
 6734SOL    HW120646   0.482   2.392   1.091 -0.1087 -0.4482  0.2038
 6734SOL    HW220647   0.431   2.442   1.225  0.2458  0.4084  0.0279
 6735SOL     OW20648   2.942   0.748   2.449 -0.0147  0.5731 -0.6985
 6735SOL    HW120649   2.878   0.816   2.470 -1.3635  0.3845 -3.5927
 6735SOL    HW220650   2.908   0.707   2.369  2.7805 -0.8498 -1.3036
 6736SOL     OW20651   1.276   2.743   3.133  0.0105  0.1442 -0.0777
 6736SOL    HW120652   1.305   2.743   3.224 -1.3357  0.9890  0.3884
 6736SOL    HW220653   1.238   2.656   3.119  1.5981 -0.5511 -0.3473
 6737SOL     OW20654   0.894   2.420   5.799  0.3850  0.9100 -0.3474
 6737SOL    HW120655   0.916   2.412   5.892 -2.1549  0.1012  0.2567
 6737SOL    HW220656   0.976   2.397   5.754  0.9069 -1.7645  1.6878
 6738SOL     OW20657   0.156   0.238   4.203 -0.0617 -0.0695  0.5796
 6738SOL    HW120658   0.158   0.194   4.118 -1.4246 -0.5667  0.7843
 6738SOL    HW220659   0.232   0.203   4.250  0.3588 -0.2392 -0.2030
 6739SOL     OW20660   0.948   2.028   0.519 -1.0331 -0.0111 -0.2864
 6739SOL    HW120661   0.987   1.946   0.489  0.5936 -0.2444  2.1399
 6739SOL    HW220662   1.020   2.091   0.514 -1.0883  0.2518  1.6490
 6740SOL     OW20663   5.813   4.504   5.386  0.2009 -0.0161 -0.0355
 6740SOL    HW120664   5.872   4.506   5.461  1.6475 -3.0586 -0.9624
 6740SOL    HW220665   5.869   4.523   5.311 -0.3816 -1.0031 -0.7405
 6741SOL     OW20666   3.646   4.572   3.508  0.3733  0.2542 -0.0960
 6741SOL    HW120667   3.700   4.510   3.460 -1.3018 -1.6099  0.3153
 6741SOL    HW220668   3.638   4.534   3.596 -0.2443  1.3181  0.3318
 6742SOL     OW20669   5.558   3.863   4.813 -0.4671 -0.1096  0.3208
 6742SOL    HW120670   5.634   3.871   4.755 -1.4986  1.3714 -0.9292
 6742SOL    HW220671   5.586   3.804   4.883  2.0205  0.9115  0.2626
 6743SOL     OW20672   5.686   1.002   0.085  0.7586 -0.0730 -0.2537
 6743SOL    HW120673   5.664   1.005   0.178  2.4942  1.5713  0.1745
 6743SOL    HW220674   5.701   1.093   0.061  1.4309 -0.5691 -1.8820
 6744SOL     OW20675   2.747   4.525   0.661 -0.1738  0.3954 -0.3651
 6744SOL    HW120676   2.807   4.579   0.713  0.4553 -1.5384  1.0266
 6744SOL    HW220677   2.796   4.508   0.580  1.2162 -1.0713  0.7099
 6745SOL     OW20678   4.563   1.734   4.488 -0.0073  0.4252  0.1394
 6745SOL    HW120679   4.582   1.807   4.429  1.1461 -0.5164 -0.6937
 6745SOL    HW220680   4.469   1.742   4.505  0.0082  1.8466 -0.2667
 6746SOL     OW20681   5.014   5.435   0.962 -0.4557 -0.3001  0.1628
 6746SOL    HW120682   4.961   5.368   1.005  1.2987 -1.3910  0.7313
 6746SOL    HW220683   5.099   5.430   1.006 -0.2488  2.3141  0.2217
 6747SOL     OW20684   3.326   5.019   3.718  0.4376  0.0077  0.3889
 6747SOL    HW120685   3.253   5.037   3.777  0.5941  0.9743  0.3032
 6747SOL    HW220686   3.399   5.070   3.753  1.0594 -0.8758  0.4257
 6748SOL     OW20687   5.260   2.340   4.285  0.9445 -0.0264 -0.6761
 6748SOL    HW120688   5.169   2.360   4.263 -0.1517 -1.9690  1.6060
 6748SOL    HW220689   5.300   2.425   4.303 -0.1932  0.9210 -2.3428
 6749SOL     OW20690   3.254   1.406   2.115  0.0622  0.6064  0.0747
 6749SOL    HW120691   3.200   1.359   2.178 -0.8117 -0.0435 -1.1135
 6749SOL    HW220692   3.198   1.478   2.085  0.8868  1.6107  0.8500
 6750SOL     OW20693   4.708   5.745   4.578  0.3267  0.1578  0.2312
 6750SOL    HW120694   4.757   5.825   4.598  2.2982 -1.1918  1.0634
 6750SOL    HW220695   4.733   5.723   4.488 -1.1589  1.0695 -0.4502
 6751SOL     OW20696   5.484   3.994   2.294  0.5265  0.6219  0.0499
 6751SOL    HW120697   5.570   3.986   2.252  0.7713 -0.0009  0.6474
 6751SOL    HW220698   5.442   3.910   2.279  0.3951  0.5920  0.5644
 6752SOL     OW20699   3.588   2.562   1.289 -0.0772 -0.0215 -0.6914
 6752SOL    HW120700   3.629   2.522   1.212  2.2140 -2.3292  1.5043
 6752SOL    HW220701   3.542   2.489   1.331  0.4606  0.6402  1.1420
 6753SOL     OW20702   3.377   2.614   2.663  0.2373 -0.6207 -0.3985
 6753SOL    HW120703   3.350   2.537   2.613 -1.2938  1.0994 -2.3398
 6753SOL    HW220704   3.295   2.658   2.686  1.1197  1.8368 -1.6768
 6754SOL     OW20705   4.482   2.190   5.648 -0.1576 -0.0977  0.4320
 6754SOL    HW120706   4.490   2.266   5.590 -2.4008 -1.0385 -1.2794
 6754SOL    HW220707   4.456   2.118   5.590 -0.1475 -1.6940  2.2881
 6755SOL     OW20708   4.249   5.502   5.365 -0.3762  0.1782 -0.1699
 6755SOL    HW120709   4.323   5.544   5.409 -0.0600  0.1241 -0.6457
 6755SOL    HW220710   4.283   5.477   5.279 -1.3265  1.3843 -0.9242
 6756SOL     OW20711   3.717   3.290   3.518  0.7094 -0.1417 -0.4633
 6756SOL    HW120712   3.754   3.296   3.430  0.2071 -0.7070 -0.7157
 6756SOL    HW220713   3.750   3.207   3.552  1.5114  0.4150  0.1764
 6757SOL     OW20714   4.253   1.037   1.272 -0.0393 -0.0176 -0.3563
 6757SOL    HW120715   4.210   1.112   1.232 -0.5249 -0.1240 -0.0416
 6757SOL    HW220716   4.210   1.027   1.357  0.0013 -0.6704 -0.4073
 6758SOL     OW20717   0.794   3.117   2.613 -0.0240  0.2914 -0.0198
 6758SOL    HW120718   0.700   3.107   2.626  0.1564 -0.2636  0.9198
 6758SOL    HW220719   0.802   3.192   2.553 -1.1013 -0.4504 -1.1456
 6759SOL     OW20720   1.374   5.087   3.966 -0.1277 -0.1276  0.0118
 6759SOL    HW120721   1.351   5.015   3.907 -0.6871  0.4468 -0.4974
 6759SOL    HW220722   1.355   5.166   3.915  0.5317  0.3828  0.5373
 6760SOL     OW20723   4.844   5.128   5.764  0.0420  0.3668 -0.4480
 6760SOL    HW120724   4.841   5.055   5.702 -0.3261 -0.3234  0.3631
 6760SOL    HW220725   4.759   5.127   5.806  0.3314  0.7459  0.1592
 6761SOL     OW20726   3.176   0.869   2.337  0.2598  0.1292  0.6277
 6761SOL    HW120727   3.246   0.900   2.279  1.3732 -0.1773  1.7677
 6761SOL    HW220728   3.155   0.782   2.303 -1.1365  1.0551 -1.0531
 6762SOL     OW20729   3.477   1.653   2.002 -0.4141  0.0743  0.2955
 6762SOL    HW120730   3.539   1.652   2.075 -2.5367  0.4080  2.2302
 6762SOL    HW220731   3.502   1.579   1.948  1.4270 -0.0075  1.1797
 6763SOL     OW20732   0.939   5.035   4.372  0.3543  0.9031 -0.1486
 6763SOL    HW120733   0.975   4.985   4.445  1.7415  1.1588 -0.6404
 6763SOL    HW220734   0.875   5.094   4.413 -1.9712 -1.7410  0.3647
 6764SOL     OW20735   4.488   0.404   0.932  0.0157 -0.1686  0.5176
 6764SOL    HW120736   4.566   0.353   0.910 -0.4443 -0.7555  0.2169
 6764SOL    HW220737   4.515   0.495   0.922  0.9533 -0.3278  1.3966
 6765SOL     OW20738   2.116   2.239   4.716  0.3562 -0.1572  0.2383
 6765SOL    HW120739   2.152   2.161   4.674  1.6412 -1.2022  3.0326
 6765SOL    HW220740   2.151   2.312   4.665  1.7982 -1.3276 -0.5264
 6766SOL     OW20741   1.591   3.680   5.061  0.1524  0.4812  0.4935
 6766SOL    HW120742   1.541   3.761   5.068 -1.5565 -0.5172  0.2933
 6766SOL    HW220743   1.650   3.682   5.136  0.5681  2.1672  0.1653
 6767SOL     OW20744   4.153   3.030   5.719  0.7655  0.6058  0.4898
 6767SOL    HW120745   4.063   3.044   5.691  0.4938  2.2969  2.0255
 6767SOL    HW220746   4.164   2.935   5.719 -2.0287  0.1242  3.1971
 6768SOL     OW20747   0.656   4.769   5.434  0.2514  0.4176  0.9886
 6768SOL    HW120748   0.574   4.736   5.472 -0.2647  1.5787  0.9206
 6768SOL    HW220749   0.657   4.733   5.345  1.9304 -3.1267  2.2453
 6769SOL     OW20750   5.197   5.373   1.747 -0.0638 -0.1589 -0.3199
 6769SOL    HW120751   5.204   5.337   1.658 -0.4963 -0.2102 -0.3352
 6769SOL    HW220752   5.103   5.368   1.767  0.2455 -2.1609  0.9645
 6770SOL     OW20753   0.489   2.573   5.716  0.2863  0.4414  0.8167
 6770SOL    HW120754   0.444   2.489   5.722  0.2608  0.4275  0.4274
 6770SOL    HW220755   0.432   2.629   5.664 -0.2447  1.0763  2.0398
 6771SOL     OW20756   3.877   1.749   0.950  0.0266  0.2805  0.0037
 6771SOL    HW120757   3.905   1.840   0.939 -0.3798  0.3700 -0.3454
 6771SOL    HW220758   3.884   1.711   0.862  1.6855 -0.4727  0.4315
 6772SOL     OW20759   4.941   2.442   5.074  0.1665  0.1706  0.2430
 6772SOL    HW120760   4.965   2.486   4.992 -0.1924  1.9789  1.0598
 6772SOL    HW220761   4.868   2.385   5.051  0.6108  0.0204 -0.8468
 6773SOL     OW20762   1.660   2.541   1.871  0.4651 -0.0664  0.3184
 6773SOL    HW120763   1.589   2.601   1.895  2.2696  2.3582  0.0788
 6773SOL    HW220764   1.709   2.528   1.952  0.0161 -1.4030  0.3980
 6774SOL     OW20765   2.137   3.588   4.056 -0.3750 -0.1709  0.1101
 6774SOL    HW120766   2.073   3.542   4.111 -0.4533  0.1571  0.2952
 6774SOL    HW220767   2.109   3.569   3.966 -1.0039  0.3262  0.1893
 6775SOL     OW20768   5.945   6.121   5.574  0.1753  0.4143  0.2804
 6775SOL    HW120769   5.982   6.065   5.505 -1.9153  1.7071 -2.0618
 6775SOL    HW220770   5.860   6.082   5.594 -1.4944  2.7547 -1.6661
 6776SOL     OW20771   3.839   2.788   2.651 -0.6822 -0.2775  0.5943
 6776SOL    HW120772   3.753   2.801   2.612 -0.6279 -1.4248  0.0575
 6776SOL    HW220773   3.892   2.748   2.582  1.5869  4.0717 -0.5620
 6777SOL     OW20774   4.897   0.271   3.695 -0.6532 -0.5719  0.2803
 6777SOL    HW120775   4.859   0.329   3.761 -0.6920 -0.0651 -0.1806
 6777SOL    HW220776   4.992   0.278   3.707 -0.4563  2.2710 -1.9547
 6778SOL     OW20777   4.153   3.388   4.532 -0.5669 -0.0794 -0.2726
 6778SOL    HW120778   4.145   3.294   4.515 -1.1942 -0.5301  2.0955
 6778SOL    HW220779   4.246   3.402   4.546 -0.7043 -0.8991  1.7998
 6779SOL     OW20780   2.777   2.714   2.814 -0.2305  0.2371 -0.1023
 6779SOL    HW120781   2.860   2.743   2.852 -0.4771 -1.5847  2.0614
 6779SOL    HW220782   2.720   2.790   2.822 -0.0023  0.2330  2.5551
 6780SOL     OW20783   4.776   4.928   4.619 -0.3188 -0.4874  0.5101
 6780SOL    HW120784   4.785   4.954   4.527  0.2197  0.3657  0.7877
 6780SOL    HW220785   4.785   4.833   4.618 -3.2786 -0.8637 -0.6652
 6781SOL     OW20786   0.935   4.372   2.656 -0.5565 -0.0507 -0.1644
 6781SOL    HW120787   0.917   4.401   2.745  0.9781  0.6188 -0.0317
 6781SOL    HW220788   0.864   4.313   2.634 -0.8472 -0.3762  1.5723
 6782SOL     OW20789   2.099   2.799   1.147 -0.2926 -0.1222 -0.3784
 6782SOL    HW120790   2.004   2.792   1.155 -0.4932  1.3730 -1.1261
 6782SOL    HW220791   2.131   2.709   1.157 -1.7928 -0.6660 -0.2860
 6783SOL     OW20792   3.288   4.769   5.566 -0.2480 -0.3650  0.2089
 6783SOL    HW120793   3.245   4.703   5.512  0.0649 -0.0497 -0.4496
 6783SOL    HW220794   3.378   4.771   5.533 -0.0349 -0.2120  0.7967
 6784SOL     OW20795   1.514   1.101   1.340 -0.3950  0.0860 -0.3585
 6784SOL    HW120796   1.490   1.132   1.428  0.4990  0.4262 -0.2152
 6784SOL    HW220797   1.486   1.010   1.338  1.9898 -0.7860  1.3109
 6785SOL     OW20798   3.449   4.141   1.001  0.3616 -0.4196  0.4442
 6785SOL    HW120799   3.524   4.136   0.941  0.6686 -0.4029  0.8177
 6785SOL    HW220800   3.398   4.062   0.982  0.7711 -0.7190  0.5645
 6786SOL     OW20801   6.046   1.297   5.763 -0.2653 -0.5702 -0.2784
 6786SOL    HW120802   6.004   1.341   5.689 -1.2387 -1.6094 -0.3795
 6786SOL    HW220803   5.976   1.289   5.829  0.8866  1.4574  1.2978
 6787SOL     OW20804   1.772   1.399   3.486 -0.2211 -0.1069  0.6157
 6787SOL    HW120805   1.678   1.416   3.485 -0.4619 -1.1582  2.0783
 6787SOL    HW220806   1.796   1.402   3.579  1.1958  0.1604  0.2674
 6788SOL     OW20807   4.558   5.400   5.366 -0.3351 -0.1063  0.2139
 6788SOL    HW120808   4.592   5.324   5.413 -0.5884  0.0283  0.6227
 6788SOL    HW220809   4.575   5.474   5.425 -0.0724  0.1539 -0.1888
 6789SOL     OW20810   0.374   0.796   5.110 -0.2340  0.7608  0.0074
 6789SOL    HW120811   0.382   0.714   5.159 -2.2356 -0.5192 -1.6435
 6789SOL    HW220812   0.399   0.773   5.020  1.8109  2.6572  0.0182
 6790SOL     OW20813   5.408   5.792   0.763 -0.0854  0.4148 -0.6705
 6790SOL    HW120814   5.393   5.771   0.855  1.4007  2.7293  0.1829
 6790SOL    HW220815   5.330   5.760   0.718 -1.2336 -0.0236  1.5150
 6791SOL     OW20816   1.594   2.972   2.871 -0.2781 -0.3943  0.1440
 6791SOL    HW120817   1.556   3.011   2.949  1.6806  0.5555  0.7013
 6791SOL    HW220818   1.570   3.031   2.800  1.7869  1.4004  0.8216
 6792SOL     OW20819   4.340   6.123   0.442 -0.0960  0.0162  0.2439
 6792SOL    HW120820   4.424   6.131   0.397 -0.8127  4.0518 -0.8264
 6792SOL    HW220821   4.357   6.160   0.529 -0.6015  0.1942  0.2676
 6793SOL     OW20822   1.520   1.682   2.095  0.0186  0.2782  0.1485
 6793SOL    HW120823   1.529   1.605   2.152 -0.9374  1.3818  1.8937
 6793SOL    HW220824   1.596   1.736   2.116 -0.0874  0.4761  0.0256
 6794SOL     OW20825   0.203   1.438   3.882 -0.1062 -0.1592 -0.1624
 6794SOL    HW120826   0.298   1.441   3.877 -0.1359 -0.7400 -2.3271
 6794SOL    HW220827   0.184   1.380   3.955  1.1130  1.8528  1.8624
 6795SOL     OW20828   0.437   0.089   2.549  0.1367 -1.0564 -0.0545
 6795SOL    HW120829   0.465   0.136   2.627 -1.3385  0.0927 -0.1792
 6795SOL    HW220830   0.504   0.021   2.537  0.9904 -0.5561  1.5448
 6796SOL     OW20831   2.022   4.201   4.423 -0.2279 -0.4231 -0.2209
 6796SOL    HW120832   1.972   4.166   4.349 -1.0261  0.3380 -0.0592
 6796SOL    HW220833   2.030   4.127   4.483 -0.6842 -0.7131 -0.5057
 6797SOL     OW20834   2.941   0.605   4.465  0.8668  0.0450 -0.2781
 6797SOL    HW120835   2.951   0.684   4.411 -0.0579 -0.5647 -1.4107
 6797SOL    HW220836   3.024   0.597   4.511  1.4548  0.9839 -1.1063
 6798SOL     OW20837   0.537   3.972   1.138 -0.4407  0.9182 -0.1074
 6798SOL    HW120838   0.538   3.943   1.229  0.8064 -0.9549 -0.6416
 6798SOL    HW220839   0.628   3.998   1.120 -0.7442  1.5889 -0.7143
 6799SOL     OW20840   2.762   6.093   0.220  0.3638  0.2392 -0.0864
 6799SOL    HW120841   2.760   6.022   0.155  3.7904 -0.3743  0.2827
 6799SOL    HW220842   2.800   6.053   0.298  0.0496  1.9206  0.9815
 6800SOL     OW20843   0.204   5.289   4.991  0.1374 -0.0747 -0.4536
 6800SOL    HW120844   0.110   5.303   5.002 -0.0303 -0.4093 -1.3855
 6800SOL    HW220845   0.211   5.214   4.932  0.9940 -0.3326 -0.0487
 6801SOL     OW20846   1.226   4.843   0.176  0.1103  0.3796  0.3276
 6801SOL    HW120847   1.199   4.754   0.198 -1.0957  0.7741  0.5177
 6801SOL    HW220848   1.263   4.878   0.257 -0.2789  0.3600  0.5160
 6802SOL     OW20849   1.291   4.982   5.725 -0.2058 -0.4340 -0.3201
 6802SOL    HW120850   1.199   5.005   5.711  0.2264  0.4791 -1.9548
 6802SOL    HW220851   1.293   4.887   5.720 -1.3399 -0.6124  1.7914
 6803SOL     OW20852   2.410   1.709   3.000 -0.3421  0.2369  0.1820
 6803SOL    HW120853   2.320   1.678   2.984 -0.5961  0.5662  0.8843
 6803SOL    HW220854   2.456   1.693   2.919 -0.9070 -0.4315 -0.0196
 6804SOL     OW20855   3.247   0.673   1.480 -0.4189  0.3269  0.1144
 6804SOL    HW120856   3.252   0.585   1.443 -2.3633 -0.3228  1.2399
 6804SOL    HW220857   3.329   0.715   1.453  0.3297 -1.6302 -0.8865
 6805SOL     OW20858   4.950   0.315   6.111  0.3236  0.2326  0.1591
 6805SOL    HW120859   5.044   0.305   6.095  0.3621 -0.0768  0.5728
 6805SOL    HW220860   4.944   0.375   6.185  0.1798  0.6210 -0.1634
 6806SOL     OW20861   1.945   0.533   5.573 -0.0251  0.0092  0.7103
 6806SOL    HW120862   1.890   0.495   5.641 -0.1706 -0.5759  0.2686
 6806SOL    HW220863   1.891   0.533   5.495 -0.0928  1.3115  0.7428
 6807SOL     OW20864   1.348   4.287   1.112  0.5952 -0.0317  0.5242
 6807SOL    HW120865   1.392   4.213   1.153  1.1918  1.2733  2.4059
 6807SOL    HW220866   1.268   4.299   1.163 -0.4902 -0.5638 -1.0053
 6808SOL     OW20867   5.976   0.210   3.485  0.1944  0.7053  0.3901
 6808SOL    HW120868   5.883   0.199   3.505 -0.0752  0.5149 -0.8801
 6808SOL    HW220869   5.980   0.286   3.426  0.7233  0.1603 -0.3041
 6809SOL     OW20870   6.097   0.856   5.661 -0.4917 -0.3803 -0.6199
 6809SOL    HW120871   6.094   0.777   5.714  1.7658 -0.1415 -0.0712
 6809SOL    HW220872   6.114   0.825   5.572 -1.0549 -0.5688 -0.6693
 6810SOL     OW20873   2.376   4.788   4.768 -0.0325  0.5043  0.5965
 6810SOL    HW120874   2.412   4.713   4.816  0.0867 -0.3125 -0.7207
 6810SOL    HW220875   2.423   4.788   4.685 -2.6909 -0.3464 -1.0400
 6811SOL     OW20876   5.554   4.662   3.572 -0.0271 -0.0027  0.1365
 6811SOL    HW120877   5.632   4.615   3.542  0.6724  1.3922 -0.2624
 6811SOL    HW220878   5.569   4.753   3.549 -3.0047 -0.0235 -2.5173
 6812SOL     OW20879   2.540   3.031   0.723  0.5566  0.0286  0.1083
 6812SOL    HW120880   2.588   2.959   0.765 -0.5051 -1.0485 -0.4603
 6812SOL    HW220881   2.578   3.110   0.760  1.2358 -0.8404  1.3339
 6813SOL     OW20882   4.400   2.207   4.820  0.0810  0.0766  0.1466
 6813SOL    HW120883   4.488   2.175   4.802 -0.0724 -0.5002  0.4280
 6813SOL    HW220884   4.346   2.172   4.748 -0.1814 -0.7273  0.7215
 6814SOL     OW20885   6.079   5.098   4.940 -0.7990  0.0428  0.3867
 6814SOL    HW120886   6.007   5.038   4.961 -1.2284  1.0077  1.8389
 6814SOL    HW220887   6.035   5.180   4.915 -0.2107  0.4714  0.7362
 6815SOL     OW20888   5.504   0.083   0.958  0.0492  0.2649  0.4861
 6815SOL    HW120889   5.512  -0.010   0.936  1.4696  0.4072  0.3132
 6815SOL    HW220890   5.545   0.091   1.043 -0.3466  0.6924  0.6375
 6816SOL     OW20891   4.806   1.172   5.132 -0.3779  0.0353 -0.1627
 6816SOL    HW120892   4.863   1.097   5.149 -2.7893 -1.7372  0.8755
 6816SOL    HW220893   4.719   1.141   5.159 -1.6760  2.8625 -0.7812
 6817SOL     OW20894   6.024   4.962   5.225  0.1762 -0.2833 -0.0698
 6817SOL    HW120895   6.072   4.922   5.298 -1.8197  1.3322  2.3140
 6817SOL    HW220896   5.938   4.921   5.227 -0.7125  1.4924  0.1136
 6818SOL     OW20897   5.013   0.606   0.987 -0.3733 -0.0284 -0.0354
 6818SOL    HW120898   5.039   0.581   1.076 -1.8828 -0.5617  0.2871
 6818SOL    HW220899   5.008   0.702   0.990  2.6726  0.2302 -0.4840
 6819SOL     OW20900   0.881   5.771   3.162  0.0792 -0.1749  0.2334
 6819SOL    HW120901   0.807   5.719   3.132  3.0924 -2.8172 -3.7051
 6819SOL    HW220902   0.909   5.729   3.244 -1.9804  0.2566  1.2338
 6820SOL     OW20903   3.953   0.298   0.930  0.5402 -0.0813  0.7138
 6820SOL    HW120904   4.001   0.228   0.885  1.5066 -0.2726  1.9939
 6820SOL    HW220905   3.861   0.273   0.921  0.6748 -0.0316 -1.2452
 6821SOL     OW20906   5.875   3.743   0.726  0.4736  0.0355  0.2611
 6821SOL    HW120907   5.848   3.769   0.814  1.5257  2.0180  0.0589
 6821SOL    HW220908   5.798   3.701   0.689 -1.0693  2.0110  1.0503
 6822SOL     OW20909   2.782   2.264   0.428 -0.0604 -0.0067 -0.2654
 6822SOL    HW120910   2.814   2.188   0.477 -1.3344 -0.3825  0.0258
 6822SOL    HW220911   2.725   2.227   0.361 -0.8078  0.7017 -0.0283
 6823SOL     OW20912   0.975   5.607   0.100  0.0099 -0.3400 -0.3424
 6823SOL    HW120913   0.911   5.627   0.032 -1.9826 -1.2013  1.1638
 6823SOL    HW220914   1.017   5.692   0.119 -0.5737  0.2220 -1.4395
 6824SOL     OW20915   1.921   4.132   0.043  0.3401 -0.0054  0.5942
 6824SOL    HW120916   1.864   4.151   0.117  1.0392  0.2768  1.0786
 6824SOL    HW220917   2.006   4.114   0.083  0.7545  0.2485 -0.1468
 6825SOL     OW20918   3.568   0.229   5.680 -0.4263  0.1163 -0.1243
 6825SOL    HW120919   3.540   0.244   5.770  0.0578 -0.3160  0.1016
 6825SOL    HW220920   3.645   0.173   5.687 -0.5786 -0.1979 -0.8197
 6826SOL     OW20921   1.720   4.792   3.590 -0.1849 -0.1962 -0.5865
 6826SOL    HW120922   1.725   4.872   3.539  1.1813 -0.5756 -1.0989
 6826SOL    HW220923   1.650   4.741   3.549 -1.6424  1.0450  0.2626
 6827SOL     OW20924   0.596   4.228   2.294  0.1150 -0.0039 -0.2473
 6827SOL    HW120925   0.538   4.152   2.298  1.2680 -0.8445  2.4583
 6827SOL    HW220926   0.680   4.192   2.264 -0.0887  0.7880 -1.8671
 6828SOL     OW20927   0.272   2.613   3.987 -0.0081  0.4061 -0.4399
 6828SOL    HW120928   0.244   2.677   4.053  1.9314  0.4056  0.4493
 6828SOL    HW220929   0.222   2.534   4.009  1.4156  0.0443  1.8349
 6829SOL     OW20930   4.905   1.314   1.935  0.0190 -0.0514 -0.5548
 6829SOL    HW120931   4.832   1.307   1.873 -1.0453  0.7757  0.5506
 6829SOL    HW220932   4.870   1.366   2.007  1.2650 -0.8612  0.6830
 6830SOL     OW20933   2.063   3.369   0.297  0.1310  0.3345 -0.7384
 6830SOL    HW120934   1.977   3.328   0.282 -0.2887  1.0864 -0.4149
 6830SOL    HW220935   2.115   3.343   0.220 -0.2446 -0.4804 -0.7270
 6831SOL     OW20936   1.996   4.154   3.907 -0.7006  0.2844  0.2629
 6831SOL    HW120937   2.087   4.175   3.928 -0.1919 -1.8209  0.3688
 6831SOL    HW220938   1.977   4.204   3.828  1.1658 -0.6110 -0.8201
 6832SOL     OW20939   4.700   4.361   1.473  0.4046 -0.0906 -0.2391
 6832SOL    HW120940   4.741   4.415   1.405 -0.3050 -0.8543 -1.2994
 6832SOL    HW220941   4.607   4.365   1.453  0.3472 -1.8318 -0.4540
 6833SOL     OW20942   0.091   0.852   1.222  0.7185  0.0473  0.2431
 6833SOL    HW120943   0.136   0.768   1.208  1.2958  0.1979  1.0938
 6833SOL    HW220944   0.130   0.886   1.302  1.4155  1.7553 -0.7757
 6834SOL     OW20945   1.091   4.417   1.891 -0.4316 -0.0728  0.5912
 6834SOL    HW120946   0.996   4.427   1.895 -0.7526 -1.5809 -1.4238
 6834SOL    HW220947   1.122   4.499   1.853 -0.9600  0.3207  0.9936
 6835SOL     OW20948   0.343   5.620   5.398  0.2357  0.0859 -0.1361
 6835SOL    HW120949   0.428   5.653   5.370  1.1730 -1.7029  0.4580
 6835SOL    HW220950   0.341   5.529   5.369 -1.5000  0.0947 -0.1648
 6836SOL     OW20951   1.351   0.771   3.165  0.1603 -0.0583  0.0784
 6836SOL    HW120952   1.308   0.836   3.221 -0.6332 -0.0110 -0.5794
 6836SOL    HW220953   1.313   0.687   3.192  0.9630 -0.2339  0.7155
 6837SOL     OW20954   4.874   4.825   1.066  0.3129 -0.1830 -0.2711
 6837SOL    HW120955   4.934   4.887   1.023  0.3104 -0.2892 -0.4289
 6837SOL    HW220956   4.896   4.740   1.027  0.9384 -0.4266  0.6043
 6838SOL     OW20957   4.455   3.326   3.086 -0.8334 -0.4168 -0.2021
 6838SOL    HW120958   4.434   3.265   3.016  1.3773 -0.5920 -0.8047
 6838SOL    HW220959   4.468   3.410   3.042 -2.4351  0.2078  0.4396
 6839SOL     OW20960   0.901   1.227   2.552 -0.0947  0.3266 -0.1541
 6839SOL    HW120961   0.847   1.236   2.473  2.1897  3.1345 -1.6044
 6839SOL    HW220962   0.972   1.170   2.526  0.0702  0.3409  0.2563
 6840SOL     OW20963   5.775   3.108   5.029  0.9075 -0.4781 -0.0179
 6840SOL    HW120964   5.836   3.090   4.957  1.7967  0.5659  0.4586
 6840SOL    HW220965   5.813   3.182   5.075  0.9593 -1.8217  2.2355
 6841SOL     OW20966   1.762   5.645   1.297  0.2011 -0.0608  0.5583
 6841SOL    HW120967   1.741   5.553   1.280  1.6349 -0.4894  1.0558
 6841SOL    HW220968   1.753   5.687   1.211 -1.7497 -0.3723  0.5575
 6842SOL     OW20969   4.791   3.653   5.229  0.5391  0.1553  0.0872
 6842SOL    HW120970   4.780   3.588   5.298  1.7025  0.7488  0.8708
 6842SOL    HW220971   4.793   3.603   5.148  0.3351 -0.6682  0.5833
 6843SOL     OW20972   4.252   0.551   4.897 -0.6106  0.0823 -0.1297
 6843SOL    HW120973   4.307   0.591   4.964  1.8966  0.8830 -2.4791
 6843SOL    HW220974   4.192   0.620   4.869 -0.6266  0.2010  0.1956
 6844SOL     OW20975   4.953   0.540   0.156 -0.0633  0.4338  0.8101
 6844SOL    HW120976   5.003   0.608   0.200  2.2380 -1.7641  1.8515
 6844SOL    HW220977   4.939   0.473   0.223 -3.1754  0.2304  0.1191
 6845SOL     OW20978   0.315   3.235   1.782 -0.1695 -0.3141 -0.2291
 6845SOL    HW120979   0.312   3.141   1.798  1.2269 -0.5163 -1.0020
 6845SOL    HW220980   0.397   3.264   1.823  0.3851  0.2157 -1.6570
 6846SOL     OW20981   2.003   0.526   4.026  0.3719  0.4268  0.1309
 6846SOL    HW120982   1.915   0.495   4.005  0.8293  0.0485 -1.3546
 6846SOL    HW220983   2.009   0.519   4.121 -0.0013 -2.9326  0.0204
 6847SOL     OW20984   5.877   1.844   0.628  0.0749 -0.0512 -0.0474
 6847SOL    HW120985   5.882   1.940   0.625  1.7655 -0.1408 -1.3063
 6847SOL    HW220986   5.875   1.823   0.722  1.3428  1.1575  0.2838
 6848SOL     OW20987   3.769   5.329   5.217 -0.5047 -0.5283  0.0887
 6848SOL    HW120988   3.807   5.367   5.296 -2.2503  0.1985  0.6113
 6848SOL    HW220989   3.830   5.258   5.193  1.3624  0.8178  0.6341
 6849SOL     OW20990   3.052   1.785   0.435 -0.0385 -0.2425 -0.1529
 6849SOL    HW120991   3.020   1.874   0.421  2.7267  1.1836  1.5356
 6849SOL    HW220992   3.021   1.735   0.360  0.6778  2.8421 -2.6911
 6850SOL     OW20993   5.220   5.425   4.383 -0.0977 -0.3865 -0.1437
 6850SOL    HW120994   5.201   5.484   4.455  0.0389 -0.7112  0.1642
 6850SOL    HW220995   5.230   5.339   4.424  1.6295 -0.3055 -0.3172
 6851SOL     OW20996   0.352   3.595   5.756  0.2126  0.6520 -0.4818
 6851SOL    HW120997   0.432   3.613   5.706  0.4736 -1.8854 -1.1064
 6851SOL    HW220998   0.286   3.576   5.689 -1.0071  2.8144  0.0223
 6852SOL     OW20999   4.512   4.287   1.702 -0.0823 -0.2335 -0.0427
 6852SOL    HW121000   4.462   4.216   1.661 -0.0995 -0.8112  0.9305
 6852SOL    HW221001   4.574   4.315   1.635  0.4981 -1.7487 -0.1960
 6853SOL     OW21002   4.929   3.883   2.323 -0.2604 -0.3498 -0.3719
 6853SOL    HW121003   4.902   3.792   2.337 -2.3238  0.3004  0.2175
 6853SOL    HW221004   5.002   3.896   2.383 -1.5952 -0.9249  1.4717
 6854SOL     OW21005   3.828   1.634   0.653 -0.0628 -0.0121  0.1719
 6854SOL    HW121006   3.923   1.643   0.661 -0.2118  0.6361  1.6422
 6854SOL    HW221007   3.815   1.549   0.610  1.1761 -0.2828  0.2950
 6855SOL     OW21008   0.088   2.347   3.072 -0.1849 -0.0782 -0.1705
 6855SOL    HW121009   0.124   2.348   2.984  2.7914 -1.5198  0.8861
 6855SOL    HW221010   0.114   2.430   3.111  0.1394 -0.2221 -0.0782
 6856SOL     OW21011   0.671   2.498   4.030 -0.2907  0.1066 -0.3421
 6856SOL    HW121012   0.604   2.430   4.026 -0.6406  0.4747 -0.9060
 6856SOL    HW221013   0.645   2.562   3.963  0.8651  0.0279 -0.8972
 6857SOL     OW21014   1.829   0.771   6.090  0.0251 -0.2639  0.0914
 6857SOL    HW121015   1.857   0.860   6.108  1.2904 -1.0907  2.6718
 6857SOL    HW221016   1.911   0.724   6.071 -0.6411 -0.8591 -1.4323
 6858SOL     OW21017   1.643   2.518   0.354  0.3465 -0.1689 -0.0298
 6858SOL    HW121018   1.581   2.448   0.334 -1.7681  1.5859  0.0354
 6858SOL    HW221019   1.694   2.529   0.274  0.8564 -1.8322  0.0170
 6859SOL     OW21020   3.446   5.510   5.895 -0.5502  0.4079  0.1947
 6859SOL    HW121021   3.501   5.448   5.848  0.2727 -0.4664  2.1623
 6859SOL    HW221022   3.416   5.572   5.829  0.9850 -0.4071 -1.3326
 6860SOL     OW21023   3.407   0.818   4.984 -0.0881 -0.7706  0.0623
 6860SOL    HW121024   3.314   0.795   4.982 -0.5790  0.9918  0.3723
 6860SOL    HW221025   3.450   0.752   4.930 -1.4207 -2.0063  0.4539
 6861SOL     OW21026   4.286   0.325   3.290  0.2165  0.0652 -0.4125
 6861SOL    HW121027   4.284   0.316   3.385 -1.4787 -0.0666 -0.4431
 6861SOL    HW221028   4.376   0.301   3.266  0.4734 -0.5611  1.0723
 6862SOL     OW21029   5.203   3.535   2.216 -0.3553 -0.1945  0.2913
 6862SOL    HW121030   5.133   3.472   2.229 -1.1996  0.7786  0.5609
 6862SOL    HW221031   5.199   3.557   2.123 -0.4774 -0.0565  0.3294
 6863SOL     OW21032   2.424   2.350   3.630  0.0475 -0.0318 -0.1603
 6863SOL    HW121033   2.362   2.278   3.643  1.9834 -2.0307 -1.2324
 6863SOL    HW221034   2.408   2.379   3.540  0.8042 -0.7576 -0.5461
 6864SOL     OW21035   3.733   4.644   0.418  0.4351  0.2538  0.1650
 6864SOL    HW121036   3.693   4.707   0.359 -1.0026 -0.1920  0.6079
 6864SOL    HW221037   3.818   4.625   0.379 -0.4126  0.0494 -1.7171
 6865SOL     OW21038   5.382   5.982   1.094  0.0163 -0.4043  0.2828
 6865SOL    HW121039   5.350   5.907   1.145 -0.6786 -2.3152 -2.7119
 6865SOL    HW221040   5.306   6.038   1.084 -0.2808 -0.8589 -0.0360
 6866SOL     OW21041   4.301   0.135   5.531 -0.2344  0.1384  0.5983
 6866SOL    HW121042   4.231   0.135   5.596 -1.0236 -2.0565 -0.1422
 6866SOL    HW221043   4.322   0.227   5.518 -1.3610  0.7304  2.5507
 6867SOL     OW21044   5.321   4.525   3.617 -0.3108  0.2913  0.3113
 6867SOL    HW121045   5.315   4.540   3.711 -1.4180  0.1293  0.2814
 6867SOL    HW221046   5.402   4.569   3.590  1.5199 -1.9412  1.7715
 6868SOL     OW21047   4.992   5.242   4.924  0.0096  0.9550 -0.2023
 6868SOL    HW121048   4.972   5.262   5.015  0.0260 -0.3914  0.1298
 6868SOL    HW221049   5.064   5.179   4.928  1.6992  2.7084 -1.2540
 6869SOL     OW21050   1.442   2.705   5.692  0.1408 -0.5820  0.3069
 6869SOL    HW121051   1.434   2.627   5.747  0.8634 -0.7411  0.2048
 6869SOL    HW221052   1.466   2.775   5.753  0.2725 -0.6135  0.2926
 6870SOL     OW21053   1.733   3.365   3.389 -0.6422  0.1657  0.1693
 6870SOL    HW121054   1.815   3.380   3.436  0.5402 -0.7390 -1.4951
 6870SOL    HW221055   1.684   3.303   3.444 -0.0917  0.4922  1.0398
 6871SOL     OW21056   3.235   0.171   5.674  0.4193 -0.0298  0.0076
 6871SOL    HW121057   3.292   0.226   5.728  0.9966  0.1524 -0.7579
 6871SOL    HW221058   3.250   0.203   5.584  1.0569 -1.6662 -0.5041
 6872SOL     OW21059   0.865   2.048   2.801  0.4085 -0.1324 -0.0321
 6872SOL    HW121060   0.943   2.024   2.753  1.1831 -0.8258  1.4938
 6872SOL    HW221061   0.898   2.094   2.878 -0.5350 -1.6998  1.3910
 6873SOL     OW21062   2.641   5.929   1.172 -0.1430 -0.4528 -0.8277
 6873SOL    HW121063   2.712   5.890   1.223  1.1911  3.2686  0.4863
 6873SOL    HW221064   2.563   5.914   1.224  0.7142  0.6244  0.8418
 6874SOL     OW21065   4.254   3.091   1.290  0.3361 -0.3134  0.4476
 6874SOL    HW121066   4.197   3.130   1.356  0.0507  1.7400 -0.9421
 6874SOL    HW221067   4.196   3.075   1.215  1.2084  0.0102 -0.3048
 6875SOL     OW21068   2.654   4.173   1.025 -0.0452 -0.1494 -0.1755
 6875SOL    HW121069   2.696   4.195   1.108  1.5063 -0.8278 -0.7310
 6875SOL    HW221070   2.720   4.196   0.959 -1.1310  0.0894 -1.2087
 6876SOL     OW21071   4.525   1.465   5.838 -0.6814 -0.3120 -0.0365
 6876SOL    HW121072   4.503   1.551   5.874 -0.7873 -0.1956 -0.3700
 6876SOL    HW221073   4.581   1.484   5.763 -0.7695 -0.5295 -0.1596
 6877SOL     OW21074   1.514   0.584   2.636 -0.3843  0.7378  0.1280
 6877SOL    HW121075   1.508   0.545   2.723  1.8510  1.9375  0.9147
 6877SOL    HW221076   1.478   0.518   2.577 -1.8648 -0.1414  1.9335
 6878SOL     OW21077   0.669   5.545   0.674 -0.1661 -0.0784 -0.0563
 6878SOL    HW121078   0.724   5.591   0.738  0.9044  0.8762 -1.5916
 6878SOL    HW221079   0.715   5.463   0.658 -2.4811 -2.2928  3.2847
 6879SOL     OW21080   5.670   2.958   3.299  0.2548 -0.0332 -0.5906
 6879SOL    HW121081   5.626   2.979   3.216 -0.2151 -1.3501 -0.6918
 6879SOL    HW221082   5.704   2.870   3.287 -1.1676 -0.8810  1.1480
 6880SOL     OW21083   2.690   0.988   4.180 -0.1590 -0.2400  0.1740
 6880SOL    HW121084   2.603   0.970   4.216 -1.2411  0.5144 -1.8649
 6880SOL    HW221085   2.700   1.083   4.189 -0.0881 -0.1586 -0.6428
 6881SOL     OW21086   5.927   3.938   1.802  0.0617 -0.2803 -0.4152
 6881SOL    HW121087   5.870   3.868   1.836 -0.0024 -0.6216 -1.2037
 6881SOL    HW221088   5.867   3.997   1.756  0.2816 -0.3608 -0.8031
 6882SOL     OW21089   0.689   0.045   0.069  0.0800 -0.7860 -0.7282
 6882SOL    HW121090   0.664   0.125   0.023  0.5500 -0.5777 -0.6189
 6882SOL    HW221091   0.605   0.004   0.093 -0.1716  0.3967  0.4820
 6883SOL     OW21092   0.174   0.464   5.115 -0.4276 -0.2274  0.2188
 6883SOL    HW121093   0.145   0.373   5.108 -1.2709 -0.0569  1.2815
 6883SOL    HW221094   0.138   0.507   5.038 -1.1704 -0.5131  0.3976
 6884SOL     OW21095   0.484   1.231   4.617  0.6797  0.0867  0.2151
 6884SOL    HW121096   0.526   1.194   4.695  0.1430  2.0705  1.5234
 6884SOL    HW221097   0.554   1.279   4.573  1.2313 -1.8393 -1.1640
 6885SOL     OW21098   0.004   5.151   3.912 -0.4512 -0.1687  0.0002
 6885SOL    HW121099   0.045   5.130   3.828 -0.0749  2.1097 -0.4396
 6885SOL    HW221100  -0.089   5.132   3.899 -0.4501  0.4730 -1.0610
 6886SOL     OW21101   3.721   4.563   0.799 -0.0160 -0.7307  0.6467
 6886SOL    HW121102   3.808   4.543   0.763 -0.0925 -0.9041  0.5571
 6886SOL    HW221103   3.738   4.586   0.891  0.3812  1.3183  0.1109
 6887SOL     OW21104   3.037   4.682   0.670 -0.1757  0.2785  0.3813
 6887SOL    HW121105   3.114   4.710   0.719  0.3334 -0.8446  0.2668
 6887SOL    HW221106   3.071   4.617   0.608 -1.3344 -0.8788  0.9225
 6888SOL     OW21107   4.541   1.074   2.406  0.5143  0.0689  0.2132
 6888SOL    HW121108   4.526   1.045   2.496  0.6553 -0.8443 -0.0513
 6888SOL    HW221109   4.635   1.059   2.392  0.3597 -0.4282 -0.3070
 6889SOL     OW21110   0.630   5.375   2.957  0.5040  0.1127  0.4583
 6889SOL    HW121111   0.574   5.452   2.965  0.9906  0.5992 -0.6261
 6889SOL    HW221112   0.642   5.345   3.047 -2.1628 -0.5147  0.7101
 6890SOL     OW21113   5.882   1.778   4.563  0.0105  0.4093  0.6477
 6890SOL    HW121114   5.859   1.870   4.554  1.3325  0.8081  1.0523
 6890SOL    HW221115   5.808   1.730   4.525 -0.8543  1.6174  0.7639
 6891SOL     OW21116   5.749   6.085   2.767 -0.1536  0.4602 -0.3081
 6891SOL    HW121117   5.695   6.048   2.837  0.7829 -2.4428 -0.9825
 6891SOL    HW221118   5.685   6.117   2.703 -1.1064 -1.3799 -0.3481
 6892SOL     OW21119   1.574   2.014   2.070 -0.0898 -0.8869 -0.3568
 6892SOL    HW121120   1.575   1.958   2.147  0.4048 -1.1288 -0.5291
 6892SOL    HW221121   1.633   2.087   2.092  0.4455 -1.2101 -0.6772
 6893SOL     OW21122   3.956   0.561   0.955 -0.5223 -0.0959 -0.0702
 6893SOL    HW121123   3.981   0.469   0.959  0.4615  0.1829  0.2341
 6893SOL    HW221124   3.871   0.560   0.909  0.8400 -0.8958 -2.7790
 6894SOL     OW21125   0.082   3.821   1.176  0.4574 -0.3873  0.8886
 6894SOL    HW121126   0.009   3.799   1.234  0.8177 -0.7426  1.2172
 6894SOL    HW221127   0.115   3.904   1.209 -0.2577  0.1535  0.2817
 6895SOL     OW21128   0.355   5.567   2.654  0.0402 -0.9515 -0.1302
 6895SOL    HW121129   0.394   5.482   2.672  0.4061 -1.2229 -1.9749
 6895SOL    HW221130   0.298   5.552   2.578  0.2796  0.4769 -0.6226
 6896SOL     OW21131   3.092   5.337   0.711 -0.0228  0.6922  0.4447
 6896SOL    HW121132   3.174   5.371   0.676  0.2859  0.1590  0.6349
 6896SOL    HW221133   3.111   5.246   0.732 -1.1231  0.0924 -1.0025
 6897SOL     OW21134   4.992   3.405   5.123  0.0833 -0.0688 -0.0386
 6897SOL    HW121135   4.961   3.321   5.159 -1.4143 -0.0980 -1.2823
 6897SOL    HW221136   4.916   3.440   5.077  0.2988  2.5879  1.4569
 6898SOL     OW21137   1.674   1.994   3.030  0.2786 -0.1953 -0.3538
 6898SOL    HW121138   1.705   1.973   3.118  0.4883  0.5836 -0.2386
 6898SOL    HW221139   1.582   2.018   3.042  0.0651 -0.9071 -0.4739
 6899SOL     OW21140   0.999   4.114   1.963 -0.2300 -0.1269  0.9040
 6899SOL    HW121141   0.994   4.209   1.958 -0.1430 -0.1723 -0.7759
 6899SOL    HW221142   0.933   4.083   1.900  1.2844 -1.1149 -0.2644
 6900SOL     OW21143   4.912   0.978   5.690 -0.7435 -0.0863  0.1381
 6900SOL    HW121144   4.953   0.943   5.769 -0.2481  0.0161 -0.0681
 6900SOL    HW221145   4.986   1.003   5.634 -0.9850  3.0128  1.0140
 6901SOL     OW21146   4.323   2.210   0.576 -0.1669 -0.6798 -0.2550
 6901SOL    HW121147   4.384   2.269   0.621 -2.0576  1.5160 -0.3818
 6901SOL    HW221148   4.371   2.127   0.569  2.1039  0.3967  1.1979
 6902SOL     OW21149   3.564   5.904   5.861  0.2882  0.0851 -0.1608
 6902SOL    HW121150   3.520   5.834   5.813  1.2105 -0.4130 -0.3061
 6902SOL    HW221151   3.657   5.882   5.856  0.4979  0.6573  0.8448
 6903SOL     OW21152   0.283   1.741   3.423 -0.3515 -0.2628 -0.1745
 6903SOL    HW121153   0.272   1.780   3.510  2.4337 -0.1736  0.2160
 6903SOL    HW221154   0.289   1.647   3.439  1.0080 -0.1874 -0.1207
 6904SOL     OW21155   3.784   3.418   3.224 -0.3332  0.2826  0.3424
 6904SOL    HW121156   3.812   3.462   3.304  0.1129  1.3667 -0.3849
 6904SOL    HW221157   3.725   3.480   3.182  0.3827  0.2448 -0.7535
 6905SOL     OW21158   2.111   0.918   5.807 -0.1121  0.3503  0.1262
 6905SOL    HW121159   2.043   0.867   5.762  0.3196 -1.3522  1.3164
 6905SOL    HW221160   2.079   1.008   5.805 -1.3018 -0.0618 -1.3179
 6906SOL     OW21161   5.864   3.512   4.428  0.0120  0.5823  0.1161
 6906SOL    HW121162   5.875   3.604   4.453  1.5054  0.7283 -0.9572
 6906SOL    HW221163   5.835   3.469   4.508  0.4069  1.7912  0.9404
 6907SOL     OW21164   0.977   3.087   3.361 -0.0116  0.0681  0.3818
 6907SOL    HW121165   0.981   3.180   3.338  2.1142  0.3899  1.7972
 6907SOL    HW221166   0.995   3.042   3.279 -2.3486  0.8154 -0.6075
 6908SOL     OW21167   2.997   3.769   4.655  0.3185  0.1320 -0.1276
 6908SOL    HW121168   2.962   3.857   4.644 -1.2946 -0.2336  1.5581
 6908SOL    HW221169   3.013   3.738   4.566 -2.4259  0.8873 -0.9847
 6909SOL     OW21170   3.792   4.837   0.664 -0.7020  0.0870  0.3121
 6909SOL    HW121171   3.819   4.752   0.702  0.7458  0.6720  0.6663
 6909SOL    HW221172   3.825   4.834   0.575 -0.9953  0.1294  0.2026
 6910SOL     OW21173   5.439   0.795   3.926 -0.3621 -0.2492  0.1128
 6910SOL    HW121174   5.370   0.762   3.985 -0.3077 -0.3719  0.1077
 6910SOL    HW221175   5.433   0.739   3.849 -0.0934 -0.4210  0.2140
 6911SOL     OW21176   3.544   3.741   5.218 -0.3215 -0.0479 -0.4856
 6911SOL    HW121177   3.634   3.773   5.210 -0.0289 -0.7258 -0.0314
 6911SOL    HW221178   3.553   3.645   5.221 -0.9808 -0.0914  0.4425
 6912SOL     OW21179   4.646   6.125   2.668  0.4878 -0.6423 -0.2188
 6912SOL    HW121180   4.740   6.113   2.656  0.9398  0.0316  2.0477
 6912SOL    HW221181   4.623   6.198   2.611  1.5333 -0.2165 -0.1172
 6913SOL     OW21182   0.503   2.181   4.070 -0.2624  0.2833 -0.0084
 6913SOL    HW121183   0.449   2.160   4.147  0.1033  0.4756  0.3030
 6913SOL    HW221184   0.440   2.188   3.998 -0.6555  0.4831  0.3482
 6914SOL     OW21185   1.007   3.723   4.112 -0.9013  0.7405 -0.3259
 6914SOL    HW121186   0.971   3.671   4.184 -2.3669  2.7973  0.5177
 6914SOL    HW221187   1.101   3.706   4.115 -1.1254 -0.4572  1.0550
 6915SOL     OW21188   4.055   5.829   5.718 -0.4348  0.0228  1.1276
 6915SOL    HW121189   4.038   5.737   5.697  0.9629  0.0880 -0.4799
 6915SOL    HW221190   4.037   5.875   5.636 -1.1372  1.2085  1.9226
 6916SOL     OW21191   0.210   2.548   2.302 -0.1793 -0.2538  0.1835
 6916SOL    HW121192   0.196   2.473   2.245 -0.4345  0.8926 -1.3252
 6916SOL    HW221193   0.302   2.572   2.289 -0.3133  0.1864 -0.0096
 6917SOL     OW21194   4.050   5.212   3.625 -0.6936 -0.0344  0.2850
 6917SOL    HW121195   3.998   5.288   3.649 -0.3618  0.1908  0.2915
 6917SOL    HW221196   4.043   5.207   3.530 -0.3755  0.2502  0.2462
 6918SOL     OW21197   5.448   5.044   2.996  0.1356  0.1476 -0.0848
 6918SOL    HW121198   5.374   5.010   2.946 -0.0497  1.0679 -0.4528
 6918SOL    HW221199   5.409   5.088   3.071  0.3483  0.0694  0.0741
 6919SOL     OW21200   3.555   1.690   0.559 -0.4208 -0.1781  0.4828
 6919SOL    HW121201   3.648   1.671   0.567 -0.4512 -0.4730  0.1492
 6919SOL    HW221202   3.542   1.768   0.613  0.2890  0.7177 -0.5855
 6920SOL     OW21203   2.542   0.410   4.203  0.3472 -0.2378  0.2916
 6920SOL    HW121204   2.565   0.497   4.237  0.9663  0.0879 -0.8945
 6920SOL    HW221205   2.448   0.401   4.220  0.5364  0.0922  1.6315
 6921SOL     OW21206   1.786   5.117   4.668 -0.0542 -0.1942 -0.3785
 6921SOL    HW121207   1.772   5.200   4.624 -3.7521 -0.6158 -0.2765
 6921SOL    HW221208   1.760   5.051   4.604  0.7890 -1.2068  0.2759
 6922SOL     OW21209   0.025   1.516   2.840  0.6737  0.0750  0.8731
 6922SOL    HW121210  -0.051   1.469   2.874  1.0628 -0.2304  1.3348
 6922SOL    HW221211   0.003   1.609   2.852  0.8353 -0.0253  2.0451
 6923SOL     OW21212   4.341   0.371   2.708 -0.1635  0.0611  0.2029
 6923SOL    HW121213   4.346   0.287   2.753  1.2641 -0.1045 -0.2149
 6923SOL    HW221214   4.404   0.364   2.636 -0.8650  1.0775 -0.5423
 6924SOL     OW21215   4.676   4.425   5.642  0.2772  0.2335  0.0843
 6924SOL    HW121216   4.688   4.520   5.641 -1.1707  0.4935  2.0998
 6924SOL    HW221217   4.707   4.397   5.556  0.8053  2.5067 -0.5488
 6925SOL     OW21218   5.856   4.432   2.273 -0.0606  0.1062 -0.9057
 6925SOL    HW121219   5.763   4.415   2.259  0.1016 -1.5441 -0.2278
 6925SOL    HW221220   5.869   4.420   2.367  1.1132 -1.3173 -1.2054
 6926SOL     OW21221   3.592   1.924   4.355  0.2846  0.0517  0.9217
 6926SOL    HW121222   3.518   1.920   4.294  0.7399 -1.8137  0.4189
 6926SOL    HW221223   3.551   1.916   4.442 -0.1151 -1.3516  0.6308
 6927SOL     OW21224   2.545   3.687   0.140  0.2262  0.3455  0.2671
 6927SOL    HW121225   2.612   3.694   0.073  1.2091 -1.4665  0.9858
 6927SOL    HW221226   2.573   3.747   0.209  0.0847  0.9816 -0.2153
 6928SOL     OW21227   0.085   5.134   3.025 -0.1580  0.0207 -0.0688
 6928SOL    HW121228   0.061   5.138   2.933  0.9092  0.1319 -0.3548
 6928SOL    HW221229   0.177   5.106   3.025 -0.1817 -0.1120  0.9655
 6929SOL     OW21230   2.618   3.085   0.392 -0.5132 -0.4425 -0.0470
 6929SOL    HW121231   2.648   3.075   0.301 -1.2640 -1.9974 -0.1617
 6929SOL    HW221232   2.697   3.073   0.444 -0.1812 -0.1652 -0.4788
 6930SOL     OW21233   0.857   0.908   2.650  0.0466 -0.0839 -0.2514
 6930SOL    HW121234   0.867   0.831   2.594 -1.3569 -0.7136  0.3258
 6930SOL    HW221235   0.926   0.968   2.621  1.3664 -1.6656 -0.5134
 6931SOL     OW21236   0.761   2.727   2.124  0.1264 -0.1186  0.0007
 6931SOL    HW121237   0.750   2.632   2.123  0.3098 -0.1403 -0.7668
 6931SOL    HW221238   0.685   2.761   2.078  0.3557  0.0686 -0.2450
 6932SOL     OW21239   5.290   2.380   3.097 -0.3190 -0.0854 -0.0475
 6932SOL    HW121240   5.332   2.425   3.024 -0.2690  2.2596  1.3402
 6932SOL    HW221241   5.200   2.413   3.097 -0.4939 -0.5482  0.5680
 6933SOL     OW21242   4.212   4.601   2.707 -0.4287  0.3157  0.0712
 6933SOL    HW121243   4.264   4.660   2.652  2.0401 -1.3638  0.4737
 6933SOL    HW221244   4.231   4.630   2.797 -0.2495 -0.2503  0.2177
 6934SOL     OW21245   1.057   5.188   3.330  0.1342  0.3566  0.0810
 6934SOL    HW121246   0.972   5.228   3.345 -0.6908 -1.4382  0.4925
 6934SOL    HW221247   1.038   5.106   3.285  1.7740  0.5403 -1.0720
 6935SOL     OW21248   4.499   4.170   1.940  0.2137  0.5557 -0.7027
 6935SOL    HW121249   4.486   4.247   1.885 -0.6523  0.0994 -1.1624
 6935SOL    HW221250   4.414   4.155   1.981  0.3033 -0.2935 -0.8048
 6936SOL     OW21251   3.600   5.342   2.610  0.5362 -0.0243 -0.4221
 6936SOL    HW121252   3.653   5.281   2.558  0.5737 -0.6522  0.3403
 6936SOL    HW221253   3.663   5.381   2.671 -0.1780 -2.3345  1.9473
 6937SOL     OW21254   1.251   1.036   2.915 -0.3387 -0.3672  0.2973
 6937SOL    HW121255   1.205   1.063   2.995  0.1736 -1.0324  0.8240
 6937SOL    HW221256   1.269   1.118   2.869 -2.3791 -0.0993 -0.1238
 6938SOL     OW21257   4.848   0.418   3.920  0.0793  0.2745  0.4239
 6938SOL    HW121258   4.781   0.470   3.963  0.0320 -0.8234  1.7333
 6938SOL    HW221259   4.909   0.482   3.884 -0.8792  1.2525  0.5060
 6939SOL     OW21260   4.129   5.245   5.877 -0.0417 -0.1946 -0.0714
 6939SOL    HW121261   4.219   5.226   5.901  0.0852 -0.3357 -0.6487
 6939SOL    HW221262   4.076   5.185   5.931  0.1576  0.4300  0.8442
 6940SOL     OW21263   2.342   4.888   1.663 -0.5023 -0.0758  0.2511
 6940SOL    HW121264   2.432   4.864   1.641 -0.6934  0.7917 -1.6112
 6940SOL    HW221265   2.344   4.899   1.758  1.8778  1.9185  0.0734
 6941SOL     OW21266   0.817   3.325   3.026  0.1424  0.3283 -0.3044
 6941SOL    HW121267   0.841   3.399   2.970 -2.8202  2.4737  1.0235
 6941SOL    HW221268   0.866   3.340   3.107  1.1253 -0.3872 -0.7426
 6942SOL     OW21269   4.754   5.752   3.234  0.3621 -0.1495  0.4693
 6942SOL    HW121270   4.718   5.703   3.308  0.4188  1.1605  1.3891
 6942SOL    HW221271   4.845   5.767   3.258  0.2588  0.6859  0.3637
 6943SOL     OW21272   4.779   2.235   6.030 -0.3734 -0.0138 -0.7014
 6943SOL    HW121273   4.751   2.271   5.945  0.2816  1.5131 -0.3053
 6943SOL    HW221274   4.838   2.302   6.065  0.0711 -1.0469  0.5595
 6944SOL     OW21275   2.347   2.744   2.857  0.0060 -0.4360 -0.2643
 6944SOL    HW121276   2.396   2.826   2.867  1.5300 -1.1974 -1.1548
 6944SOL    HW221277   2.319   2.722   2.946  1.1837  0.1015  0.2581
 6945SOL     OW21278   0.339   3.319   3.780  0.2692 -0.0356 -0.1210
 6945SOL    HW121279   0.344   3.366   3.863  1.7637 -0.4496  0.0519
 6945SOL    HW221280   0.430   3.308   3.753 -0.0767 -1.9909 -0.6213
 6946SOL     OW21281   4.016   2.764   1.172  0.0635  0.2471 -0.0829
 6946SOL    HW121282   4.052   2.853   1.167  0.3028  0.3082  1.8262
 6946SOL    HW221283   4.059   2.726   1.249 -2.2335 -0.4845  0.9081
 6947SOL     OW21284   4.928   1.983   0.058  0.3028  0.6234  0.2022
 6947SOL    HW121285   4.944   1.958  -0.033 -0.9755 -0.8659  0.3522
 6947SOL    HW221286   4.964   1.910   0.109  0.1492  0.9985  0.8484
 6948SOL     OW21287   2.505   5.200   4.740 -0.4821  0.1038 -0.6044
 6948SOL    HW121288   2.423   5.151   4.742 -0.7890  0.6393 -0.0044
 6948SOL    HW221289   2.480   5.289   4.714 -0.2054  0.4700  0.3471
 6949SOL     OW21290   4.219   4.279   5.640  0.0638  0.3171  0.3622
 6949SOL    HW121291   4.241   4.200   5.690  0.9175 -0.8055 -1.6419
 6949SOL    HW221292   4.125   4.292   5.657 -0.5825 -2.2971 -0.6847
 6950SOL     OW21293   2.029   4.989   4.333  0.2067  0.9208 -0.0561
 6950SOL    HW121294   2.035   4.937   4.253  2.0158 -0.3732  0.8404
 6950SOL    HW221295   1.994   5.074   4.304 -0.5284  0.0249 -1.9539
 6951SOL     OW21296   5.265   3.818   4.698 -0.2734  0.8073  0.3287
 6951SOL    HW121297   5.343   3.838   4.750 -0.4950  2.1628  0.1706
 6951SOL    HW221298   5.236   3.733   4.731  0.1176  1.2141  1.8084
 6952SOL     OW21299   0.573   4.153   4.858 -0.3720  0.2344 -0.1349
 6952SOL    HW121300   0.608   4.064   4.853  1.6382  0.9676 -0.2545
 6952SOL    HW221301   0.485   4.147   4.821 -0.7112 -1.8893  0.8944
 6953SOL     OW21302   2.447   2.274   4.691 -0.3563 -0.1257 -0.0067
 6953SOL    HW121303   2.518   2.242   4.747  0.8359  1.6164 -0.4297
 6953SOL    HW221304   2.491   2.323   4.621 -1.9449  0.3736 -0.7226
 6954SOL     OW21305   3.528   5.629   3.686 -0.1469  0.0709 -0.9116
 6954SOL    HW121306   3.460   5.694   3.666  0.4751  0.2920 -2.4573
 6954SOL    HW221307   3.609   5.680   3.688  0.1545 -0.4163 -0.5372
 6955SOL     OW21308   1.263   0.168   5.869  0.1806  0.4258  0.3274
 6955SOL    HW121309   1.233   0.079   5.851  0.6743  0.3293 -0.0302
 6955SOL    HW221310   1.183   0.221   5.866  0.1287  0.3128 -1.4518
 6956SOL     OW21311   1.429   4.978   3.665 -0.3258  0.0616 -0.3223
 6956SOL    HW121312   1.464   4.937   3.586 -0.8148  0.2641 -0.6463
 6956SOL    HW221313   1.497   5.039   3.692 -0.2951  0.2258 -0.7717
 6957SOL     OW21314   5.148   4.356   3.479 -0.0528 -0.1053  0.2691
 6957SOL    HW121315   5.072   4.386   3.529  0.0399  1.0873 -0.2502
 6957SOL    HW221316   5.220   4.408   3.513  0.0382  0.6191 -0.9709
 6958SOL     OW21317   4.717   5.553   5.567 -0.3038 -0.4563  0.1713
 6958SOL    HW121318   4.688   5.592   5.649  0.8958 -1.4532  1.1155
 6958SOL    HW221319   4.771   5.479   5.594  0.9081 -0.2384 -1.4962
 6959SOL     OW21320   3.601   3.326   0.609  0.0531 -0.6857 -0.1039
 6959SOL    HW121321   3.573   3.389   0.543 -0.3749  0.2628  0.9496
 6959SOL    HW221322   3.684   3.292   0.577  0.4546  0.6603 -0.5365
 6960SOL     OW21323   5.496   3.117   4.602 -0.0965  0.0376 -0.4653
 6960SOL    HW121324   5.464   3.148   4.518 -0.1011  0.9828 -0.1248
 6960SOL    HW221325   5.591   3.122   4.595 -0.1023  0.3660 -0.3270
 6961SOL     OW21326   4.225   4.581   3.114  0.0970 -0.1634 -0.0301
 6961SOL    HW121327   4.133   4.584   3.088 -0.3700  1.2995  1.5570
 6961SOL    HW221328   4.269   4.639   3.053 -0.4336  0.8096  0.4827
 6962SOL     OW21329   0.612   4.681   1.613  0.3085 -0.3246  0.4253
 6962SOL    HW121330   0.596   4.607   1.672 -1.6397  0.5440  1.0417
 6962SOL    HW221331   0.701   4.709   1.635 -0.2329 -0.2198  2.7592
 6963SOL     OW21332   1.236   3.214   1.243 -0.4970 -0.3265 -0.6602
 6963SOL    HW121333   1.141   3.209   1.243 -0.4702 -1.2123  0.8669
 6963SOL    HW221334   1.266   3.123   1.240  0.2593 -0.1581  0.8431
 6964SOL     OW21335   3.051   2.300   1.055  0.0594  0.1360 -0.5949
 6964SOL    HW121336   3.140   2.278   1.085 -0.3155  1.0712  1.3349
 6964SOL    HW221337   3.022   2.221   1.010  1.3804 -0.6913 -0.0764
 6965SOL     OW21338   0.238   1.735   3.169 -0.0966  0.1118  0.0551
 6965SOL    HW121339   0.144   1.743   3.153 -0.4084  1.2913  2.0771
 6965SOL    HW221340   0.248   1.755   3.262  1.9581 -1.8592  0.3534
 6966SOL     OW21341   3.420   2.392   3.959 -0.4414 -0.6814 -0.0122
 6966SOL    HW121342   3.350   2.436   3.910 -0.0427 -0.9709 -0.8706
 6966SOL    HW221343   3.384   2.378   4.046 -0.8722  0.6109  0.0418
 6967SOL     OW21344   1.080   4.813   2.542  0.7801 -1.0994  0.1802
 6967SOL    HW121345   1.129   4.760   2.478 -0.3816 -1.1418 -0.7166
 6967SOL    HW221346   1.014   4.753   2.578  0.3456 -0.6366  0.1723
 6968SOL     OW21347   3.087   5.456   4.960  0.0051 -0.0569 -0.0471
 6968SOL    HW121348   3.066   5.453   5.053  1.5923  1.3911  0.4242
 6968SOL    HW221349   3.123   5.544   4.947 -0.7667  0.0014 -2.1726
 6969SOL     OW21350   3.733   0.344   5.296 -0.2147 -0.1466 -0.3671
 6969SOL    HW121351   3.788   0.321   5.221  0.9707 -0.1115  0.4679
 6969SOL    HW221352   3.689   0.425   5.269 -0.3610 -0.5235 -1.2929
 6970SOL     OW21353   4.663   4.040   5.873  0.4982  0.1677 -0.0578
 6970SOL    HW121354   4.636   4.045   5.965 -0.1413 -1.2960 -0.1425
 6970SOL    HW221355   4.633   4.123   5.836  0.3244  0.5733  0.9413
 6971SOL     OW21356   3.439   0.818   1.858 -0.5102 -0.3971 -0.4780
 6971SOL    HW121357   3.468   0.836   1.769 -0.5211  0.6011 -0.2864
 6971SOL    HW221358   3.350   0.784   1.847 -0.8850  0.6448 -0.7999
 6972SOL     OW21359   6.016   2.242   5.474 -0.0337  0.5216 -0.6494
 6972SOL    HW121360   5.947   2.308   5.484 -0.0144  0.2384  2.4919
 6972SOL    HW221361   6.095   2.293   5.459 -0.3966  1.0426 -0.8377
 6973SOL     OW21362   2.647   0.145   0.030 -0.3939 -0.0630  0.3149
 6973SOL    HW121363   2.682   0.078   0.089 -2.5969 -1.2696  0.3906
 6973SOL    HW221364   2.612   0.212   0.088  0.9366  0.7048  0.2578
 6974SOL     OW21365   1.396   0.667   2.200 -0.4305  0.2648 -0.4122
 6974SOL    HW121366   1.427   0.742   2.251  1.3848 -1.3425  1.0340
 6974SOL    HW221367   1.307   0.651   2.231  0.6487 -0.7256  2.5028
 6975SOL     OW21368   1.102   0.076   4.881  0.0168  0.0942 -0.4782
 6975SOL    HW121369   1.110   0.057   4.787  2.0845 -0.4944 -0.2179
 6975SOL    HW221370   1.184   0.119   4.904 -1.0185  1.4565  0.8202
 6976SOL     OW21371   3.612   0.284   3.641  0.8902  0.0985 -0.5791
 6976SOL    HW121372   3.643   0.193   3.633  0.5517  0.0770 -1.9540
 6976SOL    HW221373   3.690   0.333   3.668  1.0718 -0.5927  0.1984
 6977SOL     OW21374   4.115   0.929   5.998  0.3994 -0.1840 -0.8606
 6977SOL    HW121375   4.146   0.870   5.929  2.2663 -0.8066  0.4298
 6977SOL    HW221376   4.182   0.997   6.003 -0.3547  0.5413 -0.4794
 6978SOL     OW21377   1.601   4.011   1.566 -0.3374 -0.1084 -0.1081
 6978SOL    HW121378   1.649   3.931   1.585 -1.2216 -0.7634 -0.5252
 6978SOL    HW221379   1.645   4.079   1.617 -0.7082 -1.1955  1.7358
 6979SOL     OW21380   4.617   2.677   2.428  0.7315 -0.1834 -0.1188
 6979SOL    HW121381   4.665   2.678   2.346  1.0784  1.2961  0.0730
 6979SOL    HW221382   4.679   2.709   2.493 -0.6612  2.7088 -0.0232
 6980SOL     OW21383   5.026   0.537   3.610  0.0145  0.1776  0.1135
 6980SOL    HW121384   4.944   0.509   3.571  0.4352 -0.4828 -0.3032
 6980SOL    HW221385   5.083   0.558   3.536 -0.5172  2.9148  0.3859
 6981SOL     OW21386   3.741   1.664   5.395  0.1919  0.1940  0.0798
 6981SOL    HW121387   3.759   1.627   5.481 -0.4277  0.1720  0.2025
 6981SOL    HW221388   3.682   1.737   5.412  0.9324  0.8746 -0.2183
 6982SOL     OW21389   3.724   1.462   5.035 -0.0566  0.0003  0.2272
 6982SOL    HW121390   3.723   1.548   5.077  1.8802 -0.1752  0.7430
 6982SOL    HW221391   3.671   1.406   5.092  1.7713 -0.0121  2.0468
 6983SOL     OW21392   0.981   0.169   5.589  0.7787  0.2223  0.0113
 6983SOL    HW121393   0.970   0.215   5.672 -1.4026 -0.1716 -0.0044
 6983SOL    HW221394   0.992   0.077   5.615 -1.1742 -0.0832 -0.1314
 6984SOL     OW21395   5.433   4.082   3.167  0.4171  0.1751  0.1744
 6984SOL    HW121396   5.343   4.067   3.138  0.1036 -1.1500  1.6540
 6984SOL    HW221397   5.440   4.177   3.177 -0.5244  0.3646 -0.8261
 6985SOL     OW21398   5.957   3.489   2.887  0.1658  0.1562  0.0693
 6985SOL    HW121399   6.044   3.498   2.849  0.2375  0.1196  0.2256
 6985SOL    HW221400   5.971   3.491   2.981  0.1187 -0.9643  0.1148
 6986SOL     OW21401   4.470   0.819   5.420 -0.2484  0.3772 -0.0936
 6986SOL    HW121402   4.536   0.841   5.485 -0.0141 -0.6694  0.0404
 6986SOL    HW221403   4.460   0.724   5.426 -1.6764  0.4905 -0.1915
 6987SOL     OW21404   4.895   5.055   2.195  0.0520  0.1686  0.1290
 6987SOL    HW121405   4.969   5.109   2.222 -0.8646  0.7906  1.4951
 6987SOL    HW221406   4.932   4.995   2.129  1.4468  1.3492 -0.2211
 6988SOL     OW21407   1.496   6.060   3.653  0.2460  0.6542  0.0763
 6988SOL    HW121408   1.482   5.966   3.660  1.4591  0.2233 -2.1863
 6988SOL    HW221409   1.571   6.078   3.709 -0.6148  0.4860  1.3078
 6989SOL     OW21410   3.399   2.421   0.657  0.5441  0.4641  0.5532
 6989SOL    HW121411   3.480   2.374   0.676  1.5515  1.4354 -1.1417
 6989SOL    HW221412   3.427   2.511   0.639 -0.5390  0.3153 -2.4790
 6990SOL     OW21413   5.282   5.503   5.717  0.0670  0.5391  0.3012
 6990SOL    HW121414   5.206   5.521   5.773 -1.1394 -1.3296 -0.6461
 6990SOL    HW221415   5.247   5.498   5.629  0.6734 -3.2162  0.1161
 6991SOL     OW21416   4.334   1.490   0.742  0.1330  0.0232  0.1655
 6991SOL    HW121417   4.345   1.552   0.670 -1.3314  0.3031  0.1328
 6991SOL    HW221418   4.421   1.478   0.778  0.7843  0.3996 -1.2312
 6992SOL     OW21419   0.269   0.609   1.189  0.6751 -0.5108  0.9937
 6992SOL    HW121420   0.304   0.525   1.161  2.5196  0.3654  0.4728
 6992SOL    HW221421   0.289   0.613   1.283 -0.3590 -1.0662  1.2498
 6993SOL     OW21422   5.273   1.235   0.038  0.3037  0.7066  0.2196
 6993SOL    HW121423   5.274   1.329   0.053  0.7746  1.0123 -1.4672
 6993SOL    HW221424   5.312   1.197   0.116 -0.4755  1.8442  1.2073
 6994SOL     OW21425   3.172   5.913   1.948  0.4642 -0.2335  0.0568
 6994SOL    HW121426   3.224   5.863   1.884 -0.6657 -0.6474 -0.5706
 6994SOL    HW221427   3.116   5.847   1.989 -0.5113  0.3961 -0.2364
 6995SOL     OW21428   1.299   5.690   4.930 -0.6247 -0.1646 -0.2099
 6995SOL    HW121429   1.278   5.731   4.846 -3.4988  0.2195  0.5943
 6995SOL    HW221430   1.218   5.647   4.957  0.7138 -1.7516  1.5948
 6996SOL     OW21431   0.865   5.743   3.951 -0.1505  0.1272 -0.0898
 6996SOL    HW121432   0.784   5.789   3.973 -1.0811 -1.7580  0.6944
 6996SOL    HW221433   0.918   5.748   4.031 -0.8456 -1.2745  0.4988
 6997SOL     OW21434   2.626   4.701   0.191 -0.4639  0.0836 -0.1456
 6997SOL    HW121435   2.592   4.774   0.140 -1.1901 -0.7534 -0.9086
 6997SOL    HW221436   2.653   4.636   0.126  0.9250 -0.0170  0.4995
 6998SOL     OW21437   2.852   2.305   3.367 -0.1720  0.1068  0.0244
 6998SOL    HW121438   2.944   2.293   3.393 -0.7813 -2.6678  1.2817
 6998SOL    HW221439   2.837   2.237   3.301 -1.5276 -0.0300  0.4529
 6999SOL     OW21440   1.054   4.757   4.341 -0.3388  0.8639 -0.0873
 6999SOL    HW121441   1.036   4.731   4.250 -1.2653 -0.3360  0.4151
 6999SOL    HW221442   0.968   4.762   4.382  0.1704 -1.2138  1.3840
 7000SOL     OW21443   3.033   0.869   1.441 -0.7388 -0.1443  0.3479
 7000SOL    HW121444   3.043   0.940   1.505 -0.8681  1.0852 -0.9543
 7000SOL    HW221445   3.118   0.824   1.443 -1.1524 -0.9356  2.2705
 7001SOL     OW21446   5.159   3.109   3.340  0.1879 -0.2904  0.6011
 7001SOL    HW121447   5.175   3.022   3.303  0.7546 -0.4562  1.2121
 7001SOL    HW221448   5.247   3.148   3.346  0.1824 -0.4501  2.1924
 7002SOL     OW21449   3.595   2.835   5.660  0.0780  0.5685  0.2714
 7002SOL    HW121450   3.584   2.924   5.693 -1.0892  0.9280 -1.0144
 7002SOL    HW221451   3.528   2.826   5.592 -1.0648 -1.8941  1.5712
 7003SOL     OW21452   3.881   0.832   2.882  0.1206  0.2828 -0.1790
 7003SOL    HW121453   3.795   0.863   2.854 -0.6507 -0.5266  1.1221
 7003SOL    HW221454   3.934   0.830   2.803 -0.8683  1.4197 -0.8935
 7004SOL     OW21455   5.262   1.657   4.565 -0.1627  0.5188 -0.1341
 7004SOL    HW121456   5.274   1.707   4.484 -1.4606 -0.1698 -0.7828
 7004SOL    HW221457   5.272   1.566   4.538 -2.2796  0.1630  0.0862
 7005SOL     OW21458   0.835   1.786   0.307 -0.0621 -0.8935  0.1393
 7005SOL    HW121459   0.763   1.747   0.357  0.1609  0.8604  1.9402
 7005SOL    HW221460   0.792   1.834   0.236 -0.8075  0.9140  1.7357
 7006SOL     OW21461   5.620   4.186   5.101  0.6384 -0.1047 -0.1076
 7006SOL    HW121462   5.710   4.157   5.112  0.4033 -0.1056  2.5077
 7006SOL    HW221463   5.591   4.209   5.190 -2.3555 -1.3221 -0.6501
 7007SOL     OW21464   5.114   2.093   4.329 -0.4214  0.1228  0.2458
 7007SOL    HW121465   5.200   2.127   4.305 -0.0822 -1.1923 -0.4964
 7007SOL    HW221466   5.091   2.034   4.257 -1.6747 -0.0199  0.7374
 7008SOL     OW21467   1.863   3.758   4.072 -0.2814 -0.7553 -0.2800
 7008SOL    HW121468   1.922   3.726   4.140 -0.7833 -1.3315 -0.1100
 7008SOL    HW221469   1.921   3.796   4.006  0.2563 -0.9292  0.0904
 7009SOL     OW21470   3.224   5.645   0.183 -0.3874  0.4638  0.4183
 7009SOL    HW121471   3.209   5.585   0.110 -0.8886  0.2877  0.6649
 7009SOL    HW221472   3.138   5.682   0.202 -0.1925  0.7895  0.6830
 7010SOL     OW21473   0.746   0.285   1.072  0.4370  0.4196 -0.3787
 7010SOL    HW121474   0.744   0.375   1.104 -0.6123  0.3320 -0.1452
 7010SOL    HW221475   0.683   0.239   1.128 -0.4516 -0.0373 -1.6859
 7011SOL     OW21476   0.787   6.038   3.551  0.0669 -0.1250 -0.4476
 7011SOL    HW121477   0.840   5.989   3.613 -0.2962 -0.7943 -0.6482
 7011SOL    HW221478   0.697   6.024   3.580 -0.0104  1.2269  0.0568
 7012SOL     OW21479   5.530   3.138   1.409  0.1732 -0.0224 -0.2997
 7012SOL    HW121480   5.596   3.199   1.441  0.2362  0.3468 -1.1214
 7012SOL    HW221481   5.575   3.053   1.408  0.2140 -0.0227  0.4274
 7013SOL     OW21482   2.456   4.507   5.168 -0.0550 -0.0932 -0.5591
 7013SOL    HW121483   2.362   4.491   5.155 -0.1279 -0.2371  0.1031
 7013SOL    HW221484   2.464   4.525   5.262  0.8977 -2.4880 -0.1133
 7014SOL     OW21485   5.921   1.037   2.739  1.0016 -0.1442  0.2681
 7014SOL    HW121486   5.863   1.112   2.726 -1.0007 -1.6143  0.1145
 7014SOL    HW221487   5.911   1.015   2.832 -1.1335 -2.1523 -0.3138
 7015SOL     OW21488   4.840   4.132   0.359  0.0786  0.2233 -0.1166
 7015SOL    HW121489   4.781   4.058   0.374 -1.3997  1.1810 -0.9386
 7015SOL    HW221490   4.816   4.195   0.427  1.5734 -0.1459  0.8023
 7016SOL     OW21491   4.727   5.874   4.266  0.0444 -0.1958  0.1320
 7016SOL    HW121492   4.816   5.909   4.265 -0.5079  1.3308  0.8112
 7016SOL    HW221493   4.673   5.947   4.296 -1.3909 -1.2085  0.1249
 7017SOL     OW21494   5.732   3.483   0.893  0.4227  0.3833 -0.1329
 7017SOL    HW121495   5.723   3.513   0.803 -2.6079  0.8344  0.1988
 7017SOL    HW221496   5.643   3.486   0.928  1.2397 -1.3750  2.3886
 7018SOL     OW21497   4.068   5.007   0.744 -0.1179 -0.4257  0.0705
 7018SOL    HW121498   4.092   5.089   0.701  1.5453  0.0504  1.7653
 7018SOL    HW221499   4.031   4.953   0.674 -0.0263  1.2693 -1.3518
 7019SOL     OW21500   1.076   5.051   2.394  0.5736  0.3578  0.0628
 7019SOL    HW121501   0.981   5.050   2.389  0.6143  0.1859 -0.8707
 7019SOL    HW221502   1.100   4.958   2.399  0.7067  0.3874 -0.0326
 7020SOL     OW21503   0.114   4.769   2.051  0.2591 -0.1095  0.2016
 7020SOL    HW121504   0.118   4.862   2.074 -2.0601 -0.3544  1.8198
 7020SOL    HW221505   0.072   4.768   1.965 -2.7090  0.2705  1.5489
 7021SOL     OW21506   1.410   4.941   2.394 -0.2031 -0.7901 -0.5462
 7021SOL    HW121507   1.500   4.933   2.426 -0.1175  2.4653  0.3894
 7021SOL    HW221508   1.418   4.984   2.309 -0.8361  2.4691  0.8853
 7022SOL     OW21509   4.169   3.131   4.459 -0.1782  0.0493  0.0925
 7022SOL    HW121510   4.254   3.134   4.503  0.4997 -1.8829 -0.9729
 7022SOL    HW221511   4.188   3.094   4.373 -2.1106 -0.3677 -0.2002
 7023SOL     OW21512   3.168   0.539   5.639  0.1560 -0.2067 -0.2096
 7023SOL    HW121513   3.239   0.599   5.659 -1.2542  1.2040  0.8112
 7023SOL    HW221514   3.166   0.535   5.543  1.6173 -0.3385 -0.2575
 7024SOL     OW21515   0.377   5.744   0.380  0.1067 -0.1892  0.7919
 7024SOL    HW121516   0.401   5.666   0.431 -0.4769  0.0131  1.4013
 7024SOL    HW221517   0.283   5.755   0.397 -0.1133 -0.1439 -0.3906
 7025SOL     OW21518   0.849   4.916   3.507 -0.2469 -0.1394  0.0196
 7025SOL    HW121519   0.806   4.950   3.428 -1.0192 -0.5981  0.2289
 7025SOL    HW221520   0.937   4.894   3.479 -1.0445 -2.0380 -1.1954
 7026SOL     OW21521   6.044   0.120   4.360  0.0455 -0.2507 -0.0557
 7026SOL    HW121522   6.093   0.186   4.311 -0.1827  0.4322  0.6156
 7026SOL    HW221523   6.110   0.077   4.416 -0.0408  0.4100  0.5702
 7027SOL     OW21524   2.048   0.132   2.737  0.2655 -0.0042  0.6635
 7027SOL    HW121525   2.071   0.225   2.740  1.4820 -0.3265  2.2918
 7027SOL    HW221526   2.040   0.113   2.643  0.5618  1.5939  0.2837
 7028SOL     OW21527   4.038   5.883   4.591  0.0610 -0.0095 -0.3279
 7028SOL    HW121528   4.015   5.806   4.643  0.1292 -1.6476 -2.5648
 7028SOL    HW221529   4.021   5.857   4.500  2.6608  1.6382 -1.4229
 7029SOL     OW21530   4.388   5.724   6.051  0.6079  0.0736  0.0230
 7029SOL    HW121531   4.429   5.764   6.128 -0.4911 -1.0276  1.2287
 7029SOL    HW221532   4.404   5.631   6.061 -0.4289 -0.1815 -0.5311
 7030SOL     OW21533   2.381   4.820   3.802 -0.3317 -0.0560 -0.1684
 7030SOL    HW121534   2.316   4.793   3.737 -1.5356  0.3607  0.8226
 7030SOL    HW221535   2.357   4.772   3.882 -0.4331  1.3462  0.6663
 7031SOL     OW21536   6.123   0.711   0.560  0.1665 -0.3928 -0.1695
 7031SOL    HW121537   6.157   0.629   0.524  1.1752  0.0203 -0.1711
 7031SOL    HW221538   6.119   0.770   0.485  2.6106  0.5850  0.3848
 7032SOL     OW21539   1.134   5.806   2.224 -0.0569  0.2592 -0.0852
 7032SOL    HW121540   1.152   5.891   2.264 -0.6629  0.6366 -0.5818
 7032SOL    HW221541   1.216   5.757   2.231  0.5480  1.1925 -0.5489
 7033SOL     OW21542   2.964   0.644   5.957 -0.1401 -0.4259  0.2242
 7033SOL    HW121543   3.028   0.583   5.919 -0.7164 -1.6801  1.1808
 7033SOL    HW221544   2.981   0.641   6.051  0.4749  1.7045  0.2350
 7034SOL     OW21545   4.310   4.477   0.919 -0.7666 -0.3323  0.1002
 7034SOL    HW121546   4.391   4.523   0.899 -0.5781 -1.5851 -2.3789
 7034SOL    HW221547   4.292   4.424   0.841 -3.3049 -1.0595  1.0735
 7035SOL     OW21548   2.597   2.933   5.337 -0.0245  0.2032 -0.3390
 7035SOL    HW121549   2.677   2.971   5.374  0.3944 -0.7190 -0.2736
 7035SOL    HW221550   2.527   2.990   5.368  0.5407  0.6585  0.1229
 7036SOL     OW21551   2.099   4.836   5.791 -0.4440  0.5303 -0.6549
 7036SOL    HW121552   2.059   4.897   5.729 -1.4891  0.3920 -0.1306
 7036SOL    HW221553   2.140   4.770   5.736 -1.8023  0.1257 -1.2231
 7037SOL     OW21554   3.646   4.030   3.816  0.1018 -0.2182  0.0500
 7037SOL    HW121555   3.594   4.010   3.739 -1.3285  2.3557  0.2375
 7037SOL    HW221556   3.737   4.034   3.784 -0.2123 -1.2508 -1.0206
 7038SOL     OW21557   1.367   4.848   0.773 -0.1847 -0.3442  0.6351
 7038SOL    HW121558   1.389   4.940   0.758 -1.4059  0.5897  3.6938
 7038SOL    HW221559   1.450   4.808   0.799  0.4916 -0.3424 -1.3550
 7039SOL     OW21560   2.740   0.099   2.266  0.3395  0.1858  0.0931
 7039SOL    HW121561   2.692   0.172   2.226 -1.5697  0.0622  1.9892
 7039SOL    HW221562   2.787   0.139   2.339  1.0174 -0.1499 -0.1520
 7040SOL     OW21563   2.332   4.308   3.160  0.5589 -0.0048  0.5907
 7040SOL    HW121564   2.262   4.344   3.106  1.2571  0.8203  0.2090
 7040SOL    HW221565   2.287   4.264   3.232 -0.3494  0.2346  0.1832
 7041SOL     OW21566   3.074   0.755   0.155 -0.6297  0.5783  0.3980
 7041SOL    HW121567   3.165   0.734   0.134 -0.7800 -1.4117  1.4978
 7041SOL    HW221568   3.079   0.809   0.234 -0.3928  0.0304  0.7668
 7042SOL     OW21569   0.272   1.406   5.848  0.0816 -0.5341  0.7494
 7042SOL    HW121570   0.200   1.438   5.902  1.1180  1.9106  0.8377
 7042SOL    HW221571   0.237   1.406   5.759  0.3714  2.4958  0.5044
 7043SOL     OW21572   1.320   2.070   1.291  0.0430  0.2269 -0.7927
 7043SOL    HW121573   1.413   2.072   1.313  0.1021 -2.1799 -0.5644
 7043SOL    HW221574   1.314   2.013   1.214 -1.2489  0.3336 -0.8034
 7044SOL     OW21575   0.828   5.752   0.540 -0.2239  0.4410  0.8963
 7044SOL    HW121576   0.781   5.669   0.551 -0.6081  0.6361  0.7395
 7044SOL    HW221577   0.837   5.786   0.629  0.3077  0.0280  1.0011
 7045SOL     OW21578   4.795   5.787   5.230 -0.3690  0.2539 -0.0913
 7045SOL    HW121579   4.745   5.797   5.312 -1.4747  0.1221 -0.7246
 7045SOL    HW221580   4.729   5.797   5.161  0.4423 -0.2245 -0.9522
 7046SOL     OW21581   1.763   4.329   2.112 -0.4583 -0.3710  0.1365
 7046SOL    HW121582   1.819   4.262   2.151 -0.5932 -1.6068 -1.6705
 7046SOL    HW221583   1.725   4.375   2.186  0.6001 -1.4872  1.4224
 7047SOL     OW21584   3.514   2.605   3.284 -0.1439  0.2884  0.0211
 7047SOL    HW121585   3.476   2.685   3.319  0.7990  0.5904  0.3523
 7047SOL    HW221586   3.443   2.541   3.290 -0.5258  0.7773  0.8756
 7048SOL     OW21587   1.086   1.685   1.427  0.6735  0.2661 -0.0856
 7048SOL    HW121588   1.171   1.729   1.424  1.0031 -0.1661  1.7725
 7048SOL    HW221589   1.090   1.630   1.505 -0.9609 -0.5241 -0.5115
 7049SOL     OW21590   1.915   3.222   2.190  0.3704  0.6082 -0.1614
 7049SOL    HW121591   1.937   3.233   2.097 -0.4700  0.5853 -0.3702
 7049SOL    HW221592   1.821   3.236   2.194  0.6070  2.1429  0.9305
 7050SOL     OW21593   0.579   1.821   4.185 -0.3471  0.1450 -0.0621
 7050SOL    HW121594   0.666   1.807   4.147 -0.0029 -0.9841  1.0603
 7050SOL    HW221595   0.579   1.912   4.213  0.9317 -0.1216  0.9433
 7051SOL     OW21596   0.400   1.415   3.037  0.0157  0.0406  0.3364
 7051SOL    HW121597   0.413   1.329   3.077 -0.5825  0.2030  0.8823
 7051SOL    HW221598   0.474   1.467   3.069  1.5474 -0.8079 -1.5945
 7052SOL     OW21599   4.812   1.271   4.351 -0.0675  0.3226 -0.0929
 7052SOL    HW121600   4.880   1.295   4.288 -0.7769  0.2107 -0.9106
 7052SOL    HW221601   4.733   1.260   4.299 -0.5128 -0.4853  0.7190
 7053SOL     OW21602   1.050   5.023   3.082  0.2563 -0.4273 -0.0036
 7053SOL    HW121603   1.076   5.063   2.999  4.3997  1.5457  1.9165
 7053SOL    HW221604   1.106   4.945   3.089  0.0839 -0.4748  0.9744
 7054SOL     OW21605   5.414   0.291   5.862  0.6027 -0.5035  0.0223
 7054SOL    HW121606   5.366   0.235   5.801  0.1800 -1.5592  1.2504
 7054SOL    HW221607   5.492   0.240   5.885  0.4394 -0.4172  0.8170
 7055SOL     OW21608   0.281   3.920   4.150 -0.5299 -0.6326  0.1644
 7055SOL    HW121609   0.275   3.838   4.101 -0.4187 -1.5785  1.6497
 7055SOL    HW221610   0.344   3.901   4.219 -0.4999  0.7248  0.5301
 7056SOL     OW21611   3.028   2.743   5.933  0.0389 -0.4290 -0.1106
 7056SOL    HW121612   3.094   2.749   5.863 -2.8376 -2.5372 -3.3761
 7056SOL    HW221613   3.045   2.658   5.974  0.1757 -0.3714 -0.0490
 7057SOL     OW21614   4.074   4.752   5.688 -0.0994  0.2950 -0.0557
 7057SOL    HW121615   4.027   4.835   5.673  0.0229  0.4691  0.4849
 7057SOL    HW221616   4.062   4.703   5.607 -1.7876  0.0688  0.2900
 7058SOL     OW21617   1.713   0.924   3.481  0.0445  0.3202 -0.0135
 7058SOL    HW121618   1.734   0.941   3.573  0.8248 -0.1224 -0.1010
 7058SOL    HW221619   1.747   1.000   3.434 -0.2432  0.4876  0.0442
 7059SOL     OW21620   4.856   2.913   3.541  0.6020  0.3259  0.0678
 7059SOL    HW121621   4.941   2.871   3.532 -0.2961 -1.5667  0.0455
 7059SOL    HW221622   4.834   2.941   3.452  0.8689  0.1768 -0.0461
 7060SOL     OW21623   1.015   0.889   0.311 -0.9659 -0.6336 -0.3433
 7060SOL    HW121624   0.929   0.897   0.352 -0.3292 -0.6688  1.0595
 7060SOL    HW221625   1.070   0.950   0.360 -0.0512 -1.0623 -0.8243
 7061SOL     OW21626   2.031   5.626   3.044 -0.8281  0.1465  0.1160
 7061SOL    HW121627   2.093   5.652   3.112 -1.6071 -0.5384  1.1143
 7061SOL    HW221628   1.970   5.699   3.037 -0.9266  0.0892  0.3740
 7062SOL     OW21629   4.495   0.751   1.830  0.1226  0.6184 -0.6747
 7062SOL    HW121630   4.470   0.843   1.837 -0.5708  0.4483 -0.9283
 7062SOL    HW221631   4.560   0.749   1.760  1.3915  1.1573  0.4366
 7063SOL     OW21632   4.717   4.973   2.391 -0.7391 -0.1997 -0.6488
 7063SOL    HW121633   4.773   4.992   2.316 -0.6550 -0.3889 -0.6352
 7063SOL    HW221634   4.672   5.055   2.409 -0.8332 -0.1813 -0.9706
 7064SOL     OW21635   0.182   2.896   4.095 -0.2272  0.5417  0.5767
 7064SOL    HW121636   0.231   2.951   4.033 -0.8373  0.1923 -0.2310
 7064SOL    HW221637   0.102   2.945   4.113 -1.6743 -0.8809 -1.6337
 7065SOL     OW21638   1.562   2.526   1.227 -0.1002  0.4170 -0.0317
 7065SOL    HW121639   1.550   2.495   1.317 -1.0613 -1.8540 -0.8593
 7065SOL    HW221640   1.473   2.550   1.199 -0.1012 -0.5787 -0.9155
 7066SOL     OW21641   2.252   4.465   5.690 -0.0892  0.1733 -0.0253
 7066SOL    HW121642   2.224   4.440   5.602  3.0692 -1.1587 -0.7729
 7066SOL    HW221643   2.307   4.542   5.676 -1.8153  1.7140  1.1907
 7067SOL     OW21644   0.844   3.814   2.208  0.0676  0.0200  0.4715
 7067SOL    HW121645   0.766   3.763   2.188 -0.0097  0.0438  0.7063
 7067SOL    HW221646   0.872   3.782   2.294 -0.2082  0.6499  0.8016
 7068SOL     OW21647   4.324   0.219   4.360 -0.3058 -0.0443  0.1782
 7068SOL    HW121648   4.358   0.283   4.422 -2.2004 -0.0873  1.3410
 7068SOL    HW221649   4.402   0.187   4.314  0.9635  1.2413  1.3139
 7069SOL     OW21650   4.547   0.704   1.556 -0.4080 -0.3470 -0.3013
 7069SOL    HW121651   4.602   0.628   1.573 -0.0282  0.4034  2.1607
 7069SOL    HW221652   4.459   0.668   1.543  0.0705 -1.2990 -1.0768
 7070SOL     OW21653   5.299   1.851   3.126 -0.1366 -0.5760  0.3608
 7070SOL    HW121654   5.207   1.866   3.105  0.4093 -0.1984 -2.1094
 7070SOL    HW221655   5.298   1.790   3.200 -2.3537 -1.0263  0.0092
 7071SOL     OW21656   0.464   0.951   5.299 -0.2842  0.5127  0.0147
 7071SOL    HW121657   0.427   0.909   5.220  1.7000  0.3089 -0.8567
 7071SOL    HW221658   0.489   1.039   5.270 -0.7579  0.9113  0.7900
 7072SOL     OW21659   4.111   1.878   4.776 -0.3599  0.6243  0.3238
 7072SOL    HW121660   4.059   1.821   4.833 -0.0003  0.7633  0.7953
 7072SOL    HW221661   4.049   1.943   4.744 -0.9968 -0.6016 -0.9999
 7073SOL     OW21662   3.434   2.472   1.727  0.0261  0.3879  0.0873
 7073SOL    HW121663   3.358   2.482   1.670 -0.0601  2.6015  0.4671
 7073SOL    HW221664   3.423   2.387   1.769 -2.7800  1.0525  0.8685
 7074SOL     OW21665   5.946   1.827   5.702 -0.0254  0.8958  0.0001
 7074SOL    HW121666   5.919   1.918   5.716  0.9675  1.2282 -0.1735
 7074SOL    HW221667   6.040   1.828   5.719 -0.0909 -0.2084  0.4927
 7075SOL     OW21668   5.781   5.887   3.391  0.6328  0.3860 -0.2688
 7075SOL    HW121669   5.811   5.872   3.481  0.4710  0.7306 -0.1555
 7075SOL    HW221670   5.860   5.876   3.338  0.6004 -0.4421 -0.1503
 7076SOL     OW21671   0.974   1.169   5.365  0.6100 -0.4805 -0.1187
 7076SOL    HW121672   1.046   1.162   5.429  1.7939  0.3448 -1.3020
 7076SOL    HW221673   0.952   1.262   5.366 -1.3336 -0.8929  1.1113
 7077SOL     OW21674   2.615   0.748   4.923  0.4481  0.1622 -0.2038
 7077SOL    HW121675   2.655   0.747   4.836  0.6453 -0.4885 -0.1044
 7077SOL    HW221676   2.521   0.756   4.905  0.5586  1.0161 -0.4496
 7078SOL     OW21677   4.657   3.507   1.625 -0.3294 -0.3029  0.1820
 7078SOL    HW121678   4.601   3.584   1.623 -0.1400 -0.1429  0.7593
 7078SOL    HW221679   4.645   3.466   1.539  1.5962  1.8348 -1.2417
 7079SOL     OW21680   5.416   1.481   2.021 -0.0564 -0.3593 -0.3528
 7079SOL    HW121681   5.396   1.392   1.992  1.9688 -1.9624  2.6471
 7079SOL    HW221682   5.506   1.495   1.993  0.4516 -0.2714  1.2179
 7080SOL     OW21683   2.754   3.227   0.839  0.4990  0.5116  0.3784
 7080SOL    HW121684   2.724   3.282   0.911  1.5879  1.0931  0.4059
 7080SOL    HW221685   2.809   3.284   0.786  1.0209 -0.3418 -0.0319
 7081SOL     OW21686   0.136   3.850   3.609  0.2187 -0.1457  0.4962
 7081SOL    HW121687   0.135   3.925   3.549 -1.2085 -0.8203 -0.3754
 7081SOL    HW221688   0.228   3.824   3.614  0.8713  2.0737  1.3783
 7082SOL     OW21689   2.153   2.966   4.879  0.1810  0.0184 -0.5025
 7082SOL    HW121690   2.139   3.059   4.896 -1.0290 -0.3555  0.7331
 7082SOL    HW221691   2.217   2.939   4.945  1.2992  0.1605 -1.4967
 7083SOL     OW21692   5.800   4.574   5.096  0.7569 -0.0637  0.0176
 7083SOL    HW121693   5.755   4.563   5.012  0.7803 -1.0357  0.1213
 7083SOL    HW221694   5.892   4.553   5.077  0.8215  0.0309  0.2213
 7084SOL     OW21695   3.533   0.731   0.169  0.0382 -0.3147 -0.5432
 7084SOL    HW121696   3.466   0.713   0.235  0.4482  0.6410  0.1680
 7084SOL    HW221697   3.484   0.767   0.095 -0.1868  1.1885  0.2952
 7085SOL     OW21698   3.356   3.863   2.503  0.2292 -0.0173 -0.0864
 7085SOL    HW121699   3.421   3.860   2.432  0.8271  0.3379  0.4327
 7085SOL    HW221700   3.313   3.948   2.493  1.6322  0.8883  1.0898
 7086SOL     OW21701   3.441   2.034   5.333 -0.4739 -0.1156  0.0800
 7086SOL    HW121702   3.467   2.083   5.255 -2.0973 -0.8171 -0.9679
 7086SOL    HW221703   3.508   1.966   5.342  0.9054  1.2843  0.6044
 7087SOL     OW21704   0.106   0.512   4.852 -0.1383 -0.3105 -0.2116
 7087SOL    HW121705   0.094   0.419   4.834 -2.0235  0.1468 -1.5671
 7087SOL    HW221706   0.059   0.557   4.782  2.6867  1.7407 -0.9667
 7088SOL     OW21707   0.999   2.296   5.422 -0.2900 -0.3468 -0.1276
 7088SOL    HW121708   0.987   2.323   5.514  1.4561  0.6823 -0.1461
 7088SOL    HW221709   1.037   2.373   5.380 -0.4178 -1.0436 -1.5525
 7089SOL     OW21710   3.826   5.352   3.942 -0.4459  0.4894 -0.1678
 7089SOL    HW121711   3.853   5.261   3.942 -0.8531  0.3516  1.0244
 7089SOL    HW221712   3.907   5.401   3.930  0.1063  0.0262  1.4742
 7090SOL     OW21713   6.114   5.465   5.772 -0.7833 -0.0851  0.6851
 7090SOL    HW121714   6.051   5.495   5.707  0.1242  1.7585  0.5695
 7090SOL    HW221715   6.084   5.503   5.855 -0.5124 -0.2563  0.8655
 7091SOL     OW21716   3.956   2.645   2.862  0.0745  0.3282  0.3909
 7091SOL    HW121717   3.902   2.688   2.796 -1.2232  0.2709  1.3769
 7091SOL    HW221718   3.945   2.551   2.845 -0.0813  0.3179  0.5462
 7092SOL     OW21719   1.715   3.159   1.568  0.0878 -0.0379 -0.3980
 7092SOL    HW121720   1.700   3.076   1.614 -0.1524  0.6447  0.8252
 7092SOL    HW221721   1.808   3.158   1.546  0.1281 -0.5541 -0.2191
 7093SOL     OW21722   4.574   2.066   0.799 -0.2841 -0.1050  0.2831
 7093SOL    HW121723   4.509   2.111   0.853 -0.7508 -0.3941 -0.0316
 7093SOL    HW221724   4.634   2.025   0.862  0.0353  0.7919  0.5684
 7094SOL     OW21725   0.033   2.696   4.772 -0.0924  0.1463 -0.0314
 7094SOL    HW121726   0.035   2.762   4.842 -0.2316  0.9958 -0.8142
 7094SOL    HW221727   0.006   2.745   4.694 -0.5983 -0.9210 -0.5408
 7095SOL     OW21728   5.668   4.501   0.746  0.4759  0.5132 -0.1494
 7095SOL    HW121729   5.622   4.439   0.689  0.4091  0.1965  0.2507
 7095SOL    HW221730   5.606   4.518   0.817 -0.0385  2.0276 -0.9041
 7096SOL     OW21731   4.959   2.706   1.459 -0.6248 -0.1694  0.5307
 7096SOL    HW121732   4.994   2.723   1.371  3.2690  3.2468  2.3810
 7096SOL    HW221733   4.876   2.755   1.461  1.1634  3.2751 -0.2500
 7097SOL     OW21734   0.013   3.267   5.841  0.3918 -0.4438  0.1572
 7097SOL    HW121735  -0.037   3.251   5.921  0.3552 -0.6932  0.0850
 7097SOL    HW221736   0.023   3.362   5.838  1.5596 -0.5001  1.1775
 7098SOL     OW21737   4.114   2.735   4.349 -0.1917 -0.4851 -0.1971
 7098SOL    HW121738   4.047   2.793   4.386  0.5884  0.0269  0.4342
 7098SOL    HW221739   4.071   2.649   4.343 -0.1469 -0.7871  2.6253
 7099SOL     OW21740   3.124   5.067   4.925  0.4472 -0.3738  0.1792
 7099SOL    HW121741   3.130   5.162   4.913  1.1866 -0.1554  1.9609
 7099SOL    HW221742   3.038   5.044   4.890  1.4469  0.4034 -3.2058
 7100SOL     OW21743   5.855   1.918   3.720 -0.1571 -0.2047 -0.1656
 7100SOL    HW121744   5.878   1.827   3.738 -0.0509 -0.2111 -0.3338
 7100SOL    HW221745   5.896   1.937   3.636 -0.6537 -0.1719 -0.4004
 7101SOL     OW21746   3.972   2.872   1.549 -0.6487 -0.0914  0.4732
 7101SOL    HW121747   4.036   2.903   1.613  0.9346 -3.1160  0.5105
 7101SOL    HW221748   3.902   2.833   1.602  0.1478 -1.6251  0.4602
 7102SOL     OW21749   2.331   5.181   4.332 -0.1885 -0.3917 -0.3344
 7102SOL    HW121750   2.287   5.139   4.406 -1.2743  0.3079 -0.5572
 7102SOL    HW221751   2.393   5.115   4.301  0.7189 -0.4909  1.5307
 7103SOL     OW21752   0.045   2.178   0.082  0.2593  0.0848 -0.1307
 7103SOL    HW121753   0.102   2.253   0.064  0.5804  0.0182  0.5394
 7103SOL    HW221754   0.102   2.102   0.072 -0.3712 -0.1785 -2.0482
 7104SOL     OW21755   5.263   1.185   1.163  0.4012  0.1238  0.3435
 7104SOL    HW121756   5.171   1.174   1.138  0.3985 -2.4236  1.2630
 7104SOL    HW221757   5.309   1.116   1.117  1.3927 -0.4291  2.0749
 7105SOL     OW21758   2.643   0.433   2.607  0.7608  0.3162 -0.0173
 7105SOL    HW121759   2.630   0.338   2.614  1.4494  0.2886  1.0612
 7105SOL    HW221760   2.595   0.457   2.528 -0.0261 -0.8191  0.0845
 7106SOL     OW21761   0.836   4.623   3.375  0.2534 -0.3012 -0.3995
 7106SOL    HW121762   0.878   4.710   3.380  1.6459 -0.6961 -3.1740
 7106SOL    HW221763   0.866   4.578   3.454  1.1991  1.0534  0.0628
 7107SOL     OW21764   0.914   1.175   5.974  0.4573 -0.3256 -0.0541
 7107SOL    HW121765   0.868   1.180   5.891  0.1006 -0.9336  0.1015
 7107SOL    HW221766   0.974   1.101   5.965  0.2487 -0.5454  0.3046
 7108SOL     OW21767   0.204   5.429   3.438 -0.1727  0.0447 -0.2761
 7108SOL    HW121768   0.278   5.420   3.499 -1.6202  1.1353  1.7443
 7108SOL    HW221769   0.141   5.364   3.468 -0.4252 -0.2723 -1.4417
 7109SOL     OW21770   2.476   5.376   0.478  0.4198 -0.2806 -0.3708
 7109SOL    HW121771   2.440   5.378   0.567 -1.5457  2.0537 -1.1077
 7109SOL    HW221772   2.452   5.289   0.444 -0.8005 -0.3533  0.6204
 7110SOL     OW21773   3.228   2.506   1.550  0.1821  0.5532 -0.2240
 7110SOL    HW121774   3.254   2.593   1.521  1.8493 -0.0385 -0.6729
 7110SOL    HW221775   3.211   2.458   1.469 -3.4626  1.1247  0.0315
 7111SOL     OW21776   1.151   2.975   5.755  0.3267 -0.0526 -0.4030
 7111SOL    HW121777   1.222   2.923   5.794  0.1613  0.6574  0.8859
 7111SOL    HW221778   1.191   3.060   5.736  0.0385  0.0698 -0.4738
 7112SOL     OW21779   4.153   2.336   3.086  1.0312 -0.1588 -0.0720
 7112SOL    HW121780   4.149   2.260   3.029  0.8711  0.4268 -0.8627
 7112SOL    HW221781   4.169   2.410   3.027  0.1801  0.5534  0.5626
 7113SOL     OW21782   3.563   4.218   3.985  0.0638 -0.6632  0.4354
 7113SOL    HW121783   3.477   4.218   3.943  0.0854 -1.9019  0.3485
 7113SOL    HW221784   3.607   4.141   3.949  1.0679 -0.2566  0.7671
 7114SOL     OW21785   2.570   4.424   6.085 -0.1359 -0.1285 -0.2183
 7114SOL    HW121786   2.600   4.443   5.996 -0.2659  0.3926 -0.1546
 7114SOL    HW221787   2.647   4.437   6.140 -1.0150  4.1858  0.3537
 7115SOL     OW21788   6.116   5.819   5.559  0.3524  0.0641 -0.3653
 7115SOL    HW121789   6.069   5.826   5.642  0.8882  0.9345 -0.1177
 7115SOL    HW221790   6.072   5.748   5.512  0.3589 -0.7939  0.8735
 7116SOL     OW21791   3.849   1.181   1.372 -0.4509 -0.2288  0.4680
 7116SOL    HW121792   3.918   1.237   1.337  0.7364 -1.3420  0.9529
 7116SOL    HW221793   3.768   1.230   1.357  0.3061  0.5512 -1.2506
 7117SOL     OW21794   4.536   3.906   5.631 -0.6020 -0.8033  0.8494
 7117SOL    HW121795   4.464   3.951   5.587 -0.8509 -1.6990  0.3058
 7117SOL    HW221796   4.504   3.894   5.721 -0.0760  1.0559  1.3243
 7118SOL     OW21797   2.572   3.502   2.744 -0.7450  0.1180 -0.0019
 7118SOL    HW121798   2.520   3.531   2.669 -0.0904 -1.7310 -1.2464
 7118SOL    HW221799   2.613   3.420   2.714  1.1882  0.4028  1.6669
 7119SOL     OW21800   4.265   2.626   1.010 -0.5144  0.5366  0.5807
 7119SOL    HW121801   4.193   2.626   1.072 -0.3623  1.0311  0.7672
 7119SOL    HW221802   4.344   2.621   1.065 -0.4160 -1.6513  0.3276
 7120SOL     OW21803   1.355   3.407   0.181  0.5102 -0.0470 -0.1267
 7120SOL    HW121804   1.334   3.369   0.095  1.3999 -0.8071 -0.0179
 7120SOL    HW221805   1.428   3.355   0.213  0.4830  0.5296  0.9014
 7121SOL     OW21806   1.349   1.798   1.455 -0.2214 -0.8119  0.7731
 7121SOL    HW121807   1.333   1.854   1.531  1.4705 -0.6232  1.0231
 7121SOL    HW221808   1.429   1.750   1.477 -0.7484 -2.1735 -0.1055
 7122SOL     OW21809   0.515   1.643   3.692 -0.3854  0.5064 -0.1721
 7122SOL    HW121810   0.535   1.657   3.600  0.9412  0.3428  0.0736
 7122SOL    HW221811   0.511   1.548   3.701  0.1086  0.5036  0.0535
 7123SOL     OW21812   5.944   1.511   1.906 -0.5994 -0.4822  0.2417
 7123SOL    HW121813   5.982   1.513   1.994  0.1890 -1.3110 -0.0646
 7123SOL    HW221814   5.977   1.430   1.867  0.5446  0.6933 -1.4477
 7124SOL     OW21815   2.267   4.562   3.434  0.5257 -0.2022 -0.2216
 7124SOL    HW121816   2.320   4.639   3.453  1.4768 -0.9771  0.3490
 7124SOL    HW221817   2.309   4.491   3.481 -0.2215 -1.1264 -0.8905
 7125SOL     OW21818   4.596   0.050   0.342  0.1856  0.1655  0.1388
 7125SOL    HW121819   4.629   0.020   0.427  1.3700 -0.0130 -0.3509
 7125SOL    HW221820   4.673   0.044   0.284 -0.6810 -0.0483 -1.0204
 7126SOL     OW21821   2.114   2.526   2.847 -0.2530  0.5588 -0.1240
 7126SOL    HW121822   2.188   2.474   2.877 -1.5263  0.1696  2.6668
 7126SOL    HW221823   2.137   2.616   2.871 -1.1883  0.2715  1.9917
 7127SOL     OW21824   0.336   4.034   5.775  0.7269 -0.0016  0.1529
 7127SOL    HW121825   0.302   4.121   5.797 -1.3583  0.4395 -3.8778
 7127SOL    HW221826   0.360   4.040   5.683 -1.5066 -4.1198 -0.9637
 7128SOL     OW21827   4.111   3.197   4.775  0.4259 -0.0846 -0.3951
 7128SOL    HW121828   4.188   3.164   4.729  0.0661 -1.1806 -0.2410
 7128SOL    HW221829   4.138   3.203   4.867  0.0380 -1.4757 -0.1667
 7129SOL     OW21830   1.978   2.788   2.927 -0.1595 -0.0373  0.2630
 7129SOL    HW121831   1.905   2.820   2.980 -0.6810 -1.4850  0.4713
 7129SOL    HW221832   2.047   2.768   2.991 -1.0530 -2.4998  0.5671
 7130SOL     OW21833   1.649   0.021   4.536 -0.2366 -0.1999 -0.4624
 7130SOL    HW121834   1.702  -0.032   4.476  1.5148  0.5743  0.3215
 7130SOL    HW221835   1.699   0.102   4.546 -1.1873  0.2436  0.9521
 7131SOL     OW21836   2.184   1.535   3.734  0.7983 -0.1086  0.1703
 7131SOL    HW121837   2.233   1.613   3.762 -1.1460  1.1032  0.3267
 7131SOL    HW221838   2.152   1.497   3.816 -0.2293  0.2716 -0.0492
 7132SOL     OW21839   4.763   4.803   1.611  0.5129  0.2851 -0.1162
 7132SOL    HW121840   4.668   4.806   1.618  0.5704 -0.4625  1.2298
 7132SOL    HW221841   4.781   4.823   1.519 -0.8817  1.5009 -0.1565
 7133SOL     OW21842   5.112   5.068   3.521 -0.1114 -0.1402 -0.2849
 7133SOL    HW121843   5.149   5.105   3.601  1.3440 -1.1139 -0.4694
 7133SOL    HW221844   5.075   5.143   3.475  1.8327  0.9642 -0.1674
 7134SOL     OW21845   0.540   2.374   4.820 -0.2814 -0.1389 -0.6618
 7134SOL    HW121846   0.602   2.368   4.893 -2.0330 -2.4561  0.7987
 7134SOL    HW221847   0.475   2.437   4.849 -1.7952 -2.1444  0.5946
 7135SOL     OW21848   5.745   6.008   0.404  0.6989  0.0140  0.2400
 7135SOL    HW121849   5.705   5.924   0.380 -0.3874  1.0740 -1.8908
 7135SOL    HW221850   5.828   5.984   0.444  0.5192 -2.0811 -0.5295
 7136SOL     OW21851   4.202   3.787   2.214  0.0996  0.2134  0.1651
 7136SOL    HW121852   4.224   3.708   2.164  1.4171  1.5115 -1.4209
 7136SOL    HW221853   4.140   3.834   2.158 -2.0219 -0.4383  1.8545
 7137SOL     OW21854   4.780   0.146   2.039 -0.0197 -0.4909  0.0179
 7137SOL    HW121855   4.719   0.206   2.082 -0.9765 -0.0904 -1.8294
 7137SOL    HW221856   4.732   0.064   2.031 -0.2074 -0.2890 -1.0881
 7138SOL     OW21857   1.161   5.447   5.507 -0.0852  0.3285 -0.2345
 7138SOL    HW121858   1.103   5.509   5.463  1.4848  2.0221 -0.0368
 7138SOL    HW221859   1.145   5.461   5.601 -0.9212 -0.7712 -0.2072
 7139SOL     OW21860   2.833   3.060   5.453 -0.2493  0.0342  0.4826
 7139SOL    HW121861   2.862   2.984   5.504  1.0176  0.0456 -0.1669
 7139SOL    HW221862   2.865   3.136   5.502  0.3402  0.0690  0.0493
 7140SOL     OW21863   4.646   4.625   0.081  0.0744 -0.0653 -0.4788
 7140SOL    HW121864   4.689   4.701   0.043  1.2493 -0.7141 -0.5051
 7140SOL    HW221865   4.718   4.568   0.107 -0.7641 -0.6491  0.6121
 7141SOL     OW21866   2.677   5.020   4.874 -0.1997 -0.4388 -0.3299
 7141SOL    HW121867   2.626   5.093   4.838 -0.0170 -0.0451  0.1883
 7141SOL    HW221868   2.613   4.962   4.913 -0.2168  0.6761  1.4496
 7142SOL     OW21869   1.350   3.562   0.626  0.3092 -0.4995 -0.4130
 7142SOL    HW121870   1.431   3.613   0.633  0.2496 -0.3342 -0.9155
 7142SOL    HW221871   1.330   3.538   0.716  0.8458 -0.4267 -0.2669
 7143SOL     OW21872   0.768   0.971   0.849 -0.3784  0.1542 -0.0705
 7143SOL    HW121873   0.856   1.009   0.852 -0.6977  0.9454 -0.4325
 7143SOL    HW221874   0.733   0.998   0.765 -1.5347  1.1425  0.6945
 7144SOL     OW21875   4.044   2.305   6.014  0.1267 -0.1189  0.6023
 7144SOL    HW121876   4.094   2.335   6.090 -0.5341 -0.0673  1.0292
 7144SOL    HW221877   3.999   2.226   6.045  3.8015 -3.2340 -1.1953
 7145SOL     OW21878   0.549   2.585   0.537  0.5279 -0.4195  0.0039
 7145SOL    HW121879   0.582   2.499   0.564  0.7628 -0.6302 -0.9387
 7145SOL    HW221880   0.463   2.592   0.579  0.7558 -0.8565  0.5643
 7146SOL     OW21881   0.500   2.385   0.100 -0.0883  0.0877 -0.3594
 7146SOL    HW121882   0.406   2.397   0.117 -0.2375  0.2171 -1.2152
 7146SOL    HW221883   0.524   2.308   0.152 -0.0803  1.4844  1.8464
 7147SOL     OW21884   5.069   4.659   2.286  0.2517  0.2390  0.2008
 7147SOL    HW121885   5.108   4.573   2.305 -0.7688 -0.5585 -1.0947
 7147SOL    HW221886   4.995   4.666   2.347  0.1088  0.0162  0.0560
 7148SOL     OW21887   0.734   0.202   2.007  0.2446 -0.2811 -0.0096
 7148SOL    HW121888   0.665   0.160   1.956  0.1751 -0.7558  0.4691
 7148SOL    HW221889   0.812   0.195   1.953 -0.2354  1.0035 -0.9344
 7149SOL     OW21890   1.612   1.145   1.023  0.3812  0.0917 -0.2598
 7149SOL    HW121891   1.567   1.214   0.974  0.7095 -0.3292 -1.1934
 7149SOL    HW221892   1.659   1.191   1.092  1.0349  0.8864 -1.1952
 7150SOL     OW21893   1.340   1.832   5.779  0.2554 -0.3022 -0.1589
 7150SOL    HW121894   1.266   1.780   5.810 -0.6057  0.1583 -1.3946
 7150SOL    HW221895   1.401   1.833   5.854 -1.4755  0.2778  1.3139
 7151SOL     OW21896   3.571   2.757   2.526 -0.4882  0.1889 -0.2631
 7151SOL    HW121897   3.575   2.727   2.435  0.3059  1.1522 -0.5553
 7151SOL    HW221898   3.498   2.708   2.564 -1.0237  0.0067 -1.5000
 7152SOL     OW21899   1.567   1.359   1.857 -0.3674 -0.0839 -0.1025
 7152SOL    HW121900   1.502   1.342   1.925  1.1981 -1.1882  1.1872
 7152SOL    HW221901   1.604   1.273   1.838 -0.2457  0.3091 -1.8691
 7153SOL     OW21902   1.866   4.719   1.876 -0.7702  0.4932 -0.4170
 7153SOL    HW121903   1.885   4.636   1.831 -1.4424  0.6832 -1.0645
 7153SOL    HW221904   1.832   4.692   1.962 -0.8312  0.1061 -0.5596
 7154SOL     OW21905   4.355   4.432   4.300 -0.1668 -0.4280 -0.1748
 7154SOL    HW121906   4.309   4.372   4.359  1.5934  0.2002  1.9681
 7154SOL    HW221907   4.447   4.426   4.325  0.5526  0.6013 -2.2639
 7155SOL     OW21908   4.720   5.218   6.009  0.1757 -0.1653  0.3256
 7155SOL    HW121909   4.781   5.146   6.026  1.3055  1.0283  1.5723
 7155SOL    HW221910   4.661   5.218   6.085  1.4779  1.4483  1.4090
 7156SOL     OW21911   6.003   0.281   0.557 -0.2400 -0.1569 -0.2572
 7156SOL    HW121912   6.045   0.195   0.558 -1.9089 -1.1166 -2.8559
 7156SOL    HW221913   6.033   0.321   0.476 -1.3289  0.7120 -0.2460
 7157SOL     OW21914   1.797   1.907   3.279  0.3605  0.4200  0.3821
 7157SOL    HW121915   1.840   1.823   3.293  1.2175  1.1038  2.2787
 7157SOL    HW221916   1.865   1.972   3.299 -0.8749  1.5356  1.1450
 7158SOL     OW21917   4.548   3.973   3.454 -0.3067  0.0930 -0.1197
 7158SOL    HW121918   4.591   3.913   3.392 -0.4126  1.5300 -1.6584
 7158SOL    HW221919   4.455   3.966   3.432 -0.3150  0.8185 -0.3273
 7159SOL     OW21920   1.274   1.826   3.948  0.4668  0.8852  0.2339
 7159SOL    HW121921   1.265   1.918   3.924 -1.6177  0.6065 -0.2060
 7159SOL    HW221922   1.258   1.778   3.867  0.1201  0.0965  0.7557
 7160SOL     OW21923   0.617   3.313   5.233  0.0522 -0.1499 -0.5747
 7160SOL    HW121924   0.565   3.262   5.171 -1.6380  0.0838  0.5949
 7160SOL    HW221925   0.556   3.377   5.269  1.3253  0.5793  0.3775
 7161SOL     OW21926   4.856   4.517   1.705  0.1783 -0.0951  0.2151
 7161SOL    HW121927   4.843   4.612   1.705  1.8696  0.1676  0.1106
 7161SOL    HW221928   4.771   4.481   1.679 -0.6992  1.3480  0.9643
 7162SOL     OW21929   2.245   1.303   5.931 -0.1480 -0.2420  0.0418
 7162SOL    HW121930   2.187   1.236   5.893  0.1133  0.8288 -2.4682
 7162SOL    HW221931   2.250   1.370   5.863  0.6727  1.7103  1.9381
 7163SOL     OW21932   0.292   3.635   1.277  0.3606 -0.6359  0.0690
 7163SOL    HW121933   0.298   3.676   1.363 -0.4231 -1.5142  0.5517
 7163SOL    HW221934   0.267   3.707   1.218 -0.0405 -0.2294  0.7266
 7164SOL     OW21935   4.999   4.922   5.385  0.6890 -0.2470  0.2941
 7164SOL    HW121936   4.972   4.941   5.295  1.3556 -2.0856 -0.3457
 7164SOL    HW221937   5.092   4.901   5.378  1.1205  1.0545  1.6773
 7165SOL     OW21938   2.679   3.097   0.131  0.2209 -0.2527  0.7574
 7165SOL    HW121939   2.641   3.183   0.111 -1.6290 -1.2960 -0.5159
 7165SOL    HW221940   2.761   3.095   0.081  0.8477  1.1560  1.6716
 7166SOL     OW21941   0.979   5.156   2.059 -0.4566 -0.5166 -1.0109
 7166SOL    HW121942   0.926   5.089   2.102 -0.5196 -0.9684 -1.7722
 7166SOL    HW221943   1.058   5.162   2.113 -1.2136  0.0916  0.0724
 7167SOL     OW21944   2.582   5.555   2.493  0.1556 -0.2940  0.3659
 7167SOL    HW121945   2.560   5.596   2.576 -0.6322 -0.5239  0.2777
 7167SOL    HW221946   2.645   5.487   2.515 -0.1610 -0.4516  0.8001
 7168SOL     OW21947   4.426   0.851   4.754 -0.3485 -0.4864 -0.0850
 7168SOL    HW121948   4.517   0.835   4.728 -0.7788 -1.2990 -1.1879
 7168SOL    HW221949   4.417   0.947   4.753 -0.1193 -0.4342 -2.3401
 7169SOL     OW21950   5.359   1.478   3.519  0.0164 -0.1976  0.4208
 7169SOL    HW121951   5.370   1.518   3.606  1.4211 -0.2328  0.2791
 7169SOL    HW221952   5.395   1.390   3.529  0.9808  0.0902 -0.4104
 7170SOL     OW21953   4.886   5.668   1.865  0.0516 -0.1538 -0.2081
 7170SOL    HW121954   4.924   5.660   1.953  0.3864  0.7135 -0.2593
 7170SOL    HW221955   4.822   5.598   1.860 -2.5146  1.8241  2.0232
 7171SOL     OW21956   0.692   3.264   4.506  0.1749 -0.0499 -0.4100
 7171SOL    HW121957   0.718   3.324   4.576  1.6843 -1.2015  0.0635
 7171SOL    HW221958   0.623   3.311   4.459  0.4412  1.5282  0.6945
 7172SOL     OW21959   5.088   5.037   4.447 -0.3065  0.4239  0.6087
 7172SOL    HW121960   5.132   4.963   4.487  0.4008  0.3247 -0.3198
 7172SOL    HW221961   5.011   4.999   4.404  1.6338 -0.3663 -2.5012
 7173SOL     OW21962   2.137   5.347   1.698 -0.2909  0.0881 -0.1245
 7173SOL    HW121963   2.082   5.300   1.762 -1.9821 -0.8118 -2.1295
 7173SOL    HW221964   2.096   5.328   1.614  0.5760  3.0319 -1.3018
 7174SOL     OW21965   2.589   4.478   1.073  0.3245 -0.0614  0.2268
 7174SOL    HW121966   2.625   4.391   1.061  1.6663  0.6213 -0.9456
 7174SOL    HW221967   2.618   4.504   1.161  1.5337 -0.0926 -0.1411
 7175SOL     OW21968   3.853   2.021   5.253  0.0232 -0.1183 -0.2376
 7175SOL    HW121969   3.909   1.944   5.260 -1.9803 -1.6263  0.0507
 7175SOL    HW221970   3.832   2.044   5.344 -1.5660 -0.9704 -0.3439
 7176SOL     OW21971   6.020   5.752   2.613  0.2537 -0.2423 -0.1954
 7176SOL    HW121972   5.993   5.688   2.679 -0.1419  0.0377 -0.0827
 7176SOL    HW221973   6.029   5.702   2.532 -0.1797 -0.4166 -0.1353
 7177SOL     OW21974   3.224   3.471   3.858  0.2854 -0.2793  0.1629
 7177SOL    HW121975   3.213   3.566   3.860  0.5471 -0.2547  0.7382
 7177SOL    HW221976   3.316   3.458   3.832 -0.0179 -0.3989 -0.8738
 7178SOL     OW21977   5.176   3.484   1.076  0.3292 -0.1468  0.3002
 7178SOL    HW121978   5.146   3.490   1.167  0.2089 -1.4226  0.3520
 7178SOL    HW221979   5.096   3.475   1.024  0.3705  0.9630  0.0101
 7179SOL     OW21980   2.339   2.515   6.112  0.2301 -0.1705  0.3164
 7179SOL    HW121981   2.421   2.480   6.077  0.8538  0.7336  0.8332
 7179SOL    HW221982   2.349   2.610   6.105 -0.3869 -0.0295  1.2417
 7180SOL     OW21983   3.742   3.944   0.636  0.3767  0.4924 -0.3760
 7180SOL    HW121984   3.832   3.945   0.669  0.1509 -1.0653  0.3369
 7180SOL    HW221985   3.747   3.991   0.553  1.8677  0.3604 -0.3877
 7181SOL     OW21986   3.927   2.474   3.731 -0.4563  0.2583  0.1920
 7181SOL    HW121987   3.882   2.412   3.673  1.2250  0.0053 -0.9329
 7181SOL    HW221988   4.012   2.489   3.688 -0.7269  3.2270  0.5068
 7182SOL     OW21989   5.831   5.915   5.324 -0.1987 -0.5222  0.0809
 7182SOL    HW121990   5.758   5.870   5.282 -0.8197 -0.3419  0.9300
 7182SOL    HW221991   5.890   5.938   5.253 -0.0522 -2.3098 -0.4171
 7183SOL     OW21992   5.220   5.167   3.753  0.3108  0.3249  0.0834
 7183SOL    HW121993   5.221   5.161   3.849  1.7157  1.6864  0.1857
 7183SOL    HW221994   5.297   5.220   3.731 -1.1666  1.8660 -1.6764
 7184SOL     OW21995   1.044   3.098   4.950 -0.4927  0.5473  0.4491
 7184SOL    HW121996   0.974   3.163   4.947 -0.7785  0.2735  0.9822
 7184SOL    HW221997   1.042   3.065   5.040 -0.8405 -0.7217 -0.0124
 7185SOL     OW21998   0.029   1.053   5.842 -0.5893 -0.0633  0.0142
 7185SOL    HW121999  -0.014   0.994   5.780 -1.4206 -0.9806  1.4190
 7185SOL    HW222000  -0.012   1.138   5.824 -2.1359 -0.6711  0.4755
 7186SOL     OW22001   0.794   5.453   5.577  0.0256  0.0883 -0.0705
 7186SOL    HW122002   0.788   5.537   5.531 -1.5785  0.1805  0.2678
 7186SOL    HW222003   0.713   5.447   5.626  0.4401 -1.3547  0.4674
 7187SOL     OW22004   0.449   1.644   1.373 -0.2601  0.5906 -0.2867
 7187SOL    HW122005   0.519   1.696   1.412 -0.1282  1.1434 -1.2284
 7187SOL    HW222006   0.484   1.615   1.289 -0.2226 -1.3003  0.3459
 7188SOL     OW22007   2.919   2.843   4.157  0.4011 -0.3355 -0.1560
 7188SOL    HW122008   2.940   2.769   4.099  0.1071 -1.8517  1.5767
 7188SOL    HW222009   2.831   2.870   4.129  1.3167  0.7456 -2.1385
 7189SOL     OW22010   4.926   2.628   2.674 -0.3761  0.1258 -0.0569
 7189SOL    HW122011   4.920   2.657   2.583 -0.6744  1.6273  0.4110
 7189SOL    HW222012   4.839   2.646   2.711  0.1109  0.7262  0.8428
 7190SOL     OW22013   1.356   2.017   0.324 -0.0287 -0.2967  0.4692
 7190SOL    HW122014   1.401   1.933   0.337  0.3614 -0.1191  0.2757
 7190SOL    HW222015   1.339   2.049   0.413  0.9403  0.0134  0.5451
 7191SOL     OW22016   4.652   1.419   3.879  0.4362  0.1830  0.7759
 7191SOL    HW122017   4.668   1.514   3.881  0.4961  0.2973 -1.7798
 7191SOL    HW222018   4.726   1.382   3.927  2.3039  1.3130 -1.0520
 7192SOL     OW22019   3.999   5.592   5.209  0.0786  0.5922 -0.1014
 7192SOL    HW122020   4.049   5.543   5.274  0.6505  0.4010 -0.6689
 7192SOL    HW222021   4.046   5.578   5.127 -1.1158  0.1083 -0.7259
 7193SOL     OW22022   3.886   0.341   2.936 -0.0610  0.4767  0.1632
 7193SOL    HW122023   3.945   0.359   2.863  0.6655  0.8738  0.8235
 7193SOL    HW222024   3.809   0.301   2.897 -0.3950  2.1704 -1.0254
 7194SOL     OW22025   2.871   1.291   1.812  0.3337  0.7289  0.0951
 7194SOL    HW122026   2.924   1.216   1.784  0.5941  0.6947  0.6663
 7194SOL    HW222027   2.801   1.252   1.864 -0.4287  0.7471 -0.8947
 7195SOL     OW22028   4.095   2.371   2.245 -0.4120 -0.0465  0.0932
 7195SOL    HW122029   4.032   2.345   2.178 -0.0011  2.3047 -1.3347
 7195SOL    HW222030   4.159   2.425   2.198  1.7583 -0.9688  1.7941
 7196SOL     OW22031   3.305   3.914   5.665  0.4303  0.4412  0.3093
 7196SOL    HW122032   3.392   3.928   5.700 -0.2617 -0.3462  2.5002
 7196SOL    HW222033   3.319   3.897   5.572  2.4609  1.6371  0.3398
 7197SOL     OW22034   2.690   1.581   5.237  0.3272  0.9000  0.5678
 7197SOL    HW122035   2.739   1.500   5.248 -0.9972  0.3938  3.6141
 7197SOL    HW222036   2.755   1.650   5.254  1.4479  0.6098 -2.0033
 7198SOL     OW22037   3.028   3.298   2.959 -0.0506 -0.7588  0.0119
 7198SOL    HW122038   2.985   3.379   2.986 -0.4412 -1.7182  2.5622
 7198SOL    HW222039   3.011   3.292   2.865 -2.0418  0.9350  0.1939
 7199SOL     OW22040   1.183   4.693   3.962  0.6202  0.1159  0.7137
 7199SOL    HW122041   1.101   4.689   4.012 -1.3486 -0.0887 -2.2388
 7199SOL    HW222042   1.187   4.784   3.930  1.1444 -0.0795  0.2085
 7200SOL     OW22043   3.411   5.866   3.112 -0.1844  0.1656  0.4489
 7200SOL    HW122044   3.340   5.926   3.136 -0.4401 -0.2648  0.7837
 7200SOL    HW222045   3.415   5.804   3.185 -1.3093 -1.4926 -0.8372
 7201SOL     OW22046   4.275   6.040   1.829  0.3273  0.1458 -0.2145
 7201SOL    HW122047   4.322   5.994   1.759 -1.2320  0.3810 -1.4684
 7201SOL    HW222048   4.315   6.127   1.831  0.4945  0.0858 -0.7159
 7202SOL     OW22049   5.056   2.737   5.174  0.1734 -0.6465  0.1787
 7202SOL    HW122050   5.097   2.676   5.236  0.8460 -1.0618 -0.6567
 7202SOL    HW222051   5.127   2.761   5.114 -0.2089  0.5793  0.1962
 7203SOL     OW22052   2.237   2.999   1.461 -0.4719 -0.3765  1.4058
 7203SOL    HW122053   2.176   3.069   1.484 -1.3012 -0.0807 -1.3767
 7203SOL    HW222054   2.189   2.919   1.480 -1.7527 -0.1449 -0.5756
 7204SOL     OW22055   3.412   0.291   5.930  0.0377  0.1513 -0.4356
 7204SOL    HW122056   3.441   0.376   5.962 -0.0777  0.8893 -2.1570
 7204SOL    HW222057   3.417   0.233   6.006  0.2657  1.6495  0.7338
 7205SOL     OW22058   5.261   2.464   6.044  0.1396 -0.1270  0.2830
 7205SOL    HW122059   5.309   2.423   6.116  0.9684  0.3039 -0.0039
 7205SOL    HW222060   5.215   2.537   6.084 -1.7559 -1.5929  0.8906
 7206SOL     OW22061   2.991   5.183   3.700  0.1368 -0.2028  0.3950
 7206SOL    HW122062   3.002   5.176   3.605 -0.5419 -1.3210  0.3930
 7206SOL    HW222063   2.958   5.272   3.713 -2.2902 -0.8752 -0.6711
 7207SOL     OW22064   1.169   2.775   0.738  0.4169 -0.1162 -0.2188
 7207SOL    HW122065   1.191   2.699   0.684  0.8535 -0.1675  0.0219
 7207SOL    HW222066   1.086   2.807   0.702 -0.1928 -1.1842  0.1806
 7208SOL     OW22067   3.371   2.962   2.067 -0.1232 -0.3556  0.1623
 7208SOL    HW122068   3.310   3.032   2.090  0.0821 -0.2268  0.3135
 7208SOL    HW222069   3.315   2.885   2.057 -0.5003  0.0483 -1.0891
 7209SOL     OW22070   3.304   0.013   2.460 -0.1322 -0.5202 -0.0392
 7209SOL    HW122071   3.324  -0.077   2.434 -2.3864 -1.4451  1.1354
 7209SOL    HW222072   3.208   0.017   2.462 -0.1217  2.1451 -0.7480
 7210SOL     OW22073   3.556   0.634   4.849 -0.8335 -0.4583 -0.2818
 7210SOL    HW122074   3.573   0.580   4.772  0.2966 -1.1211  0.3973
 7210SOL    HW222075   3.486   0.588   4.896 -1.3233 -0.2058 -0.7631
 7211SOL     OW22076   0.231   4.809   3.956  0.1730 -0.8533 -0.3225
 7211SOL    HW122077   0.155   4.754   3.976  0.7905 -1.8100 -0.5447
 7211SOL    HW222078   0.218   4.887   4.010 -0.6097 -1.3079  0.1813
 7212SOL     OW22079   1.316   4.365   5.838 -0.0781 -0.2772  0.0470
 7212SOL    HW122080   1.393   4.390   5.789  0.6126  0.1522  1.3069
 7212SOL    HW222081   1.242   4.400   5.787  0.5982  0.0643 -0.7139
 7213SOL     OW22082   0.124   1.691   1.952 -0.4242 -0.0408 -0.2587
 7213SOL    HW122083   0.157   1.609   1.915 -2.2644 -1.3296  0.7694
 7213SOL    HW222084   0.083   1.665   2.034 -0.7259  1.9946  0.2874
 7214SOL     OW22085   3.190   1.435   0.737  0.3075 -0.1780 -0.6167
 7214SOL    HW122086   3.179   1.507   0.798  1.0250 -1.4335  1.0596
 7214SOL    HW222087   3.276   1.451   0.696  0.0287  0.4131 -0.9963
 7215SOL     OW22088   4.478   1.438   2.687  0.2905 -0.2080 -0.0581
 7215SOL    HW122089   4.425   1.385   2.746 -0.1911  0.7010  0.3593
 7215SOL    HW222090   4.447   1.528   2.701  1.9690  0.3692  0.2295
 7216SOL     OW22091   6.067   3.634   3.997 -0.1889 -0.0527 -0.0805
 7216SOL    HW122092   6.027   3.675   3.921 -0.9792  0.2301  0.4763
 7216SOL    HW222093   6.032   3.682   4.072  2.0362  0.9393  0.3996
 7217SOL     OW22094   6.019   2.937   3.684 -0.1374  0.4639 -0.0212
 7217SOL    HW122095   5.950   2.992   3.722 -1.3750 -0.8667 -0.2258
 7217SOL    HW222096   6.089   2.998   3.661 -1.7733  2.0576 -0.9947
 7218SOL     OW22097   0.668   2.469   2.055 -0.5210 -0.2531  0.3618
 7218SOL    HW122098   0.643   2.381   2.085  0.9189 -0.9519 -0.3845
 7218SOL    HW222099   0.614   2.484   1.977 -0.7638 -0.4688  0.4852
 7219SOL     OW22100   1.631   4.891   2.522 -0.2560 -0.1539  0.4480
 7219SOL    HW122101   1.676   4.860   2.601  1.0038  1.3822  0.3967
 7219SOL    HW222102   1.702   4.913   2.461 -1.1072  1.2299 -0.0836
 7220SOL     OW22103   0.939   2.891   0.948  0.0920 -0.4376 -0.4351
 7220SOL    HW122104   0.944   2.985   0.962 -1.3713 -0.4533  0.4492
 7220SOL    HW222105   0.917   2.881   0.856 -3.1709  0.2939  0.1309
 7221SOL     OW22106   2.919   1.988   4.771 -0.3123  0.5300 -0.3014
 7221SOL    HW122107   2.955   1.941   4.696  0.1467 -1.3879  1.0636
 7221SOL    HW222108   2.935   2.080   4.751  2.4088 -0.0663 -1.2560
 7222SOL     OW22109   0.958   4.475   5.412  0.2149 -0.3313  0.2514
 7222SOL    HW122110   0.863   4.475   5.401  0.3276 -2.3238 -1.1706
 7222SOL    HW222111   0.992   4.503   5.327  0.9081 -2.0400 -0.0699
 7223SOL     OW22112   4.598   1.199   4.804 -0.0796 -0.3025 -0.1944
 7223SOL    HW122113   4.583   1.226   4.713 -0.4361 -0.8268 -0.2996
 7223SOL    HW222114   4.688   1.167   4.805  0.5382  1.3726  0.0626
 7224SOL     OW22115   5.323   5.928   2.550 -0.6121 -0.3152 -0.1399
 7224SOL    HW122116   5.352   5.960   2.465  0.7522 -0.1635  0.3589
 7224SOL    HW222117   5.276   6.002   2.589  0.6065  0.3407  0.1024
 7225SOL     OW22118   4.912   1.382   5.011 -0.3305 -0.8385 -0.3389
 7225SOL    HW122119   4.995   1.407   5.052 -0.6615  0.7548 -0.5987
 7225SOL    HW222120   4.883   1.306   5.061  1.4394 -1.6647 -0.4583
 7226SOL     OW22121   4.055   0.448   3.171  0.0393  0.0070  0.2425
 7226SOL    HW122122   4.110   0.505   3.117  0.0310 -0.8726 -0.7219
 7226SOL    HW222123   4.117   0.400   3.226  0.1083  0.2627  0.3905
 7227SOL     OW22124   3.720   0.604   0.840  0.3907 -0.2992  0.0613
 7227SOL    HW122125   3.745   0.692   0.811 -2.5213  1.1522  1.5290
 7227SOL    HW222126   3.660   0.573   0.772 -1.2068  0.3085  1.1520
 7228SOL     OW22127   3.479   4.154   3.327  0.8738 -0.3079 -0.2513
 7228SOL    HW122128   3.421   4.204   3.385 -0.4981  0.0041 -1.8095
 7228SOL    HW222129   3.483   4.205   3.247  0.2011 -2.1970 -1.5601
 7229SOL     OW22130   1.100   5.100   6.131 -0.9542 -0.1817 -0.3139
 7229SOL    HW122131   1.187   5.111   6.091 -0.5444 -1.0005  0.3113
 7229SOL    HW222132   1.072   5.188   6.152  0.2893  0.0140  0.6198
 7230SOL     OW22133   4.618   3.168   5.622 -0.5085  0.5234  0.0500
 7230SOL    HW122134   4.587   3.172   5.712  0.6366 -1.2761  0.5862
 7230SOL    HW222135   4.683   3.238   5.615  0.7881 -0.4951  1.2469
 7231SOL     OW22136   0.817   1.525   1.866 -0.0662  0.2025  0.0321
 7231SOL    HW122137   0.833   1.605   1.916 -1.5989  0.6228 -0.0897
 7231SOL    HW222138   0.722   1.518   1.862 -0.0219 -2.3975  1.2729
 7232SOL     OW22139   0.172   2.994   1.530  0.6269  0.3776  0.5052
 7232SOL    HW122140   0.261   2.960   1.517  0.3860  0.5017 -2.0061
 7232SOL    HW222141   0.144   2.958   1.614  2.0902 -1.7942  0.1324
 7233SOL     OW22142   4.641   2.992   4.618  0.3564 -0.3717  0.4458
 7233SOL    HW122143   4.603   2.952   4.696  0.6757 -0.5506  0.5106
 7233SOL    HW222144   4.706   3.054   4.652  0.1359 -0.0781  0.3359
 7234SOL     OW22145   0.438   3.084   2.126  0.1927 -0.0089  0.3264
 7234SOL    HW122146   0.358   3.065   2.078 -0.4070 -0.8048  1.5744
 7234SOL    HW222147   0.423   3.170   2.165  0.4621  0.3950 -0.4429
 7235SOL     OW22148   5.077   1.606   6.044 -0.4134 -0.3309 -0.3919
 7235SOL    HW122149   5.106   1.629   5.956 -1.7504 -1.3830 -1.1364
 7235SOL    HW222150   5.007   1.543   6.031  0.8488 -2.2567  1.4852
 7236SOL     OW22151   1.061   4.139   3.582 -0.3577  0.5023 -0.6486
 7236SOL    HW122152   0.992   4.204   3.595  1.0139  1.8956 -0.1238
 7236SOL    HW222153   1.143   4.188   3.589  0.7201 -1.2068 -0.6826
 7237SOL     OW22154   1.694   1.358   2.739  0.1261 -0.1719 -0.0907
 7237SOL    HW122155   1.632   1.286   2.725 -0.7080  0.5481 -0.2008
 7237SOL    HW222156   1.769   1.318   2.782 -0.1284 -1.1919 -0.5756
 7238SOL     OW22157   6.064   2.186   4.788 -0.2375  0.0843 -0.5120
 7238SOL    HW122158   5.976   2.214   4.762 -0.6424  0.1274  0.8215
 7238SOL    HW222159   6.076   2.102   4.745 -1.0542 -0.0576 -0.4823
 7239SOL     OW22160   5.233   4.400   2.783 -0.0038  0.4757  0.4121
 7239SOL    HW122161   5.292   4.475   2.789 -2.9136  2.8338  2.5410
 7239SOL    HW222162   5.242   4.355   2.867  0.3857 -0.5385 -0.1488
 7240SOL     OW22163   1.512   0.119   2.985 -0.0937  0.6254  0.8373
 7240SOL    HW122164   1.598   0.131   2.943 -0.3163 -0.1431  0.1497
 7240SOL    HW222165   1.471   0.048   2.936 -0.9044  0.6129  1.5212
 7241SOL     OW22166   1.775   1.904   4.663 -0.0568 -0.5468  0.3135
 7241SOL    HW122167   1.770   1.830   4.602  0.2222  0.4646 -0.9708
 7241SOL    HW222168   1.691   1.949   4.654 -1.3802 -2.1715  3.1147
 7242SOL     OW22169   1.632   4.264   0.826  0.2122  0.0456 -0.0745
 7242SOL    HW122170   1.593   4.351   0.818  2.2120  0.8905 -1.3283
 7242SOL    HW222171   1.691   4.271   0.902 -1.7963 -1.1705  1.7126
 7243SOL     OW22172   4.641   3.250   3.284 -0.1673 -0.4888 -0.3261
 7243SOL    HW122173   4.571   3.244   3.219 -0.1964  0.5344 -0.4097
 7243SOL    HW222174   4.702   3.313   3.247 -0.1571  0.0725  0.6032
 7244SOL     OW22175   4.831   4.191   1.652  0.1837  0.1916  0.7902
 7244SOL    HW122176   4.877   4.138   1.587 -0.1537  0.9148 -0.0511
 7244SOL    HW222177   4.776   4.250   1.601 -0.2739  0.6075  1.7384
 7245SOL     OW22178   3.511   1.031   2.914 -0.1688 -0.4288 -0.6872
 7245SOL    HW122179   3.501   1.070   3.001  0.0771  2.5123 -1.8407
 7245SOL    HW222180   3.448   0.959   2.912 -0.6198 -0.1666  1.6968
 7246SOL     OW22181   1.646   3.630   4.288 -0.0929  0.2360 -0.3055
 7246SOL    HW122182   1.633   3.535   4.290 -0.0514  0.2363  0.0107
 7246SOL    HW222183   1.723   3.643   4.233  0.5947  0.0057  0.5797
 7247SOL     OW22184   4.650   5.097   5.161  0.0926 -0.3653  0.3132
 7247SOL    HW122185   4.557   5.114   5.178  0.0680  0.7478 -0.8268
 7247SOL    HW222186   4.683   5.179   5.125  1.0749 -1.3590 -1.1237
 7248SOL     OW22187   1.700   5.560   3.608  0.1752  0.1005  0.0130
 7248SOL    HW122188   1.760   5.552   3.682  0.5533  0.1874 -0.2818
 7248SOL    HW222189   1.757   5.559   3.531 -0.1992  0.2345 -0.2662
 7249SOL     OW22190   0.976   5.778   3.429 -0.0401  0.0059  0.5933
 7249SOL    HW122191   0.970   5.812   3.518  2.4352 -2.2637  1.7634
 7249SOL    HW222192   1.069   5.778   3.408 -0.5118  0.0614 -1.8608
 7250SOL     OW22193   5.260   4.199   5.841  0.6071 -0.0806  0.0494
 7250SOL    HW122194   5.275   4.111   5.875 -1.1026 -1.0857 -1.6234
 7250SOL    HW222195   5.290   4.194   5.750 -0.6993  0.6799 -0.4393
 7251SOL     OW22196   4.796   3.435   4.112 -0.1418 -0.4155  0.1385
 7251SOL    HW122197   4.741   3.410   4.038 -0.2996  0.3952 -0.0342
 7251SOL    HW222198   4.852   3.505   4.076 -0.2588  0.0233  0.7959
 7252SOL     OW22199   3.773   1.162   2.872  0.0611 -0.3407 -0.0798
 7252SOL    HW122200   3.692   1.119   2.901  0.2831 -0.3373  0.5698
 7252SOL    HW222201   3.780   1.140   2.779 -1.1118  0.3517 -0.3399
 7253SOL     OW22202   5.591   3.888   5.889  0.1275 -0.4610  0.2769
 7253SOL    HW122203   5.602   3.912   5.797 -1.1914 -1.6877 -0.2332
 7253SOL    HW222204   5.502   3.915   5.910  0.1281 -0.9698  0.9479
 7254SOL     OW22205   1.426   1.880   0.692 -0.1471  0.2107  0.4357
 7254SOL    HW122206   1.515   1.903   0.719 -0.1119  1.6561 -0.8167
 7254SOL    HW222207   1.370   1.909   0.764  0.3820 -1.0204  1.3880
 7255SOL     OW22208   3.047   2.853   2.519 -0.8545  0.5030 -0.2256
 7255SOL    HW122209   3.035   2.773   2.569 -0.5762  1.0018  0.6695
 7255SOL    HW222210   3.142   2.861   2.509 -0.9070  0.3918 -0.8743
 7256SOL     OW22211   3.919   1.676   4.801  0.2057 -0.0316  0.3873
 7256SOL    HW122212   3.827   1.652   4.805  0.5418 -1.4939  0.1916
 7256SOL    HW222213   3.956   1.646   4.884  0.6408 -0.1600  0.1548
 7257SOL     OW22214   2.483   4.810   5.170 -0.2812  0.0826  0.1451
 7257SOL    HW122215   2.488   4.872   5.243 -0.7588  1.0934 -0.6614
 7257SOL    HW222216   2.543   4.740   5.194 -0.7481  0.1747  1.7187
 7258SOL     OW22217   5.896   0.658   0.763 -0.1446 -0.7015 -0.6562
 7258SOL    HW122218   5.922   0.682   0.674  1.1910 -0.6553 -0.2730
 7258SOL    HW222219   5.949   0.581   0.784 -0.8557 -1.0522 -0.0931
 7259SOL     OW22220   4.758   4.421   0.819  0.2821  0.4043 -0.0351
 7259SOL    HW122221   4.809   4.447   0.896  0.3121 -0.9950  0.4338
 7259SOL    HW222222   4.693   4.360   0.852  1.2813 -1.4643 -1.3204
 7260SOL     OW22223   2.853   5.789   1.326  0.4428 -0.5337  0.5760
 7260SOL    HW122224   2.856   5.811   1.419  1.2276 -0.8435  0.6292
 7260SOL    HW222225   2.899   5.706   1.320 -0.4209 -0.9859  0.0350
 7261SOL     OW22226   3.901   3.130   4.634  0.5288  0.5923  0.1225
 7261SOL    HW122227   3.895   3.200   4.568  0.2527  1.9072  1.4756
 7261SOL    HW222228   3.983   3.148   4.680  0.1025  0.4627  0.9456
 7262SOL     OW22229   0.154   2.465   0.077 -0.2097 -0.3049  0.0128
 7262SOL    HW122230   0.195   2.476  -0.009 -0.1653 -0.7305 -0.0203
 7262SOL    HW222231   0.064   2.496   0.064  0.3281  1.5463  0.3292
 7263SOL     OW22232   3.059   3.788   2.102 -0.3172 -0.5720 -0.1617
 7263SOL    HW122233   3.151   3.796   2.129 -0.0897 -0.3361 -0.9941
 7263SOL    HW222234   3.049   3.695   2.080  0.4464 -0.1552 -2.5538
 7264SOL     OW22235   5.460   4.162   2.501  0.5481 -0.1568  0.1410
 7264SOL    HW122236   5.462   4.124   2.413 -1.4929 -0.0422 -0.0174
 7264SOL    HW222237   5.428   4.252   2.487 -0.1934 -0.2721  1.0183
 7265SOL     OW22238   5.615   3.765   2.579 -0.7048 -0.2168 -0.4798
 7265SOL    HW122239   5.530   3.808   2.590 -0.2052  1.0314 -1.2796
 7265SOL    HW222240   5.632   3.724   2.664 -1.7678  0.1232 -0.0821
 7266SOL     OW22241   2.700   0.844   2.583  0.5036 -0.4407 -0.1348
 7266SOL    HW122242   2.709   0.901   2.659  3.5767 -0.7797 -0.1134
 7266SOL    HW222243   2.689   0.903   2.509 -0.8791 -0.0472  0.3693
 7267SOL     OW22244   3.431   6.093   2.099  0.6871 -0.0059  0.4426
 7267SOL    HW122245   3.473   6.169   2.139  2.2701  0.3768 -1.7372
 7267SOL    HW222246   3.400   6.125   2.014  1.8245 -1.8475 -0.7551
 7268SOL     OW22247   0.625   3.674   5.032  0.1435 -0.6318  0.4493
 7268SOL    HW122248   0.584   3.664   5.117 -0.6807 -0.7845  0.0419
 7268SOL    HW222249   0.682   3.750   5.042  0.7585 -1.2031  1.3932
 7269SOL     OW22250   1.279   5.710   5.430 -0.3009 -0.1249 -0.7027
 7269SOL    HW122251   1.288   5.629   5.380 -0.1163 -0.2960 -0.3986
 7269SOL    HW222252   1.235   5.771   5.371  0.4918 -0.1171 -1.2961
 7270SOL     OW22253   2.974   3.986   1.222 -0.0764 -0.6340 -0.0451
 7270SOL    HW122254   3.032   3.928   1.271 -0.8616 -0.5701  0.9998
 7270SOL    HW222255   3.023   4.067   1.212 -0.0826 -0.4692  1.1120
 7271SOL     OW22256   1.094   4.406   4.449 -0.2276  0.1684 -0.1155
 7271SOL    HW122257   1.145   4.473   4.494  0.1624 -0.1381 -0.0993
 7271SOL    HW222258   1.113   4.418   4.356 -1.3126  1.0336 -0.2478
 7272SOL     OW22259   0.930   4.926   4.644 -0.2705 -0.4161  0.2456
 7272SOL    HW122260   0.843   4.950   4.677 -0.3405 -0.5261  0.1442
 7272SOL    HW222261   0.947   4.840   4.683 -0.1928 -0.3777  0.2936
 7273SOL     OW22262   4.878   0.089   5.574  0.0251  0.0747  0.4342
 7273SOL    HW122263   4.805   0.038   5.609  0.4607  0.1225  1.4552
 7273SOL    HW222264   4.939   0.097   5.647  1.8503 -1.3554 -0.8349
 7274SOL     OW22265   0.637   4.921   0.313  0.0771 -0.6953  0.0602
 7274SOL    HW122266   0.703   4.885   0.255  1.2783 -0.9562  1.5393
 7274SOL    HW222267   0.670   4.906   0.401 -1.7399 -0.4184  0.8528
 7275SOL     OW22268   2.247   3.350   0.083 -0.4545 -0.2928 -0.1305
 7275SOL    HW122269   2.335   3.328   0.113 -0.6030 -0.3271  0.2865
 7275SOL    HW222270   2.251   3.444   0.063 -0.4875 -0.1550  0.4896
 7276SOL     OW22271   4.615   3.122   2.293 -0.6404 -0.3202  0.3782
 7276SOL    HW122272   4.541   3.062   2.283 -2.2717  1.6906 -0.2878
 7276SOL    HW222273   4.648   3.134   2.204  0.1118 -0.7146  0.5948
 7277SOL     OW22274   2.662   3.882   4.754 -0.4585 -0.5355 -0.3097
 7277SOL    HW122275   2.618   3.829   4.687 -0.4748 -1.2197  0.2273
 7277SOL    HW222276   2.701   3.954   4.705  0.1029 -1.3906 -1.1680
 7278SOL     OW22277   3.989   5.388   2.827  0.0641 -0.3960  0.0084
 7278SOL    HW122278   4.007   5.350   2.741 -1.2587 -1.9186  0.3537
 7278SOL    HW222279   3.897   5.367   2.843  0.7508 -1.8606  2.5952
 7279SOL     OW22280   5.464   3.276   0.389  0.0484  0.0726 -0.2509
 7279SOL    HW122281   5.422   3.348   0.341  0.3025  1.2130  1.1573
 7279SOL    HW222282   5.436   3.197   0.343 -0.2345  1.0583 -1.8590
 7280SOL     OW22283   5.026   1.762   2.542 -0.1662  0.0480 -0.0414
 7280SOL    HW122284   5.024   1.841   2.596  0.1101  0.4624 -0.6272
 7280SOL    HW222285   5.117   1.733   2.547 -0.7876 -1.8184  2.3995
 7281SOL     OW22286   5.119   2.760   3.555  0.7168  0.2483  0.6231
 7281SOL    HW122287   5.207   2.731   3.528  1.1100  0.7609  1.3289
 7281SOL    HW222288   5.075   2.679   3.583  1.3167  0.1152  1.2201
 7282SOL     OW22289   3.864   2.007   4.265  0.1664 -0.4297 -0.1261
 7282SOL    HW122290   3.776   1.995   4.302  0.0829 -0.4794 -0.3365
 7282SOL    HW222291   3.923   1.984   4.336  0.0091 -0.1973  0.0820
 7283SOL     OW22292   5.508   4.126   4.843  0.0530  0.0037 -0.8701
 7283SOL    HW122293   5.525   4.146   4.935 -1.2181 -0.4312 -0.5254
 7283SOL    HW222294   5.535   4.034   4.833 -0.9876 -0.3407 -0.6027
 7284SOL     OW22295   5.306   3.304   2.376 -0.3592  0.0169  0.3680
 7284SOL    HW122296   5.323   3.397   2.363 -3.1055  0.9468  2.2582
 7284SOL    HW222297   5.228   3.286   2.324 -0.6798 -0.8394  1.1009
 7285SOL     OW22298   3.010   1.222   0.764 -0.2169  0.1243  0.3520
 7285SOL    HW122299   2.947   1.256   0.700 -0.3612 -0.7952 -0.0125
 7285SOL    HW222300   3.082   1.285   0.764  0.1861 -0.3085 -1.3523
 7286SOL     OW22301   2.558   5.173   1.528 -0.1528  0.3929  0.0716
 7286SOL    HW122302   2.526   5.105   1.468  1.7576 -0.3448 -0.1736
 7286SOL    HW222303   2.502   5.249   1.509 -0.0919 -0.0375 -2.1685
 7287SOL     OW22304   5.175   2.915   1.159 -0.3756  0.2061 -0.2476
 7287SOL    HW122305   5.197   2.966   1.237 -0.4819  0.4284 -0.3624
 7287SOL    HW222306   5.214   2.963   1.086  0.6949 -0.5991 -0.2236
 7288SOL     OW22307   4.952   1.745   1.429 -0.3639  0.0491  0.2841
 7288SOL    HW122308   4.964   1.657   1.392 -3.7980  0.1065 -1.3813
 7288SOL    HW222309   5.026   1.795   1.396  0.1141 -1.5328 -1.1947
 7289SOL     OW22310   3.262   1.074   4.909 -0.3286 -0.1672 -0.4328
 7289SOL    HW122311   3.331   1.011   4.886  0.9670  1.0501  0.0130
 7289SOL    HW222312   3.245   1.121   4.828 -0.1872 -0.0613 -0.4025
 7290SOL     OW22313   3.136   2.508   4.813 -0.0189 -0.6693  0.0311
 7290SOL    HW122314   3.117   2.576   4.877 -0.4291  0.0748 -0.8493
 7290SOL    HW222315   3.217   2.468   4.844  0.5829  0.6500  0.2384
 7291SOL     OW22316   1.288   0.590   3.520 -0.3997  0.1975 -0.3744
 7291SOL    HW122317   1.275   0.515   3.577  0.1234 -1.0708 -1.8726
 7291SOL    HW222318   1.383   0.604   3.519 -0.2594 -0.6741 -1.9811
 7292SOL     OW22319   2.431   2.178   4.283  0.0614 -0.2800 -0.3401
 7292SOL    HW122320   2.351   2.158   4.330  0.5315 -1.4886 -0.0301
 7292SOL    HW222321   2.448   2.101   4.228  1.7880 -0.7204  0.7230
 7293SOL     OW22322   3.953   0.031   1.717  0.4091 -0.0642  0.0693
 7293SOL    HW122323   3.914   0.043   1.630  0.4621 -0.1934  0.0288
 7293SOL    HW222324   4.035  -0.015   1.700  0.0711 -0.7444  0.2598
 7294SOL     OW22325   4.944   4.160   3.686  0.5640 -0.0578 -0.5823
 7294SOL    HW122326   4.856   4.156   3.648  1.1822 -0.2720 -2.0861
 7294SOL    HW222327   4.939   4.230   3.751 -0.2570  1.3054 -2.0252
 7295SOL     OW22328   0.592   3.647   3.099 -0.6274  0.0480  0.8660
 7295SOL    HW122329   0.546   3.657   3.183  0.0143 -2.0356  1.5289
 7295SOL    HW222330   0.680   3.618   3.124 -0.1599  0.2371 -0.5103
 7296SOL     OW22331   4.900   5.912   4.947 -0.5786  0.4767  0.1190
 7296SOL    HW122332   4.910   5.889   5.039 -2.2823  1.0319  0.4789
 7296SOL    HW222333   4.947   5.995   4.938  1.5766 -0.7056 -0.0981
 7297SOL     OW22334   4.028   1.674   1.541  0.5275  0.3680  0.1775
 7297SOL    HW122335   4.097   1.729   1.504  1.6804  0.1789  1.9263
 7297SOL    HW222336   4.074   1.617   1.603 -0.9888 -0.8925  0.2072
 7298SOL     OW22337   3.326   1.273   2.465  0.2553  0.8458  0.6827
 7298SOL    HW122338   3.354   1.198   2.413 -0.2015  1.1022  0.0550
 7298SOL    HW222339   3.332   1.243   2.556 -3.7618 -1.4380  0.4596
 7299SOL     OW22340   1.293   3.267   2.099 -0.2284 -0.0137 -0.0332
 7299SOL    HW122341   1.325   3.233   2.183  2.1190 -0.6338 -1.0735
 7299SOL    HW222342   1.245   3.193   2.061 -0.3684 -0.0926  0.2888
 7300SOL     OW22343   5.726   2.349   3.668  0.0878  0.1782  0.1992
 7300SOL    HW122344   5.733   2.255   3.683  0.7028  0.1717 -0.0857
 7300SOL    HW222345   5.816   2.379   3.663  0.0022  0.2476 -2.9646
 7301SOL     OW22346   5.751   4.836   0.473  0.3123 -0.1664 -0.1292
 7301SOL    HW122347   5.750   4.790   0.557  1.0220  1.2447  0.6939
 7301SOL    HW222348   5.780   4.770   0.409  1.2290 -0.8819  0.9934
 7302SOL     OW22349   2.654   6.109   2.890 -0.2481 -0.3132 -0.2971
 7302SOL    HW122350   2.717   6.047   2.926 -1.1290 -1.3133 -0.4333
 7302SOL    HW222351   2.577   6.056   2.869 -1.4453  0.9851  0.6050
 7303SOL     OW22352   3.451   2.854   3.400 -0.2186  0.3627 -0.0803
 7303SOL    HW122353   3.468   2.947   3.384  0.4335  0.5305  1.4357
 7303SOL    HW222354   3.360   2.850   3.428  0.1567  0.7514  1.2464
 7304SOL     OW22355   0.702   0.205   5.486  0.3247  0.2963  0.6800
 7304SOL    HW122356   0.663   0.202   5.573  1.5584 -0.0700  1.2459
 7304SOL    HW222357   0.793   0.178   5.500  0.5922  0.4294 -0.6926
 7305SOL     OW22358   5.215   2.120   1.824  0.0866 -0.0259 -0.7555
 7305SOL    HW122359   5.171   2.057   1.881 -1.1618  1.2504 -0.2361
 7305SOL    HW222360   5.307   2.096   1.827 -0.1808 -0.9709  0.5346
 7306SOL     OW22361   5.221   2.010   4.618 -0.3713 -0.1796 -0.0800
 7306SOL    HW122362   5.167   1.998   4.540  0.4621 -3.7998 -0.3070
 7306SOL    HW222363   5.160   2.035   4.687 -1.5196  0.6448 -1.3483
 7307SOL     OW22364   4.994   4.076   4.129  0.0476 -0.1525 -0.2819
 7307SOL    HW122365   4.947   4.136   4.187  1.8306 -0.3048  1.4292
 7307SOL    HW222366   5.075   4.122   4.107 -0.6997  0.0341 -3.0140
 7308SOL     OW22367   0.329   1.714   5.278  0.3730  0.0588 -0.0892
 7308SOL    HW122368   0.370   1.711   5.192  1.1902 -0.3673  0.3005
 7308SOL    HW222369   0.309   1.806   5.292 -0.4887  0.0369 -1.0534
 7309SOL     OW22370   1.496   5.155   1.540 -0.0222  0.4106  0.2973
 7309SOL    HW122371   1.547   5.099   1.599 -0.7632 -0.6880 -0.0651
 7309SOL    HW222372   1.540   5.145   1.455  0.4161  1.1623  0.4243
 7310SOL     OW22373   4.912   1.250   3.585  0.1244 -0.0228  0.3102
 7310SOL    HW122374   4.984   1.269   3.525 -1.0287 -0.6087 -1.3104
 7310SOL    HW222375   4.904   1.329   3.639 -0.9508  1.9605 -2.5284
 7311SOL     OW22376   5.386   3.518   3.187 -0.1802 -0.3807 -0.3205
 7311SOL    HW122377   5.359   3.430   3.159 -2.8956  0.4912 -0.7483
 7311SOL    HW222378   5.365   3.574   3.113 -1.8428  1.0903  1.1588
 7312SOL     OW22379   4.992   2.048   5.133  0.3518  0.0216  0.0259
 7312SOL    HW122380   4.960   2.138   5.130 -0.0026 -0.0519  0.9849
 7312SOL    HW222381   5.071   2.052   5.186  0.5575 -0.1710 -0.2650
 7313SOL     OW22382   2.515   4.710   3.224 -0.0467 -0.4836  0.4124
 7313SOL    HW122383   2.603   4.697   3.258  0.1837 -1.2768 -0.4643
 7313SOL    HW222384   2.474   4.770   3.287  1.5825  1.1091  0.0507
 7314SOL     OW22385   3.607   0.124   1.796 -0.2944 -0.0244  0.2548
 7314SOL    HW122386   3.533   0.172   1.832 -0.9438 -1.7199  1.3056
 7314SOL    HW222387   3.683   0.160   1.842 -0.8220 -0.3074  1.3934
 7315SOL     OW22388   5.099   0.582   5.162  0.0743 -0.5023  0.2166
 7315SOL    HW122389   5.187   0.547   5.179 -0.2337 -0.4270  2.2432
 7315SOL    HW222390   5.069   0.611   5.248 -1.6848  0.0788 -0.5681
 7316SOL     OW22391   3.237   0.280   3.932 -0.3225  0.0683  0.0288
 7316SOL    HW122392   3.164   0.301   3.991 -0.9672  1.2275 -1.1362
 7316SOL    HW222393   3.259   0.189   3.953 -2.5526 -0.5481 -0.0458
 7317SOL     OW22394   6.075   2.101   1.275 -0.0664  0.0813  0.4657
 7317SOL    HW122395   6.007   2.166   1.254 -0.6622 -0.2441  1.3545
 7317SOL    HW222396   6.157   2.147   1.259 -0.4861  0.7321  0.1197
 7318SOL     OW22397   1.425   6.118   4.151 -0.4581 -0.2945  0.1645
 7318SOL    HW122398   1.348   6.115   4.095 -0.3220 -0.1869 -0.0292
 7318SOL    HW222399   1.487   6.058   4.110 -0.0896  0.3268 -0.2040
 7319SOL     OW22400   1.276   3.495   0.929 -0.1158 -0.9809  0.0320
 7319SOL    HW122401   1.290   3.586   0.956 -0.1343  0.1291 -3.2405
 7319SOL    HW222402   1.346   3.446   0.972  0.0168  0.5853  1.7188
 7320SOL     OW22403   3.847   3.582   1.287 -0.3105  0.5591 -0.1384
 7320SOL    HW122404   3.798   3.549   1.363  1.9603 -1.0276  0.7333
 7320SOL    HW222405   3.831   3.676   1.288 -1.6244  0.3631  1.3578
 7321SOL     OW22406   1.886   1.755   4.228 -0.6211 -0.2448  0.4705
 7321SOL    HW122407   1.978   1.760   4.255  0.4593 -2.3616 -2.3460
 7321SOL    HW222408   1.873   1.832   4.174  0.6444 -1.5998 -1.9172
 7322SOL     OW22409   3.918   2.236   5.470  0.2148 -0.3513 -0.6766
 7322SOL    HW122410   3.916   2.147   5.507 -0.1623 -0.0867 -0.0318
 7322SOL    HW222411   3.829   2.269   5.484  0.7147  0.6156  0.3248
 7323SOL     OW22412   4.332   0.164   2.183 -0.1882  0.1134 -0.1542
 7323SOL    HW122413   4.414   0.141   2.228 -0.5411  0.0414  0.4511
 7323SOL    HW222414   4.282   0.082   2.182 -0.1404  0.0837 -0.7864
 7324SOL     OW22415   1.298   3.942   0.268  0.2100  0.0220 -0.5216
 7324SOL    HW122416   1.375   3.990   0.237 -0.7276 -0.5856 -4.3001
 7324SOL    HW222417   1.297   3.862   0.216 -2.3997 -0.5015  0.1839
 7325SOL     OW22418   0.738   3.438   0.667 -0.2486  0.6321 -0.7999
 7325SOL    HW122419   0.708   3.494   0.739 -0.8565 -1.9084  1.0868
 7325SOL    HW222420   0.693   3.471   0.590 -1.3092  2.1135  0.3944
 7326SOL     OW22421   4.240   3.298   1.607 -0.2955 -0.8290  0.0007
 7326SOL    HW122422   4.233   3.349   1.526  1.3564 -1.9080 -0.8664
 7326SOL    HW222423   4.334   3.284   1.619 -0.4767 -0.5779  2.2161
 7327SOL     OW22424   1.193   3.500   3.721 -0.2523 -0.3948 -0.5771
 7327SOL    HW122425   1.270   3.549   3.750 -1.2712 -0.8328  3.4785
 7327SOL    HW222426   1.223   3.409   3.715 -0.1285 -0.3581 -0.5122
 7328SOL     OW22427   4.552   0.299   3.285  0.5019 -0.5837 -0.0485
 7328SOL    HW122428   4.589   0.259   3.364  0.9831 -0.3456 -0.1489
 7328SOL    HW222429   4.535   0.390   3.310 -0.0417 -0.6959  0.0020
 7329SOL     OW22430   5.289   0.579   3.157 -0.3051  0.5093  0.1202
 7329SOL    HW122431   5.241   0.515   3.105  0.6357  0.2374 -0.4378
 7329SOL    HW222432   5.354   0.615   3.097 -1.2126  2.4704  0.2475
 7330SOL     OW22433   2.654   4.355   1.906  0.2765 -0.2902 -0.1274
 7330SOL    HW122434   2.707   4.336   1.829  0.6281  2.6534 -0.7224
 7330SOL    HW222435   2.583   4.292   1.903 -0.2928  0.3348 -3.4662
 7331SOL     OW22436   5.517   2.802   5.205 -0.0273 -0.6037 -0.3366
 7331SOL    HW122437   5.537   2.877   5.150 -0.1758 -1.1486 -1.1541
 7331SOL    HW222438   5.570   2.731   5.168 -0.5200 -1.1039 -0.0909
 7332SOL     OW22439   2.504   2.319   0.790  0.3104 -0.4446 -0.0842
 7332SOL    HW122440   2.437   2.264   0.830  1.3426  0.7057  3.6362
 7332SOL    HW222441   2.474   2.408   0.805  0.2318  0.1177 -3.1031
 7333SOL     OW22442   4.027   1.241   3.543  0.2651 -0.0082 -0.4009
 7333SOL    HW122443   4.005   1.316   3.487  1.4477 -0.2395 -1.2019
 7333SOL    HW222444   4.044   1.170   3.482 -0.9263 -0.9732  0.3631
 7334SOL     OW22445   5.888   2.614   4.949 -0.7281 -0.2753  0.7583
 7334SOL    HW122446   5.807   2.627   4.999 -0.7112  2.5521  0.2422
 7334SOL    HW222447   5.870   2.537   4.895 -3.8517  1.2277 -0.6525
 7335SOL     OW22448   3.995   0.224   2.138  0.6008  0.7734 -0.1487
 7335SOL    HW122449   4.028   0.223   2.228  0.3738  2.8580  0.0098
 7335SOL    HW222450   4.070   0.252   2.085  0.8216 -0.7463 -0.6825
 7336SOL     OW22451   0.252   1.490   3.484  0.0830  0.0597  0.0931
 7336SOL    HW122452   0.167   1.448   3.499 -0.1732  0.0143 -1.3688
 7336SOL    HW222453   0.315   1.418   3.483 -0.2105 -0.1974 -1.3186
 7337SOL     OW22454   3.696   2.480   2.575 -0.0660 -0.1459 -0.5299
 7337SOL    HW122455   3.685   2.465   2.669 -0.8317 -0.9303 -0.7373
 7337SOL    HW222456   3.687   2.575   2.565  0.6390  0.0173  0.2577
 7338SOL     OW22457   1.246   3.861   0.531 -0.1614  0.1231  0.6604
 7338SOL    HW122458   1.252   3.882   0.438  0.0923 -0.9618  0.4263
 7338SOL    HW222459   1.255   3.766   0.535 -1.3338  0.0329  1.6941
 7339SOL     OW22460   5.719   0.437   4.535 -0.2485 -0.3916  0.6443
 7339SOL    HW122461   5.711   0.424   4.440 -0.0199 -0.0705  0.5792
 7339SOL    HW222462   5.809   0.413   4.555 -0.0922  0.2009  0.6684
 7340SOL     OW22463   1.643   1.034   5.869  0.4610 -0.0456 -0.4354
 7340SOL    HW122464   1.557   0.995   5.853 -0.5117  1.6466  0.4262
 7340SOL    HW222465   1.642   1.115   5.818  2.5786 -1.1650 -2.4986
 7341SOL     OW22466   2.751   5.820   5.015 -0.1257 -0.3696  0.0044
 7341SOL    HW122467   2.743   5.812   5.110  0.4110 -1.1968 -0.0057
 7341SOL    HW222468   2.844   5.806   4.998 -0.3384 -0.9624 -0.7050
 7342SOL     OW22469   6.101   0.799   0.273 -0.2275 -0.4616  0.7389
 7342SOL    HW122470   6.041   0.738   0.230 -0.2592 -1.1476  1.7408
 7342SOL    HW222471   6.044   0.865   0.313 -0.2374 -0.3241  0.5034
 7343SOL     OW22472   5.155   5.670   2.813 -0.2853 -0.3589  0.3246
 7343SOL    HW122473   5.090   5.600   2.800 -0.2904 -0.2116 -0.5610
 7343SOL    HW222474   5.134   5.708   2.898 -1.0825 -0.6122  0.2470
 7344SOL     OW22475   4.431   2.769   5.539  0.2367  0.3954  0.0307
 7344SOL    HW122476   4.383   2.755   5.457 -1.0019  2.0813  0.4072
 7344SOL    HW222477   4.497   2.836   5.518  0.9511 -0.2937  0.0498
 7345SOL     OW22478   2.128   5.147   1.114  0.3203 -0.1721  0.2419
 7345SOL    HW122479   2.149   5.202   1.189 -0.8101  0.8388 -0.1499
 7345SOL    HW222480   2.170   5.191   1.040  0.9764 -0.8699  0.1869
 7346SOL     OW22481   3.675   4.543   1.945  0.1387  0.0192  0.0596
 7346SOL    HW122482   3.727   4.513   1.870  1.4486  0.7409  0.6542
 7346SOL    HW222483   3.679   4.639   1.940 -0.9460  0.0904  0.2719
 7347SOL     OW22484   0.682   0.338   0.771  0.0199 -0.4044  0.1199
 7347SOL    HW122485   0.770   0.310   0.797 -0.2025 -2.2304 -0.8801
 7347SOL    HW222486   0.648   0.385   0.847  2.9349  3.1912 -0.4961
 7348SOL     OW22487   3.792   1.896   3.858  0.4267  0.0223  0.7211
 7348SOL    HW122488   3.813   1.966   3.796  0.0287 -0.4545  0.0256
 7348SOL    HW222489   3.709   1.922   3.897 -0.2068 -0.4937 -0.2331
 7349SOL     OW22490   2.144   4.850   2.509 -0.3196  0.4021 -0.1339
 7349SOL    HW122491   2.176   4.931   2.550  0.6831 -0.7574  1.5057
 7349SOL    HW222492   2.074   4.820   2.566  0.8328 -1.0307  0.6104
 7350SOL     OW22493   3.257   0.506   3.489 -0.5031  0.4529  0.4555
 7350SOL    HW122494   3.288   0.464   3.569 -2.2562 -3.0591 -0.5134
 7350SOL    HW222495   3.195   0.572   3.520 -0.0765  0.1667  2.0110
 7351SOL     OW22496   1.598   3.663   0.794  0.3368  0.3913 -0.0684
 7351SOL    HW122497   1.599   3.694   0.885 -0.9806  1.6890 -0.4613
 7351SOL    HW222498   1.626   3.572   0.800 -2.0456 -0.3128  1.9530
 7352SOL     OW22499   0.789   5.175   5.668 -0.2046  0.2371  0.3981
 7352SOL    HW122500   0.728   5.197   5.738 -1.6494  1.1771 -1.0747
 7352SOL    HW222501   0.809   5.259   5.627  1.0048 -0.2343 -0.0150
 7353SOL     OW22502   5.905   3.401   3.982  0.6971  0.3406 -0.0990
 7353SOL    HW122503   5.974   3.467   3.973  2.4908 -1.1094  2.0267
 7353SOL    HW222504   5.850   3.432   4.053 -0.0048  0.7798 -0.8220
 7354SOL     OW22505   4.901   3.489   0.295 -0.2228  0.2010  0.5591
 7354SOL    HW122506   4.825   3.481   0.352 -0.5470  1.4278  0.3220
 7354SOL    HW222507   4.974   3.505   0.354 -0.1492 -0.9278  0.7839
 7355SOL     OW22508   4.262   1.254   4.290  0.0017  0.0370  0.0941
 7355SOL    HW122509   4.341   1.209   4.259 -0.8823 -0.6921 -1.2041
 7355SOL    HW222510   4.191   1.192   4.271 -0.9076  0.7556  1.0777
 7356SOL     OW22511   2.712   5.840   3.067 -0.6231  0.1102  0.3962
 7356SOL    HW122512   2.756   5.847   3.152  0.3477  2.1847 -0.2083
 7356SOL    HW222513   2.771   5.885   3.006 -2.2701  0.4777 -1.0006
 7357SOL     OW22514   1.849   0.927   1.362 -0.5986  0.1455 -0.2773
 7357SOL    HW122515   1.755   0.913   1.364 -0.6301  0.2370 -0.9180
 7357SOL    HW222516   1.881   0.888   1.443 -1.2074  0.2696  0.0253
 7358SOL     OW22517   3.061   1.605   2.018  0.8343  0.5216 -0.5294
 7358SOL    HW122518   3.028   1.646   2.097  0.8892 -1.3119  0.5109
 7358SOL    HW222519   3.043   1.667   1.948 -0.4647  1.5916  0.7175
 7359SOL     OW22520   5.772   3.221   2.764 -0.0296  0.6439 -0.3633
 7359SOL    HW122521   5.834   3.164   2.718 -0.7802 -1.9468  1.5967
 7359SOL    HW222522   5.823   3.259   2.835  0.1310  1.3048 -0.8286
 7360SOL     OW22523   2.746   4.075   4.550  0.0763  0.2866  0.4114
 7360SOL    HW122524   2.767   4.134   4.622 -0.6832  0.5741  0.4065
 7360SOL    HW222525   2.707   4.131   4.483 -0.7971 -0.2315  0.4667
 7361SOL     OW22526   1.291   4.687   5.730 -0.6919  0.3746 -0.6204
 7361SOL    HW122527   1.305   4.597   5.703  0.4354  0.9447 -2.1361
 7361SOL    HW222528   1.196   4.695   5.740 -0.7022 -1.3331  1.0178
 7362SOL     OW22529   1.291   3.377   2.651  0.0446 -0.1696  0.1011
 7362SOL    HW122530   1.279   3.472   2.652  1.0816 -0.0146 -0.7275
 7362SOL    HW222531   1.226   3.346   2.588  0.0684  0.0545 -0.0357
 7363SOL     OW22532   0.725   1.054   5.099 -0.3072  0.5193 -0.2165
 7363SOL    HW122533   0.696   1.038   5.189 -0.4009  1.1109 -0.1360
 7363SOL    HW222534   0.783   1.130   5.105  0.1795  0.1810 -0.5726
 7364SOL     OW22535   2.122   3.262   4.618 -0.5125 -0.4329  0.4511
 7364SOL    HW122536   2.098   3.244   4.527 -0.8663 -0.3061  0.5160
 7364SOL    HW222537   2.040   3.252   4.667 -0.6326  0.8460  0.5575
 7365SOL     OW22538   0.285   5.357   2.249  0.1173 -0.2515  0.4355
 7365SOL    HW122539   0.346   5.298   2.205  1.6099  0.8124  1.0308
 7365SOL    HW222540   0.215   5.300   2.280  0.4735 -1.4137 -0.7924
 7366SOL     OW22541   4.219   4.988   2.658  0.0947 -0.2272 -0.3565
 7366SOL    HW122542   4.290   5.022   2.712 -0.4354 -0.8556  0.7545
 7366SOL    HW222543   4.155   5.059   2.656  0.0197 -0.2844  0.0212
 7367SOL     OW22544   5.568   0.876   4.775 -0.5295  0.0626  0.3473
 7367SOL    HW122545   5.559   0.854   4.682 -2.3004 -2.4248  1.0065
 7367SOL    HW222546   5.646   0.828   4.804 -0.2976  0.3912  0.2696
 7368SOL     OW22547   1.464   5.409   3.467  0.3170 -0.7307  0.3165
 7368SOL    HW122548   1.526   5.459   3.414 -0.4529  0.4304  0.4614
 7368SOL    HW222549   1.496   5.417   3.557 -0.4575  0.5685  0.5010
 7369SOL     OW22550   5.806   1.039   0.907 -0.0421  0.6698 -0.0754
 7369SOL    HW122551   5.744   1.044   0.979  1.0122 -0.2159  0.9187
 7369SOL    HW222552   5.886   1.005   0.946  1.2914  2.3843 -1.2029
 7370SOL     OW22553   0.470   2.653   1.676  0.0603  0.0792 -0.5543
 7370SOL    HW122554   0.515   2.571   1.693  0.6447  0.6900  1.0199
 7370SOL    HW222555   0.388   2.647   1.726 -0.3328  0.0985 -1.1763
 7371SOL     OW22556   3.665   5.235   4.706 -0.0484 -0.4272 -0.0792
 7371SOL    HW122557   3.600   5.173   4.738 -2.4443  1.8639 -0.1981
 7371SOL    HW222558   3.709   5.266   4.786  0.2413 -1.2403  0.0917
 7372SOL     OW22559   5.810   1.902   0.357 -0.4071 -0.0978  0.0371
 7372SOL    HW122560   5.838   1.856   0.436 -1.0358 -2.5147 -1.0713
 7372SOL    HW222561   5.874   1.972   0.347  2.4025 -2.4358  0.3035
 7373SOL     OW22562   5.370   5.157   1.282  0.2954  0.0589  0.2371
 7373SOL    HW122563   5.333   5.070   1.268  1.9951 -0.3583 -2.7060
 7373SOL    HW222564   5.465   5.141   1.290  0.8815  1.6546 -2.2516
 7374SOL     OW22565   5.593   1.751   3.254 -0.4022 -0.1608  0.4334
 7374SOL    HW122566   5.529   1.681   3.243  0.0008 -0.5294  0.4317
 7374SOL    HW222567   5.570   1.791   3.338 -1.9307  1.0594 -0.4978
 7375SOL     OW22568   3.376   3.178   5.621  0.0827 -0.3685  0.1004
 7375SOL    HW122569   3.440   3.131   5.675 -0.7780 -1.8144 -0.0778
 7375SOL    HW222570   3.422   3.197   5.540  0.9075  0.4424  0.7415
 7376SOL     OW22571   0.920   5.257   0.857  0.5153  0.0567 -0.0053
 7376SOL    HW122572   0.954   5.185   0.911 -1.6025 -1.8081 -0.9645
 7376SOL    HW222573   0.989   5.273   0.793  0.2199 -2.8831 -1.2609
 7377SOL     OW22574   1.686   3.434   1.350 -0.7942 -0.1027 -0.1120
 7377SOL    HW122575   1.682   3.529   1.340 -0.6512 -0.0191  0.5729
 7377SOL    HW222576   1.654   3.417   1.438  1.1296 -0.4916  0.5802
 7378SOL     OW22577   6.081   5.317   1.698  0.1415 -0.2626  0.2012
 7378SOL    HW122578   6.128   5.240   1.731  2.8329  1.3828  0.4776
 7378SOL    HW222579   6.150   5.378   1.672 -1.8880  2.1151  0.0482
 7379SOL     OW22580   0.213   3.178   2.367  0.8522 -0.4974  0.2257
 7379SOL    HW122581   0.245   3.185   2.457 -1.7861 -0.1165  1.2470
 7379SOL    HW222582   0.260   3.246   2.319  0.2452  1.3513  2.0611
 7380SOL     OW22583   3.222   5.551   1.870  1.1367 -0.1733  0.6173
 7380SOL    HW122584   3.315   5.566   1.852  0.8389 -0.3398 -1.2636
 7380SOL    HW222585   3.185   5.527   1.785 -0.8595  0.9793  1.0988
 7381SOL     OW22586   4.289   3.172   0.918  0.3720 -0.5223  0.3308
 7381SOL    HW122587   4.334   3.256   0.921 -1.2592  0.4186 -0.4327
 7381SOL    HW222588   4.258   3.164   0.828  0.5191 -1.9673  0.3807
 7382SOL     OW22589   3.257   1.310   4.707  0.4931 -0.4939  0.0567
 7382SOL    HW122590   3.298   1.391   4.676  1.0455 -0.9605 -0.4696
 7382SOL    HW222591   3.208   1.336   4.785 -0.2934  0.5700 -0.7576
 7383SOL     OW22592   1.029   4.358   1.048 -0.5854 -0.0790 -0.1203
 7383SOL    HW122593   1.018   4.278   0.996  0.6105  0.8590 -1.9134
 7383SOL    HW222594   1.062   4.327   1.133  0.8591 -1.4385 -1.1184
 7384SOL     OW22595   4.934   3.692   0.996 -0.2262  0.7574 -0.2497
 7384SOL    HW122596   4.907   3.606   0.963  0.6641  0.4330 -0.1631
 7384SOL    HW222597   4.868   3.752   0.963 -0.7999  0.0550 -0.4074
 7385SOL     OW22598   4.289   3.940   5.485  0.5197  0.2552 -0.2501
 7385SOL    HW122599   4.293   3.880   5.411 -1.8390  0.0472 -0.2759
 7385SOL    HW222600   4.213   3.995   5.468  0.3256  0.6621  1.6820
 7386SOL     OW22601   3.026   3.123   4.240 -0.1775 -0.9420  0.3380
 7386SOL    HW122602   3.096   3.189   4.235 -0.7706 -0.4033 -1.7050
 7386SOL    HW222603   3.072   3.039   4.244  0.5817 -0.4910  1.5814
 7387SOL     OW22604   0.193   4.091   4.369  0.7328  0.0103  0.3770
 7387SOL    HW122605   0.228   4.175   4.339  1.3773 -1.2144 -2.6998
 7387SOL    HW222606   0.170   4.045   4.289 -1.2386 -2.1258  2.0349
 7388SOL     OW22607   2.098   3.493   3.718  0.0522  0.0593  0.7467
 7388SOL    HW122608   2.042   3.472   3.642 -0.6920  2.0772  0.6907
 7388SOL    HW222609   2.155   3.417   3.727  0.7373  0.0875 -2.3636
 7389SOL     OW22610   0.069   2.858   1.795 -0.1763  0.1187 -0.0947
 7389SOL    HW122611   0.058   2.820   1.708 -1.5103 -0.0115  0.1052
 7389SOL    HW222612  -0.004   2.823   1.846 -0.0467  1.0512  0.7746
 7390SOL     OW22613   4.103   2.459   5.587 -0.0110  0.1468 -0.5825
 7390SOL    HW122614   4.184   2.459   5.536  0.5935 -0.6390  0.3338
 7390SOL    HW222615   4.080   2.366   5.594 -0.2221  0.2610  0.3336
 7391SOL     OW22616   5.105   1.084   5.531 -0.0126  0.3538  0.1787
 7391SOL    HW122617   5.200   1.098   5.526  0.7972 -3.7138  0.6821
 7391SOL    HW222618   5.072   1.115   5.447  1.9709  0.6884 -0.5378
 7392SOL     OW22619   3.377   3.507   4.558 -0.1808 -0.5913  0.1059
 7392SOL    HW122620   3.466   3.489   4.527 -0.5880 -2.2631 -0.2159
 7392SOL    HW222621   3.387   3.575   4.624  1.1698  0.2381 -0.8973
 7393SOL     OW22622   0.787   5.386   1.244  0.7004  0.1493 -0.0591
 7393SOL    HW122623   0.841   5.395   1.165  1.0311  0.4056  0.1913
 7393SOL    HW222624   0.832   5.440   1.309  0.0458  0.4933  0.1070
 7394SOL     OW22625   5.148   4.530   6.112 -0.1827 -0.1424  0.6091
 7394SOL    HW122626   5.220   4.516   6.172  2.7758  0.7573 -2.4189
 7394SOL    HW222627   5.135   4.446   6.069 -1.2609 -0.3890  1.3580
 7395SOL     OW22628   3.782   3.983   2.640  0.0185  0.5458 -0.1038
 7395SOL    HW122629   3.865   4.030   2.642 -0.4172  1.5890 -2.6095
 7395SOL    HW222630   3.806   3.891   2.651  1.4583  0.8744 -0.3411
 7396SOL     OW22631   3.158   3.374   1.414  0.1903 -0.0197 -0.1088
 7396SOL    HW122632   3.196   3.287   1.405 -1.2481 -0.6283 -0.5138
 7396SOL    HW222633   3.066   3.358   1.434 -0.0840  1.4120 -0.1218
 7397SOL     OW22634   4.518   4.028   4.067  0.3975  0.5196  0.0546
 7397SOL    HW122635   4.584   4.075   4.015  2.5111 -0.8224  1.3624
 7397SOL    HW222636   4.464   4.097   4.106  2.1334  1.8055  0.3042
 7398SOL     OW22637   1.063   3.862   4.988 -0.0255  0.6767  0.3939
 7398SOL    HW122638   1.098   3.923   5.053 -0.8592  0.8047  0.7254
 7398SOL    HW222639   0.989   3.908   4.949 -0.6957 -0.1384  0.6814
 7399SOL     OW22640   1.805   0.168   4.992  0.3131 -0.1113 -0.1892
 7399SOL    HW122641   1.888   0.141   5.030  1.5443 -1.0550 -3.2421
 7399SOL    HW222642   1.755   0.086   4.983 -1.1871  0.4882  1.9544
 7400SOL     OW22643   2.862   4.897   4.512  0.1788 -0.1038  0.1096
 7400SOL    HW122644   2.799   4.949   4.462 -0.8468 -0.0173  1.4238
 7400SOL    HW222645   2.889   4.954   4.583 -1.3173 -1.4332  1.8405
 7401SOL     OW22646   4.239   0.825   1.059 -0.2596 -0.4807  0.0995
 7401SOL    HW122647   4.295   0.753   1.087  0.5496  0.5102  1.1206
 7401SOL    HW222648   4.207   0.864   1.141  0.3169  1.0742 -0.3864
 7402SOL     OW22649   5.598   3.408   2.951 -0.2454  0.2707 -0.1905
 7402SOL    HW122650   5.633   3.452   2.874 -1.0515 -0.1326 -0.8004
 7402SOL    HW222651   5.537   3.343   2.916  0.3870 -0.8468  0.7223
 7403SOL     OW22652   3.383   3.155   4.143  0.0560  0.3653  0.2196
 7403SOL    HW122653   3.370   3.128   4.051  2.7389  0.6032 -0.2876
 7403SOL    HW222654   3.394   3.073   4.190  4.3829  0.1895 -0.7108
 7404SOL     OW22655   0.684   3.185   0.757 -0.3422 -0.3784 -0.2863
 7404SOL    HW122656   0.686   3.277   0.733  0.4443  0.1453  1.5521
 7404SOL    HW222657   0.732   3.141   0.687 -0.5828  0.6205 -1.1047
 7405SOL     OW22658   2.414   2.274   5.674  0.0447 -0.2177 -0.1817
 7405SOL    HW122659   2.471   2.351   5.675  2.6032 -1.9015  2.5545
 7405SOL    HW222660   2.464   2.209   5.624 -1.4381 -0.5670 -1.2687
 7406SOL     OW22661   2.963   1.349   4.381  0.1414 -0.0110 -0.1499
 7406SOL    HW122662   2.945   1.342   4.475  0.0685 -0.5888 -0.2085
 7406SOL    HW222663   3.032   1.285   4.365  0.7437  0.6705 -0.3386
 7407SOL     OW22664   5.364   0.817   1.468  0.5513  1.1502 -0.0138
 7407SOL    HW122665   5.378   0.871   1.546 -1.1268 -0.1435  1.2863
 7407SOL    HW222666   5.271   0.828   1.447  0.2178 -0.8665  0.1079
 7408SOL     OW22667   2.863   5.016   0.207  0.6402 -0.1616  0.2635
 7408SOL    HW122668   2.835   5.106   0.229  0.7333  0.0564 -0.4966
 7408SOL    HW222669   2.837   4.964   0.283 -0.0304  0.3940  0.4270
 7409SOL     OW22670   3.337   3.047   3.907 -0.7038 -0.1382  0.0576
 7409SOL    HW122671   3.374   3.034   3.820  0.4632  2.8838 -0.0152
 7409SOL    HW222672   3.249   3.082   3.891 -0.6259  0.0774  0.0993
 7410SOL     OW22673   2.524   3.511   3.011  0.2077 -0.2562  1.0321
 7410SOL    HW122674   2.531   3.523   2.916  0.7496  0.6965  1.1764
 7410SOL    HW222675   2.615   3.506   3.040  0.0694  0.4476  1.6106
 7411SOL     OW22676   2.263   3.718   3.729 -0.4076 -0.3990  0.2171
 7411SOL    HW122677   2.218   3.796   3.698  1.6712 -0.0151 -2.1716
 7411SOL    HW222678   2.203   3.646   3.711 -0.1732  0.0696 -2.9555
 7412SOL     OW22679   4.111   0.288   5.173 -0.3940 -0.2766 -0.5036
 7412SOL    HW122680   4.201   0.276   5.144  0.3745  0.5601  1.3850
 7412SOL    HW222681   4.096   0.383   5.166 -1.0392 -0.3701 -0.5111
 7413SOL     OW22682   2.353   2.594   5.353  0.1678 -0.5090  0.7893
 7413SOL    HW122683   2.320   2.519   5.303  0.6199  0.0737 -0.4380
 7413SOL    HW222684   2.274   2.642   5.378 -0.0470  0.6967 -1.8340
 7414SOL     OW22685   0.726   2.671   1.504  0.1038  0.0973  0.3454
 7414SOL    HW122686   0.684   2.645   1.586 -1.1730  0.0273 -0.3091
 7414SOL    HW222687   0.787   2.741   1.529 -0.5662  0.3524  1.2866
 7415SOL     OW22688   4.708   1.009   1.487  0.2522 -0.1307  0.5172
 7415SOL    HW122689   4.706   1.104   1.484 -1.2850 -0.1452  0.6398
 7415SOL    HW222690   4.734   0.982   1.399 -1.4246  0.3752 -0.1636
 7416SOL     OW22691   4.706   1.693   6.019 -0.2718 -0.6149 -0.1158
 7416SOL    HW122692   4.718   1.603   6.050  0.1713 -0.4826  0.1160
 7416SOL    HW222693   4.643   1.731   6.080  0.9401 -0.2191  0.9453
 7417SOL     OW22694   5.130   1.955   1.531 -0.3054 -0.4621 -0.3456
 7417SOL    HW122695   5.195   2.017   1.497 -1.0997 -0.0332 -1.1314
 7417SOL    HW222696   5.181   1.888   1.575  0.8947 -1.7193 -3.4238
 7418SOL     OW22697   3.223   2.888   3.237 -0.2096  0.3891  0.1082
 7418SOL    HW122698   3.198   2.969   3.191 -1.5044 -0.0963 -0.0999
 7418SOL    HW222699   3.243   2.826   3.167  1.1122  0.6148  0.2738
 7419SOL     OW22700   5.665   4.040   3.310 -0.5709  0.1505 -0.8453
 7419SOL    HW122701   5.676   3.948   3.286 -0.6737  0.0360 -0.4608
 7419SOL    HW222702   5.576   4.062   3.283 -2.0158 -0.9636  2.4953
 7420SOL     OW22703   6.128   2.984   3.387 -0.4077 -0.2523 -0.9416
 7420SOL    HW122704   6.181   3.015   3.461 -1.8927 -1.1669  0.5828
 7420SOL    HW222705   6.040   3.016   3.407 -0.9477 -1.0385 -2.0233
 7421SOL     OW22706   1.040   1.199   3.019  0.4140 -0.4339  0.4153
 7421SOL    HW122707   1.092   1.244   3.085 -0.7251 -0.4042  1.3153
 7421SOL    HW222708   0.962   1.169   3.065 -0.3801 -0.4786 -0.9005
 7422SOL     OW22709   5.353   1.639   0.347  0.0264  0.3929  0.0675
 7422SOL    HW122710   5.334   1.613   0.257  0.5693 -1.9151  0.5602
 7422SOL    HW222711   5.440   1.604   0.365  0.2086  1.3865  1.3074
 7423SOL     OW22712   0.909   1.619   1.631 -0.4898  0.0200 -0.0727
 7423SOL    HW122713   0.874   1.615   1.720  1.3049 -0.5475  0.6599
 7423SOL    HW222714   0.877   1.540   1.588  0.4542 -0.8727  0.8203
 7424SOL     OW22715   5.902   3.333   5.479 -0.9430  0.1860 -0.0692
 7424SOL    HW122716   5.967   3.399   5.458  0.4133 -0.5330  1.5649
 7424SOL    HW222717   5.836   3.379   5.530  0.5582  0.1625  2.0273
 7425SOL     OW22718   5.235   1.451   1.180 -0.6329 -0.1571 -0.0961
 7425SOL    HW122719   5.264   1.457   1.089  1.7915  2.5573  0.7268
 7425SOL    HW222720   5.214   1.358   1.192  1.5299 -1.1113 -2.6865
 7426SOL     OW22721   1.223   4.815   3.097  0.1929  0.1655 -0.2394
 7426SOL    HW122722   1.204   4.783   3.008  0.2800  1.7827 -0.8757
 7426SOL    HW222723   1.317   4.801   3.107  0.0288 -0.8654 -0.0309
 7427SOL     OW22724   5.430   0.559   1.492  0.1044  0.5284  0.1017
 7427SOL    HW122725   5.431   0.654   1.479 -0.0395  0.3927 -1.0815
 7427SOL    HW222726   5.347   0.542   1.535 -0.3406  0.8579 -0.5925
 7428SOL     OW22727   0.782   0.490   1.775  0.1371  0.0471  0.2338
 7428SOL    HW122728   0.769   0.546   1.851  0.0865 -1.5073  1.4149
 7428SOL    HW222729   0.874   0.505   1.749  1.2899 -1.9027  2.7747
 7429SOL     OW22730   5.456   5.001   1.578 -0.1130 -0.1447 -0.0139
 7429SOL    HW122731   5.485   5.092   1.571  1.1605 -0.5912 -0.7194
 7429SOL    HW222732   5.465   4.981   1.671 -1.4996  0.7734  0.3571
 7430SOL     OW22733   1.409   2.199   5.885  0.4869  0.0446  0.2406
 7430SOL    HW122734   1.321   2.195   5.921 -0.0952  0.4543 -1.0840
 7430SOL    HW222735   1.440   2.108   5.887 -0.2459 -0.2133  0.0348
 7431SOL     OW22736   5.619   1.712   4.488  0.1499  0.1170  0.3030
 7431SOL    HW122737   5.627   1.717   4.583  0.8934 -1.0271  0.3193
 7431SOL    HW222738   5.588   1.623   4.471 -1.9767  0.9321 -0.4354
 7432SOL     OW22739   4.416   0.447   3.866  0.0190 -0.2707 -0.0239
 7432SOL    HW122740   4.345   0.384   3.854 -0.5215  0.2016  0.6878
 7432SOL    HW222741   4.444   0.435   3.957 -1.1117  1.5556  0.6096
 7433SOL     OW22742   2.417   4.321   3.487  0.5420  0.2665  0.1856
 7433SOL    HW122743   2.469   4.308   3.408  0.4730  1.2321 -0.0332
 7433SOL    HW222744   2.462   4.392   3.534  1.5059 -1.3428  1.8356
 7434SOL     OW22745   3.009   4.581   4.826 -0.4069 -0.4260  0.2276
 7434SOL    HW122746   3.060   4.523   4.768  1.8939  1.5805  0.0915
 7434SOL    HW222747   3.074   4.622   4.883 -2.0438  1.3231  0.9532
 7435SOL     OW22748   5.312   1.471   0.930  0.4481  0.1320  0.1926
 7435SOL    HW122749   5.289   1.385   0.894 -0.8380 -0.0747  1.4020
 7435SOL    HW222750   5.382   1.503   0.873  0.8108 -1.6172 -0.4277
 7436SOL     OW22751   0.871   0.854   4.704  0.2272  0.2796 -0.2535
 7436SOL    HW122752   0.812   0.854   4.629 -1.0954 -0.2236  0.7423
 7436SOL    HW222753   0.814   0.840   4.780  1.4381  1.3424  0.9195
 7437SOL     OW22754   1.635   3.921   4.635 -0.3288  0.0710 -0.4366
 7437SOL    HW122755   1.670   4.010   4.643  0.5711 -0.2183 -0.9119
 7437SOL    HW222756   1.696   3.878   4.575 -0.2543 -1.1160  0.4627
 7438SOL     OW22757   2.350   1.243   0.205 -0.6715 -0.2314 -0.0834
 7438SOL    HW122758   2.327   1.201   0.288 -1.6459  1.6354  0.6253
 7438SOL    HW222759   2.298   1.196   0.140  0.7668 -2.3253  0.1407
 7439SOL     OW22760   0.570   3.134   1.603 -0.2396  0.4054 -0.3220
 7439SOL    HW122761   0.535   3.061   1.551  0.3158  0.2631 -0.5112
 7439SOL    HW222762   0.563   3.105   1.694 -1.5601  0.8052 -0.2800
 7440SOL     OW22763   5.466   2.530   0.864  0.5628  0.3489 -0.2979
 7440SOL    HW122764   5.561   2.525   0.873  0.3693 -1.4399  1.4387
 7440SOL    HW222765   5.441   2.607   0.915  0.9586 -0.2718  0.8818
 7441SOL     OW22766   5.276   1.721   1.217 -0.1389  0.1065  0.0882
 7441SOL    HW122767   5.293   1.642   1.167  1.5860  0.1980  0.4700
 7441SOL    HW222768   5.357   1.738   1.265 -0.4543  2.0894  0.0275
 7442SOL     OW22769   3.085   4.150   5.497  0.3046  0.7841  0.0715
 7442SOL    HW122770   3.147   4.208   5.454  1.9837 -0.7154  0.3630
 7442SOL    HW222771   3.077   4.075   5.438  0.1045  0.1849  0.8438
 7443SOL     OW22772   2.549   3.091   4.458  0.1609  0.2896 -0.3082
 7443SOL    HW122773   2.496   3.036   4.515  1.3019  1.1821  1.7138
 7443SOL    HW222774   2.621   3.035   4.430  0.2726  0.1889  0.1692
 7444SOL     OW22775   0.115   0.347   5.525  0.2263  0.0004  0.2627
 7444SOL    HW122776   0.133   0.300   5.444 -0.6008  0.6535 -0.3119
 7444SOL    HW222777   0.202   0.363   5.563  0.5996 -0.5922 -0.3282
 7445SOL     OW22778   2.304   6.106   4.431  0.1101 -0.0893  1.0006
 7445SOL    HW122779   2.370   6.049   4.470  0.2377  0.0619  1.0070
 7445SOL    HW222780   2.221   6.070   4.460  0.1290 -1.2259 -0.2974
 7446SOL     OW22781   3.527   4.469   5.445  0.1081 -0.3680  0.7421
 7446SOL    HW122782   3.560   4.384   5.473 -1.8695 -0.9661  1.4422
 7446SOL    HW222783   3.579   4.533   5.494  1.4636 -1.1525  0.3802
 7447SOL     OW22784   1.689   3.447   3.744  0.1584 -0.5470 -0.4043
 7447SOL    HW122785   1.654   3.392   3.814  1.0384 -1.0656 -0.3533
 7447SOL    HW222786   1.704   3.386   3.672  0.1906 -0.1877 -0.7023
 7448SOL     OW22787   0.293   6.131   2.308 -0.2065 -0.2135 -0.4867
 7448SOL    HW122788   0.339   6.173   2.380 -0.7377 -0.6853  0.1429
 7448SOL    HW222789   0.240   6.200   2.269 -0.5870 -0.1451  0.1355
 7449SOL     OW22790   0.249   5.976   3.170  0.2301 -0.3417 -0.3220
 7449SOL    HW122791   0.200   5.916   3.114  0.3204 -0.7907  0.0781
 7449SOL    HW222792   0.203   5.975   3.253 -0.1271  0.6156 -0.4873
 7450SOL     OW22793   2.779   1.712   3.694 -0.1026 -0.0182  0.4015
 7450SOL    HW122794   2.799   1.680   3.782 -1.5290  1.3404  1.2750
 7450SOL    HW222795   2.853   1.683   3.641  1.6582  0.5394  2.3965
 7451SOL     OW22796   5.447   2.422   4.664 -0.0705 -0.5215  0.1775
 7451SOL    HW122797   5.439   2.327   4.660 -0.6548 -0.4894  0.4626
 7451SOL    HW222798   5.522   2.442   4.608 -1.2367 -0.9709 -1.6217
 7452SOL     OW22799   2.784   1.019   3.750  0.1057 -0.3016 -0.3979
 7452SOL    HW122800   2.696   0.989   3.728  0.7140 -1.5617 -1.2370
 7452SOL    HW222801   2.836   0.939   3.758  1.1089  0.3924  0.4601
 7453SOL     OW22802   3.660   0.518   1.655  0.5069  0.0981  0.1051
 7453SOL    HW122803   3.678   0.479   1.741  1.1769 -0.3162 -0.2167
 7453SOL    HW222804   3.746   0.534   1.618  0.3461  3.3571  0.8559
 7454SOL     OW22805   0.866   2.530   0.512 -0.0646 -0.3646 -0.1558
 7454SOL    HW122806   0.874   2.442   0.474  0.9510 -0.5076  0.3612
 7454SOL    HW222807   0.809   2.518   0.589 -0.3684 -0.4659 -0.3945
 7455SOL     OW22808   6.028   2.997   0.481 -0.0818  0.1431 -0.3538
 7455SOL    HW122809   5.961   3.037   0.425  0.7930  2.6841  0.2751
 7455SOL    HW222810   6.095   3.064   0.489  0.6044 -0.7596  2.3696
 7456SOL     OW22811   1.555   2.416   4.062  0.0213  0.7964  0.2183
 7456SOL    HW122812   1.496   2.417   4.137  1.2732  0.2816  1.2359
 7456SOL    HW222813   1.546   2.329   4.025  1.0626  0.2578  1.1609
 7457SOL     OW22814   1.633   0.930   5.020 -0.1062 -0.0855  0.4742
 7457SOL    HW122815   1.617   0.916   5.113  0.3531  1.0291  0.7373
 7457SOL    HW222816   1.613   1.022   5.006 -0.9621 -0.4329 -0.7155
 7458SOL     OW22817   5.056   5.229   5.199  0.7513 -0.1190  0.1471
 7458SOL    HW122818   5.031   5.305   5.251  3.4897  0.4609  0.7642
 7458SOL    HW222819   5.048   5.155   5.260  1.4082  0.1788  0.6008
 7459SOL     OW22820   1.173   0.392   1.287 -0.1044  0.2143 -0.1487
 7459SOL    HW122821   1.261   0.419   1.309  0.1044 -0.1851 -0.4679
 7459SOL    HW222822   1.157   0.430   1.201  0.5620 -1.4263 -1.0547
 7460SOL     OW22823   5.605   0.679   5.597  0.1827 -0.0648  0.1576
 7460SOL    HW122824   5.619   0.594   5.638 -3.0070 -0.9429 -0.3277
 7460SOL    HW222825   5.521   0.709   5.632  0.4537  2.1722 -0.9112
 7461SOL     OW22826   0.057   1.108   3.844 -0.2347  0.0653 -0.8842
 7461SOL    HW122827   0.054   1.102   3.940 -0.2238 -1.7797 -0.9796
 7461SOL    HW222828   0.120   1.178   3.827  0.3189 -0.0813  0.4478
 7462SOL     OW22829   2.837   4.830   6.084 -0.1843  0.3419 -0.3768
 7462SOL    HW122830   2.914   4.846   6.138 -0.5820 -0.4763  0.4526
 7462SOL    HW222831   2.861   4.756   6.029  0.7958  2.1226 -2.5275
 7463SOL     OW22832   2.518   4.998   5.394  0.1494  0.1788  0.3774
 7463SOL    HW122833   2.515   5.000   5.490  0.1674  0.1457  0.3785
 7463SOL    HW222834   2.462   5.071   5.367 -0.3814 -0.2216  0.4032
 7464SOL     OW22835   4.811   3.399   3.148 -0.1621 -0.0415  0.0138
 7464SOL    HW122836   4.900   3.401   3.181 -0.1394 -0.9031  0.0366
 7464SOL    HW222837   4.778   3.488   3.160  0.5106  0.1461  0.4958
 7465SOL     OW22838   0.881   4.713   4.873 -0.3250 -0.2260  0.4060
 7465SOL    HW122839   0.908   4.624   4.849 -1.5240 -0.1475 -1.4374
 7465SOL    HW222840   0.787   4.714   4.855 -0.1551  1.6886 -0.5804
 7466SOL     OW22841   2.156   3.858   1.122  0.0618 -0.1500  0.3300
 7466SOL    HW122842   2.101   3.884   1.048 -0.1888 -0.0454  0.5508
 7466SOL    HW222843   2.159   3.935   1.178  0.3475 -0.1905  0.3711
 7467SOL     OW22844   4.210   1.867   0.783 -0.5348 -0.2330 -0.1874
 7467SOL    HW122845   4.175   1.937   0.728 -5.1865 -1.0041  1.2716
 7467SOL    HW222846   4.219   1.907   0.870  0.5513 -0.5202 -0.1636
 7468SOL     OW22847   5.085   4.790   6.120  0.0689  0.2555 -0.2099
 7468SOL    HW122848   5.120   4.703   6.138  1.0369  0.6087 -0.2879
 7468SOL    HW222849   5.146   4.849   6.164  1.0459  1.0213 -2.4568
 7469SOL     OW22850   1.376   6.032   0.133 -0.0117 -0.2093 -0.0406
 7469SOL    HW122851   1.325   6.107   0.102 -0.1971 -0.0133  0.7376
 7469SOL    HW222852   1.379   5.973   0.057  1.4426  1.2421 -1.2057
 7470SOL     OW22853   1.279   1.649   3.340 -0.8168 -0.2941  0.3285
 7470SOL    HW122854   1.194   1.605   3.333 -0.4725 -0.9810  0.3393
 7470SOL    HW222855   1.324   1.626   3.259 -0.5426 -0.1370  0.4361
 7471SOL     OW22856   2.218   1.266   2.933 -0.8064  0.1602  0.2907
 7471SOL    HW122857   2.145   1.323   2.955 -0.2807  0.1982  2.0933
 7471SOL    HW222858   2.178   1.180   2.919 -1.3127  0.4195  0.1306
 7472SOL     OW22859   4.149   1.323   2.336  0.5918  0.1565  0.2371
 7472SOL    HW122860   4.137   1.309   2.430 -0.9299  0.3675  0.0994
 7472SOL    HW222861   4.083   1.268   2.295  1.3986 -0.1119 -0.7315
 7473SOL     OW22862   0.885   1.831   1.284  0.2346 -0.2132 -0.2539
 7473SOL    HW122863   0.906   1.846   1.192  1.8798  0.2259  0.1592
 7473SOL    HW222864   0.933   1.752   1.308  0.0705 -0.1487  0.3135
 7474SOL     OW22865   2.461   5.873   3.232 -0.0235  0.3437  0.2950
 7474SOL    HW122866   2.543   5.838   3.197 -1.8880 -4.0153 -0.3376
 7474SOL    HW222867   2.456   5.837   3.321 -0.6638  1.7463  0.8539
 7475SOL     OW22868   4.689   4.575   1.092  0.2416 -0.4312  0.1386
 7475SOL    HW122869   4.676   4.606   1.002  0.1296 -1.1073 -0.0835
 7475SOL    HW222870   4.612   4.605   1.139 -0.8182 -2.0144 -0.5255
 7476SOL     OW22871   4.830   5.903   0.770 -0.5359 -0.3987 -0.0611
 7476SOL    HW122872   4.842   5.814   0.736  1.3410 -0.5512  0.8800
 7476SOL    HW222873   4.841   5.894   0.865  0.3270  0.9279 -0.0118
 7477SOL     OW22874   3.875   3.622   4.970 -0.7533  0.0251 -0.2537
 7477SOL    HW122875   3.910   3.561   4.905  0.1131  0.4607 -0.2004
 7477SOL    HW222876   3.795   3.656   4.929 -1.6263 -1.6266 -0.0127
 7478SOL     OW22877   1.910   4.643   1.573 -0.6442 -0.0484 -0.6647
 7478SOL    HW122878   1.999   4.665   1.602 -0.7777  0.3897 -0.5810
 7478SOL    HW222879   1.907   4.670   1.482 -0.5229 -0.5614 -0.8235
 7479SOL     OW22880   2.745   0.244   2.881  0.7429  0.0778 -0.2221
 7479SOL    HW122881   2.735   0.157   2.920 -0.4825  0.9918  1.6505
 7479SOL    HW222882   2.690   0.241   2.802 -2.2312  0.1628  1.7005
 7480NA      NA22883   3.972   3.656   5.150 -0.5675  0.2328  0.0582
 7481NA      NA22884   0.299   4.624   2.130  0.5258  0.1862 -0.6273
 7482NA      NA22885   0.925   2.111   5.313 -0.2119  0.1776  0.0216
 7483NA      NA22886   3.161   0.012   5.767  0.2730 -0.7227 -0.1311
 7484NA      NA22887   1.609   5.366   5.484 -0.0605  0.2525 -0.1660
 7485NA      NA22888   1.212   4.032   1.942  0.0779  0.2328 -0.0373
 7486NA      NA22889   5.080   3.290   3.418  0.1716  0.7245  0.3992
 7487NA      NA22890   6.053   0.219   1.052 -0.2977  0.1973 -0.1805
 7488NA      NA22891   2.232   3.049   1.213  0.1122  0.3869  0.0120
 7489NA      NA22892   1.830   2.018   2.882  0.2815  1.0679 -0.0892
 7490NA      NA22893   3.978   2.812   3.020 -0.2041  0.3871  0.2923
 7491NA      NA22894   2.912   3.252   4.121 -0.4300 -0.2555 -0.1588
 7492NA      NA22895   4.018   5.041   1.840  0.1597 -0.5457  0.1106
 7493NA      NA22896   4.758   3.961   5.697 -0.6359 -0.5037 -0.1550
 7494NA      NA22897   4.632   4.000   1.940  0.4877  0.0916  0.0055
 7495NA      NA22898   4.902   1.698   2.378  0.5982 -0.1091 -0.4872
 7496NA      NA22899   2.658   4.685   0.402  0.4908  0.6821  0.0735
 7497NA      NA22900   3.837   0.455   3.123 -0.1628 -0.4159  0.1204
 7498NA      NA22901   3.697   0.565   0.193  0.3147 -0.0186 -0.1882
 7499NA      NA22902   0.256   3.834   0.824  0.1757  0.7823  0.0207
 7500NA      NA22903   0.398   5.154   1.418  0.3996  0.4250  0.3130
 7501CL      CL22904   2.610   3.658   1.108 -0.0278 -0.0762  0.3203
 7502CL      CL22905   3.382   2.382   5.730  0.0717  0.1027 -0.0461
 7503CL      CL22906   0.984   3.411   3.306  0.1248 -0.3580 -0.0656
 7504CL      CL22907   5.632   3.914   5.577  0.0134  0.4159 -0.0187
 7505CL      CL22908   3.628   5.126   2.382  0.0309 -0.0223 -0.3489
 7506CL      CL22909   0.666   3.367   2.138 -0.1408 -0.2581 -0.0043
 7507CL      CL22910   0.421   0.356   1.146 -0.2149  0.3383 -0.1081
 7508CL      CL22911   1.564   1.943   6.002 -0.0519 -0.1870  0.2504
 7509CL      CL22912   3.390   5.702   5.672  0.0751 -0.2320 -0.5803
 7510CL      CL22913   3.024   4.132   3.558  0.3069 -0.0834  0.2987
 7511CL      CL22914   4.414   5.923   2.416  0.0463 -0.1435  0.2161
 7512CL      CL22915   1.460   0.951   0.159  0.1420 -0.2261  0.0870
 7513CL      CL22916   3.329   0.885   3.332  0.2583 -0.0636 -0.0714
 7514CL      CL22917   2.951   5.656   5.513  0.2081 -0.3476  0.1083
 7515CL      CL22918   5.929   4.600   0.032 -0.1252 -0.1436 -0.0604
 7516CL      CL22919   0.582   5.227   2.181 -0.3095 -0.4103  0.0748
 7517CL      CL22920   4.179   5.109   1.476  0.3611 -0.4828  0.0122
 7518CL      CL22921   4.949   6.099   4.314  0.2023  0.0994  0.0927
 7519CL      CL22922   4.586   0.485   2.435  0.1432 -0.0308  0.1104
 7520CL      CL22923   0.597   1.907   5.576 -0.1897  0.2432  0.2019
 7521CL      CL22924   4.787   3.784   3.390  0.4317  0.3303  0.2398
 7522CL      CL22925   2.513   5.676   0.104 -0.1738 -0.5980  0.1321
 7523CL      CL22926   2.324   1.336   2.525  0.0690 -0.5035 -0.5208
 7524CL      CL22927   1.142   6.038   5.781  0.4117 -0.2906  0.0841
 7525CL      CL22928   6.068   5.284   0.248  0.3942  0.2478 -0.0803
 7526CL      CL22929   5.817   0.394   2.955 -0.1371  0.0222  0.2172
 7527CL      CL22930   5.125   3.445   1.390 -0.1584 -0.5784 -0.1101
 7528CL      CL22931   0.617   4.810   4.729 -0.2081 -0.1068 -0.0894
 7529CL      CL22932   4.590   5.582   1.424 -0.1407  0.0548 -0.0705
 7530CL      CL22933   3.794   4.529   1.670  0.2178  0.1829  0.1026
 7531CL      CL22934   3.055   1.081   1.663  0.1826  0.0299 -0.3484
 7532CL      CL22935   0.571   4.478   1.841  0.4384  0.6248  0.3672
 7533CL      CL22936   5.362   4.264   1.090  0.2472 -0.5044  0.1831
 7534CL      CL22937   1.688   1.075   1.842 -0.2040 -0.3247 -0.2348
 7535CL      CL22938   0.129   5.701   4.198 -0.1569 -0.3035  0.4712
 7536CL      CL22939   2.906   1.670   0.186 -0.2175 -0.2712  0.5426
 7537CL      CL22940   0.162   1.701   0.630 -0.1410 -0.1804  0.3524
   6.13119   6.13119   6.13119
