G1P-PAMAM in water
12065
    1aaa     C1    1   2.100   3.544   4.602 -0.3630  0.1274 -0.5535
    1aaa     H1    2   1.994   3.543   4.572 -0.2530 -1.2308 -0.9930
    1aaa     H2    3   2.138   3.441   4.596 -0.3020  0.0348  0.9899
    1aaa     C2    4   2.102   3.577   4.751 -0.0740  0.2579  0.1699
    1aaa     H3    5   2.205   3.566   4.787 -1.4063 -1.0633  4.1404
    1aaa     H4    6   2.081   3.684   4.766 -1.7410 -0.2738  2.1039
    1aaa     N1    7   2.012   3.483   4.828 -0.0775  0.1095  0.4139
    1aaa     N2    8   2.185   3.638   4.525  0.3404  0.0359  0.1675
    1aaa     C3    9   2.332   3.652   4.564  0.3536 -0.0551  0.5046
    1aaa     H5   10   2.339   3.691   4.666  0.0188 -0.9892  0.8905
    1aaa     H6   11   2.375   3.731   4.500 -0.7848  1.1421  1.1875
    1aaa     C4   12   2.180   3.635   4.376  0.2150 -0.4320 -0.4036
    1aaa     H7   13   2.254   3.708   4.341  0.1369  0.8147  1.8604
    1aaa     H8   14   2.228   3.538   4.357 -1.0468 -1.5364  1.6825
    1aaa     C5   15   2.063   3.353   4.865  0.2665  0.3744  0.2235
    1aaa     H9   16   1.991   3.307   4.934  0.8498 -1.4008 -0.3048
    1aaa    H10   17   2.063   3.281   4.781  2.2851  1.3482 -0.6617
    1aaa     C6   18   1.873   3.491   4.802  0.3256  0.4515 -0.1650
    1aaa    H11   19   1.815   3.431   4.872  0.8173  1.3862  1.0800
    1aaa    H12   20   1.858   3.460   4.698  2.1355 -1.8371  0.1771
    1aaa     C7   21   2.206   3.345   4.919  0.0084 -0.2816 -0.0858
    1aaa    H13   22   2.277   3.375   4.841 -0.0476 -1.0984 -0.4618
    1aaa    H14   23   2.205   3.411   5.006 -0.8072 -0.1034 -0.2238
    1aaa     C8   24   1.823   3.643   4.810  0.5160 -0.1388 -0.1613
    1aaa    H15   25   1.852   3.683   4.908 -0.1913 -0.3754  0.1574
    1aaa    H16   26   1.865   3.701   4.727 -1.6290  0.7369 -0.7078
    1aaa     C9   27   2.048   3.649   4.309 -0.6076 -0.0186  0.2208
    1aaa    H17   28   1.978   3.570   4.338 -0.6904 -0.1234 -0.2702
    1aaa    H18   29   2.006   3.741   4.351 -0.7367 -0.6603  1.5543
    1aaa    C10   30   2.414   3.515   4.546  0.5682  0.0527  0.5958
    1aaa    H19   31   2.408   3.456   4.638  0.7876 -0.1189  0.5013
    1aaa    H20   32   2.371   3.452   4.468  1.5662 -1.1643  0.9936
    1aaa    C11   33   2.055   3.673   4.159 -0.2217 -0.6116 -0.2436
    1aaa    C12   34   2.553   3.543   4.505 -0.3486 -0.3286  0.3881
    1aaa    C13   35   2.241   3.203   4.961  0.1301  0.2049  0.6873
    1aaa    C14   36   1.668   3.663   4.798 -0.4351  0.0432 -0.0233
    1aaa     O1   37   2.154   3.726   4.111 -0.2461 -0.3421  0.0714
    1aaa     O2   38   2.185   3.104   4.920 -0.4816  0.5932  0.2212
    1aaa     O3   39   1.598   3.577   4.743 -0.2111 -0.0543  0.0479
    1aaa     O4   40   2.579   3.622   4.416  0.2590  0.5554 -0.5115
    2bbb     C1   41   1.765   3.584   3.914 -0.3475  0.4506  0.5039
    2bbb     H1   42   1.711   3.582   4.010 -0.4103 -3.3445  0.5323
    2bbb     H2   43   1.751   3.494   3.854  1.5079  0.2981  0.2374
    2bbb     C2   44   1.914   3.609   3.946  0.4803 -0.1433  0.0854
    2bbb     H3   45   1.966   3.515   3.924  0.5109 -0.1778  0.3059
    2bbb     H4   46   1.959   3.691   3.888  0.3503 -1.3091 -1.7368
    2bbb     N1   47   1.715   3.708   3.853  0.8576 -0.1077  0.4054
    2bbb     C3   48   1.699   3.813   3.955 -0.3466  0.2227  0.4167
    2bbb     H5   49   1.797   3.822   4.005 -0.6308  1.1140  0.8418
    2bbb     H6   50   1.624   3.788   4.031  0.3203 -1.6671  0.4941
    2bbb     C4   51   1.579   3.662   3.812  0.2960  0.3896 -0.1477
    2bbb     H7   52   1.539   3.580   3.873  0.7502  0.8569  0.8011
    2bbb     H8   53   1.509   3.747   3.811  0.6842  0.7126 -0.0687
    2bbb     C5   54   1.583   3.607   3.667 -0.3563  0.1980  0.2337
    2bbb     H9   55   1.618   3.698   3.616 -0.7211 -0.2116 -0.7778
    2bbb    H10   56   1.656   3.526   3.666 -0.6978 -0.1118 -0.2920
    2bbb     C6   57   1.671   3.945   3.883 -0.9582  0.1524 -0.3388
    2bbb    H11   58   1.749   3.952   3.805 -1.5209  1.5770 -0.8016
    2bbb    H12   59   1.580   3.950   3.821  0.1322  2.2299 -1.9237
    2bbb     C7   60   1.444   3.564   3.606 -0.2458 -0.2893 -0.3747
    2bbb     C8   61   1.680   4.064   3.973 -0.6380  1.0439 -0.2211
    2bbb     O1   62   1.345   3.632   3.617  0.5021  0.2460 -0.2736
    2bbb     O2   63   1.700   4.054   4.094 -0.4219 -0.0575  0.4331
    2bbb     N4   64   1.942   3.630   4.096 -0.2112  0.1013  0.3635
    2bbb    H21   65   1.874   3.590   4.159 -1.2346  0.0461 -0.7490
    3bbb     C1   66   2.888   3.418   4.658 -0.2605 -0.0122  0.4411
    3bbb     H1   67   2.912   3.312   4.643 -0.8534 -0.0151 -0.5139
    3bbb     H2   68   2.825   3.424   4.748 -1.6335  2.1179 -0.5961
    3bbb     C2   69   2.796   3.468   4.542  0.0090  0.5221  0.8408
    3bbb     H3   70   2.824   3.572   4.517  0.8589  0.5804  1.9929
    3bbb     H4   71   2.806   3.411   4.449 -2.5477  1.4784 -0.1262
    3bbb     N1   72   3.007   3.511   4.670 -0.2266  0.3517 -0.1800
    3bbb     C3   73   3.012   3.564   4.807  0.9943 -0.0683 -0.6577
    3bbb     H5   74   3.106   3.615   4.829  0.3221  1.5179 -1.2744
    3bbb     H6   75   2.999   3.481   4.877  0.8403 -1.7703 -2.6017
    3bbb     C4   76   3.132   3.452   4.628  0.9067  0.7096  0.6290
    3bbb     H7   77   3.218   3.514   4.656  0.0183  1.5683  1.5093
    3bbb     H8   78   3.144   3.353   4.673 -0.3266  0.5393  0.6188
    3bbb     C5   79   3.127   3.428   4.479 -0.5962 -0.2309 -0.7220
    3bbb     H9   80   3.035   3.375   4.453 -1.1913  0.7243 -0.6117
    3bbb    H10   81   3.135   3.527   4.431  0.9812 -0.7126 -1.5164
    3bbb     C6   82   2.888   3.657   4.821  0.2988 -0.4692 -0.3784
    3bbb    H11   83   2.935   3.745   4.777 -0.0291 -0.3764 -0.5451
    3bbb    H12   84   2.801   3.633   4.758 -1.0542  1.5566  0.6011
    3bbb     C7   85   3.251   3.348   4.442 -0.1857  0.2462 -0.5855
    3bbb     C8   86   2.853   3.686   4.969 -0.0798  0.1345 -0.7561
    3bbb     O1   87   3.359   3.384   4.478  0.8198 -0.2706 -0.0090
    3bbb     O2   88   2.870   3.594   5.044 -0.2842  0.2043 -0.0257
    3bbb     N4   89   2.651   3.466   4.568 -0.3649 -0.4886  0.3211
    3bbb    H21   90   2.611   3.400   4.634 -1.2394  0.3027  0.6036
    4bbb     C1   91   2.412   3.057   5.235  0.1063  0.1427  0.2740
    4bbb     H1   92   2.314   3.060   5.284  1.0794 -0.4900  2.3469
    4bbb     H2   93   2.482   3.134   5.269  0.5855 -0.8033  1.4980
    4bbb     C2   94   2.413   3.071   5.079 -0.3805 -0.4087 -0.3005
    4bbb     H3   95   2.515   3.068   5.039  0.6796  0.6016  2.1257
    4bbb     H4   96   2.357   2.989   5.033 -1.3884 -0.5435  1.1028
    4bbb     N1   97   2.477   2.926   5.266 -0.5450  0.3822 -0.6316
    4bbb     C3   98   2.387   2.811   5.239 -0.0077  0.8395 -0.0479
    4bbb     H5   99   2.297   2.854   5.192 -1.0162 -0.8029  0.3106
    4bbb     H6  100   2.352   2.763   5.331 -1.0084  0.4983 -0.5895
    4bbb     C4  101   2.541   2.918   5.397 -0.6512 -0.6482  0.4854
    4bbb     H7  102   2.596   3.012   5.404  1.0306 -1.4539 -1.1256
    4bbb     H8  103   2.463   2.902   5.473 -2.6764 -2.3009 -1.7528
    4bbb     C5  104   2.638   2.802   5.397  0.0701  0.2953  0.5869
    4bbb     H9  105   2.570   2.716   5.400  1.1674 -0.6340 -0.1802
    4bbb    H10  106   2.688   2.793   5.299 -3.7295  0.5031 -1.5729
    4bbb     C6  107   2.440   2.713   5.132 -0.0004 -0.2137 -0.7457
    4bbb    H11  108   2.490   2.757   5.044  0.2018  0.7368 -0.1761
    4bbb    H12  109   2.521   2.669   5.191  0.4399  1.5061  0.0057
    4bbb     C7  110   2.739   2.805   5.511 -0.0313  0.0111 -0.3634
    4bbb     C8  111   2.342   2.605   5.100  0.2666  0.5003  0.4159
    4bbb     O1  112   2.784   2.907   5.559 -0.2777 -0.1232  0.0674
    4bbb     O2  113   2.222   2.631   5.108  0.1078 -0.5871 -0.5119
    4bbb     N4  114   2.358   3.198   5.030 -0.0417  0.7538 -0.4711
    4bbb    H21  115   2.401   3.285   5.059  1.1483 -0.2798  1.0416
    5bbb     C1  116   1.442   3.958   4.823 -0.1045  0.0027 -0.0186
    5bbb     H1  117   1.334   3.974   4.834 -0.0750 -0.0992  0.4523
    5bbb     H2  118   1.468   3.958   4.716 -3.4982 -2.2724 -1.0249
    5bbb     C2  119   1.483   3.824   4.879  0.8572 -0.0250 -0.2932
    5bbb     H3  120   1.452   3.812   4.984  0.0686  0.6805 -0.4329
    5bbb     H4  121   1.413   3.762   4.822  1.4633 -2.6163  1.5978
    5bbb     N1  122   1.513   4.065   4.905  0.3622  0.5483  0.6511
    5bbb     C3  123   1.430   4.114   5.017  0.2275  0.2463 -0.0365
    5bbb     H5  124   1.354   4.043   5.054  0.6048 -0.2283 -0.1702
    5bbb     H6  125   1.364   4.199   4.992 -1.3398 -0.8705  0.1309
    5bbb     C4  126   1.543   4.176   4.808  0.1123  0.9671 -0.3849
    5bbb     H7  127   1.459   4.183   4.738 -0.6025  0.1925  0.3688
    5bbb     H8  128   1.556   4.268   4.867  1.4101  0.7570 -0.3275
    5bbb     C5  129   1.667   4.142   4.728 -0.2367 -0.2419  0.2168
    5bbb     H9  130   1.749   4.156   4.799  0.0608 -1.0662  0.0472
    5bbb    H10  131   1.665   4.035   4.702 -0.4125 -0.4919  1.2058
    5bbb     C6  132   1.522   4.144   5.136  0.1267 -0.5516  0.4953
    5bbb    H11  133   1.584   4.059   5.171 -0.8019 -1.6007 -0.3501
    5bbb    H12  134   1.595   4.222   5.112 -0.0794  0.4576  2.8379
    5bbb     C7  135   1.699   4.233   4.607 -0.7549 -0.0073  1.0353
    5bbb     C8  136   1.432   4.187   5.253  0.3835  0.2517 -0.2022
    5bbb     O1  137   1.800   4.296   4.611  0.2175 -0.2390 -0.3445
    5bbb     O2  138   1.390   4.303   5.263 -0.0924  0.4362  0.4233
    5bbb     N4  139   1.623   3.783   4.857 -0.4965 -0.4222  0.6978
    5bbb    H21  140   1.695   3.844   4.893 -2.8378  2.3989  0.9761
    6ccc     N1  141   1.449   3.444   3.534  0.1583 -0.7743 -0.9022
    6ccc     H4  142   1.540   3.399   3.525 -0.2268 -2.3483  2.0554
    6ccc     C3  143   1.337   3.397   3.454 -0.5955 -0.2971  0.7122
    6ccc     C4  144   1.369   3.259   3.392 -0.4948 -0.5114  0.1416
    6ccc     H5  145   1.310   3.469   3.375  2.4605  0.1081 -0.0944
    6ccc     H6  146   1.248   3.392   3.518 -1.4494  1.0518 -0.2979
    6ccc     H7  147   1.399   3.187   3.469 -0.3822 -2.2876 -1.4857
    6ccc     H8  148   1.275   3.217   3.355 -1.5728  1.5518  0.3928
    6ccc     N2  149   1.483   3.254   3.293 -0.2119  0.2887 -0.7862
    6ccc     H9  150   1.502   3.153   3.280 -2.6660 -0.6802  2.1026
    6ccc    H10  151   1.451   3.301   3.207  0.2280  0.1680 -1.0176
    6ccc    H11  152   1.572   3.294   3.328 -0.4912  1.0691 -0.9424
    7ccc     N1  153   1.676   4.184   3.904  0.8057 -0.3503  0.1697
    7ccc     H4  154   1.685   4.165   3.805 -0.9302 -0.6561  0.0464
    7ccc     C3  155   1.740   4.306   3.959  0.0568  0.2757 -0.0251
    7ccc     C4  156   1.883   4.298   3.998  0.3656  0.1136 -0.8529
    7ccc     H5  157   1.688   4.333   4.052  0.9726  1.1239  0.2653
    7ccc     H6  158   1.733   4.399   3.903 -0.3779  0.3836  0.2069
    7ccc     H7  159   1.919   4.387   4.050 -1.7466  1.2584 -1.2324
    7ccc     H8  160   1.904   4.206   4.054  2.0725  0.7799 -0.3244
    7ccc     N2  161   1.969   4.276   3.876  0.0621 -0.3843 -0.2767
    7ccc     H9  162   1.992   4.364   3.828 -0.6218 -0.2812 -0.4259
    7ccc    H10  163   2.060   4.243   3.911  0.2247 -0.0407 -0.3742
    7ccc    H11  164   1.931   4.206   3.811 -1.3712 -0.2982  0.4314
    8ccc     N1  165   3.237   3.250   4.349  0.1896 -0.2372  0.4730
    8ccc     H4  166   3.142   3.221   4.330 -0.2798  1.9558 -0.7909
    8ccc     C3  167   3.346   3.186   4.274  0.7094  0.0478 -1.1761
    8ccc     C4  168   3.359   3.235   4.131 -0.0365  0.1623  0.1689
    8ccc     H5  169   3.336   3.078   4.283 -2.2436  0.0648 -3.0468
    8ccc     H6  170   3.437   3.213   4.330  0.6019  3.0086 -2.2128
    8ccc     H7  171   3.260   3.250   4.087 -0.3810  1.2208  1.2334
    8ccc     H8  172   3.399   3.337   4.131  0.5654 -0.0652 -0.6220
    8ccc     N2  173   3.455   3.159   4.041  0.5162  0.1114 -0.2414
    8ccc     H9  174   3.420   3.065   4.020  0.5299 -1.5031  5.4260
    8ccc    H10  175   3.489   3.218   3.963 -0.3554  1.0064  0.0259
    8ccc    H11  176   3.543   3.143   4.091  0.9020  2.0346 -0.2276
    9ccc     N1  177   2.830   3.813   5.015 -0.9226  0.3221  0.0570
    9ccc     H4  178   2.836   3.883   4.943 -0.4553 -0.7344 -0.9693
    9ccc     C3  179   2.788   3.859   5.150  0.2092 -0.4557  0.0017
    9ccc     C4  180   2.884   3.961   5.210  0.2866  0.7527 -0.0757
    9ccc     H5  181   2.785   3.775   5.221 -0.7421  0.6076  1.2747
    9ccc     H6  182   2.683   3.881   5.128  0.1640  0.0039  0.6426
    9ccc     H7  183   2.874   4.046   5.143  0.7537 -0.1456 -1.3315
    9ccc     H8  184   2.859   3.986   5.313 -1.1376  0.0716 -0.2270
    9ccc     N2  185   3.030   3.930   5.218  0.0569  0.5648  0.5911
    9ccc     H9  186   3.058   3.893   5.126 -0.4241  2.2860 -0.2807
    9ccc    H10  187   3.092   4.011   5.236  1.6629 -0.6096  0.5559
    9ccc    H11  188   3.058   3.858   5.286  0.8406  1.4640  1.2576
   10ccc     N1  189   2.781   2.685   5.571  0.3823 -0.2162 -0.3339
   10ccc     H4  190   2.743   2.597   5.539  0.1746 -0.5239  0.7450
   10ccc     C3  191   2.881   2.682   5.670  0.2920  0.8211  0.3663
   10ccc     C4  192   2.896   2.540   5.719 -0.3737 -0.3985  0.8805
   10ccc     H5  193   2.849   2.739   5.758  1.2655  0.9969  0.6242
   10ccc     H6  194   2.974   2.718   5.624  0.5327  0.6209  0.6888
   10ccc     H7  195   2.917   2.476   5.633  3.0989  1.8817 -0.1771
   10ccc     H8  196   2.982   2.530   5.786  0.3461  0.8532  0.1685
   10ccc     N2  197   2.775   2.483   5.784  0.0920  0.3381 -0.1447
   10ccc     H9  198   2.697   2.477   5.718 -0.9895 -0.9966  1.1937
   10ccc    H10  199   2.783   2.383   5.806  2.3550  0.6378  0.6435
   10ccc    H11  200   2.739   2.528   5.870  1.6987  1.9641 -0.2539
   11ccc     N1  201   2.397   2.486   5.054  0.0798 -0.1897  0.1875
   11ccc     H4  202   2.497   2.488   5.041  0.3170  0.5154  1.8148
   11ccc     C3  203   2.320   2.374   4.993 -0.6801  0.5275  0.2226
   11ccc     C4  204   2.225   2.303   5.094  0.5329  0.1490  0.5496
   11ccc     H5  205   2.403   2.309   4.962 -1.7639 -0.6887 -0.2242
   11ccc     H6  206   2.269   2.412   4.904 -0.3312  1.1363  0.2706
   11ccc     H7  207   2.156   2.384   5.119 -1.9169 -1.3271 -0.9518
   11ccc     H8  208   2.162   2.228   5.045 -0.9985  1.3423  0.6146
   11ccc     N2  209   2.286   2.229   5.210 -0.0594 -0.2752 -0.1015
   11ccc     H9  210   2.361   2.169   5.173 -0.6431 -0.7471 -0.5376
   11ccc    H10  211   2.333   2.306   5.261  0.8096 -0.4636 -0.6019
   11ccc    H11  212   2.220   2.179   5.271 -0.3957 -0.3130 -0.4903
   12ccc     N1  213   1.614   4.238   4.497 -0.1708 -0.4007 -0.1112
   12ccc     H4  214   1.534   4.177   4.509  0.1937 -0.5697  1.7873
   12ccc     C3  215   1.651   4.295   4.369  0.2158  0.0651  0.5972
   12ccc     C4  216   1.562   4.413   4.327  0.4684  0.2794  0.6545
   12ccc     H5  217   1.646   4.220   4.290  2.0086  0.6516 -0.1303
   12ccc     H6  218   1.757   4.321   4.366  0.5588 -1.3221 -0.0142
   12ccc     H7  219   1.577   4.456   4.227  0.1391 -2.9314 -0.9154
   12ccc     H8  220   1.463   4.366   4.322 -0.6271  2.5276 -0.2052
   12ccc     N2  221   1.542   4.529   4.414  0.9895 -0.0024 -0.2945
   12ccc     H9  222   1.536   4.523   4.516 -0.7457  1.6234 -0.2516
   12ccc    H10  223   1.615   4.600   4.396  0.9684 -0.3038 -1.6981
   12ccc    H11  224   1.459   4.584   4.389 -1.1169 -3.3145 -1.1751
   13ccc     N1  225   1.395   4.085   5.336 -0.1197 -0.4167 -0.3356
   13ccc     H4  226   1.431   3.993   5.315 -2.0607 -1.5333  0.9605
   13ccc     C3  227   1.315   4.106   5.449  0.3247  0.5451 -0.6493
   13ccc     C4  228   1.265   3.969   5.511 -0.1360 -0.0403  0.0874
   13ccc     H5  229   1.224   4.154   5.410 -0.5165 -1.6456 -1.5377
   13ccc     H6  230   1.368   4.168   5.522 -1.3744 -1.8890  2.9607
   13ccc     H7  231   1.211   3.997   5.601  0.3057 -0.5032  0.4971
   13ccc     H8  232   1.192   3.922   5.444 -0.6646 -1.4527  1.6043
   13ccc     N2  233   1.351   3.857   5.557  0.3037 -1.1648  0.3829
   13ccc     H9  234   1.301   3.771   5.583  0.2642 -1.1737  0.2807
   13ccc    H10  235   1.427   3.834   5.491  1.6860  0.5527  1.2974
   13ccc    H11  236   1.407   3.898   5.633  0.9753 -2.4578  0.6062
   14SOL     OW  237   3.793   0.969   1.300 -0.0351 -0.1821  0.8352
   14SOL    HW1  238   3.807   0.943   1.209  1.5194 -0.0619  0.9977
   14SOL    HW2  239   3.703   0.944   1.319 -0.9958  1.4455 -1.2682
   15SOL     OW  240   4.401   1.125   4.463  0.2992 -0.1405 -0.1258
   15SOL    HW1  241   4.347   1.105   4.539  0.2722 -1.1314 -0.3937
   15SOL    HW2  242   4.458   1.196   4.492 -0.4223  0.2061  0.4867
   16SOL     OW  243   2.708   3.393   2.171 -0.5938 -0.3696 -0.0293
   16SOL    HW1  244   2.769   3.465   2.188  0.9183 -1.4847 -0.5857
   16SOL    HW2  245   2.761   3.325   2.130 -2.0680 -1.6725  0.1296
   17SOL     OW  246   3.312   4.839   1.441 -0.3193 -0.0383  0.2660
   17SOL    HW1  247   3.380   4.865   1.378  0.4620  0.0431  1.1131
   17SOL    HW2  248   3.239   4.809   1.387  0.3682 -0.0735 -0.6717
   18SOL     OW  249   2.088   1.583   1.693 -0.1602  0.1881 -0.0385
   18SOL    HW1  250   2.046   1.497   1.689 -0.3085  0.2121  0.8781
   18SOL    HW2  251   2.142   1.586   1.614 -0.2813 -0.6828 -0.1708
   19SOL     OW  252   0.376   1.296   3.773  0.4627  0.0427 -0.8990
   19SOL    HW1  253   0.282   1.289   3.787  0.6410 -1.7684 -0.3297
   19SOL    HW2  254   0.389   1.270   3.682  0.4087  0.3652 -0.9994
   20SOL     OW  255   2.071   0.591   1.563  0.0829  0.4215 -0.3759
   20SOL    HW1  256   2.037   0.677   1.540  1.7243  1.3749  0.4975
   20SOL    HW2  257   2.142   0.576   1.500 -0.3766 -0.4558 -0.7083
   21SOL     OW  258   4.910   1.152   4.290  0.4151  0.6353 -0.3509
   21SOL    HW1  259   4.999   1.131   4.319  0.1938  0.5968  0.3294
   21SOL    HW2  260   4.900   1.245   4.309 -0.1351  0.3515  0.8058
   22SOL     OW  261   3.144   3.844   4.338  0.2132  0.4799 -0.1861
   22SOL    HW1  262   3.155   3.750   4.326  1.4985  0.6070 -0.0778
   22SOL    HW2  263   3.131   3.855   4.432 -1.0704  0.3187 -0.3292
   23SOL     OW  264   3.280   0.882   2.015  0.2359  0.0224 -0.0642
   23SOL    HW1  265   3.301   0.856   2.104 -0.4008 -0.1648  0.0396
   23SOL    HW2  266   3.309   0.809   1.961  1.6584  0.6073 -0.1449
   24SOL     OW  267   4.362   3.247   2.872 -0.1550  0.2084 -0.0036
   24SOL    HW1  268   4.312   3.168   2.895 -0.1645 -0.1759 -1.2545
   24SOL    HW2  269   4.300   3.319   2.884 -0.7919 -0.1888 -0.7940
   25SOL     OW  270   0.870   1.338   2.160  0.5641 -0.5683  0.3395
   25SOL    HW1  271   0.807   1.272   2.129  0.4430  0.2677 -1.2998
   25SOL    HW2  272   0.820   1.419   2.164  1.5149  0.1528 -1.1804
   26SOL     OW  273   3.029   1.811   3.937 -0.4174  0.2105 -0.0173
   26SOL    HW1  274   3.013   1.717   3.939  1.9509 -0.2543 -0.0239
   26SOL    HW2  275   3.011   1.837   3.847  1.5821 -0.8406 -0.7943
   27SOL     OW  276   0.706   0.715   2.716 -0.7330 -0.4412  0.4868
   27SOL    HW1  277   0.791   0.719   2.761  0.1677 -0.3488 -1.1404
   27SOL    HW2  278   0.651   0.660   2.773  0.7331 -1.3715  1.0662
   28SOL     OW  279   2.351   1.701   3.773 -0.3489  1.2526 -0.2691
   28SOL    HW1  280   2.439   1.729   3.746  0.1072  0.4811  0.3683
   28SOL    HW2  281   2.332   1.751   3.852 -0.0769  0.7399  0.1298
   29SOL     OW  282   2.874   2.550   2.372 -0.5526  0.2333  0.1509
   29SOL    HW1  283   2.924   2.565   2.453  1.3190  1.9260 -1.2147
   29SOL    HW2  284   2.941   2.525   2.308 -1.9171 -0.5014 -1.0310
   30SOL     OW  285   3.239   2.455   4.736  0.6467 -0.4572 -0.4723
   30SOL    HW1  286   3.330   2.423   4.734  0.1736 -1.8457 -1.4709
   30SOL    HW2  287   3.239   2.527   4.673  1.7531  1.7517  1.8832
   31SOL     OW  288   0.476   2.339   4.781 -0.5979 -0.4505  0.4288
   31SOL    HW1  289   0.499   2.248   4.798 -1.0945 -0.4781  0.9584
   31SOL    HW2  290   0.406   2.359   4.844  0.4441  0.7097  1.2562
   32SOL     OW  291   1.716   2.208   0.324 -0.4716 -0.5468 -0.0390
   32SOL    HW1  292   1.665   2.127   0.323  0.7002 -1.3227 -1.2162
   32SOL    HW2  293   1.807   2.178   0.328 -0.0358  0.7292 -0.0383
   33SOL     OW  294   2.459   4.293   0.895  0.4355 -0.4911 -0.3534
   33SOL    HW1  295   2.377   4.286   0.847  0.1988  0.0411 -0.0301
   33SOL    HW2  296   2.474   4.387   0.906  0.7162 -0.5930  0.2124
   34SOL     OW  297   2.521   2.502   0.639  0.0811 -0.6185 -0.4912
   34SOL    HW1  298   2.476   2.557   0.703 -1.1959  0.2197 -2.0304
   34SOL    HW2  299   2.456   2.434   0.616  0.6597 -1.1386 -0.6118
   35SOL     OW  300   3.552   4.082   1.686 -0.3233  0.3075 -0.7665
   35SOL    HW1  301   3.605   4.035   1.750 -1.4893  0.4383  0.3400
   35SOL    HW2  302   3.525   4.015   1.623 -0.6756 -0.1877 -0.0951
   36SOL     OW  303   1.531   3.409   4.530 -0.0863  0.1600 -0.6572
   36SOL    HW1  304   1.553   3.469   4.602  0.0638  1.0909 -1.4509
   36SOL    HW2  305   1.487   3.336   4.573  0.3880  0.4820  0.4338
   37SOL     OW  306   2.966   0.993   1.678 -0.2455  0.0517 -0.0862
   37SOL    HW1  307   2.901   0.939   1.722  0.3763  0.0731  0.8746
   37SOL    HW2  308   3.050   0.959   1.708  0.1685  0.9086 -0.2500
   38SOL     OW  309   4.696   1.549   0.233  0.2429  0.2756  0.9168
   38SOL    HW1  310   4.716   1.642   0.236 -0.0532  0.3953 -0.2500
   38SOL    HW2  311   4.782   1.507   0.224  0.4290  0.3787  2.0633
   39SOL     OW  312   0.468   1.003   3.494 -0.4851 -0.0538 -0.4221
   39SOL    HW1  313   0.420   1.072   3.541  2.1257  1.3146  0.4436
   39SOL    HW2  314   0.483   0.935   3.559 -0.4307 -0.0467 -0.4274
   40SOL     OW  315   3.272   1.435   3.723 -0.4832 -0.6173 -0.1690
   40SOL    HW1  316   3.210   1.411   3.792 -0.6119 -1.1791 -0.4803
   40SOL    HW2  317   3.355   1.395   3.751 -0.1233  0.5267  0.4909
   41SOL     OW  318   3.053   1.090   0.497  0.3399 -0.0832  0.5761
   41SOL    HW1  319   3.059   1.087   0.402  0.4647  1.4334  0.5266
   41SOL    HW2  320   3.131   1.138   0.525  0.1300 -0.2200  1.4227
   42SOL     OW  321   0.980   2.446   3.748  0.2112 -0.4235 -0.2917
   42SOL    HW1  322   0.891   2.481   3.743 -0.2653 -1.5032  0.1888
   42SOL    HW2  323   0.971   2.355   3.719  0.9363 -0.8876  0.8673
   43SOL     OW  324   1.885   4.188   2.047 -0.1716 -0.1915  0.2375
   43SOL    HW1  325   1.872   4.159   2.137 -0.7593 -0.5627  0.0376
   43SOL    HW2  326   1.800   4.226   2.022 -0.0774 -0.2876 -0.2280
   44SOL     OW  327   2.020   2.688   2.575  0.1365  0.2828 -0.1645
   44SOL    HW1  328   2.011   2.783   2.570 -3.1243  0.0942  0.2336
   44SOL    HW2  329   2.045   2.671   2.666  0.2623  0.7160 -0.1120
   45SOL     OW  330   1.691   2.691   3.746  0.1555 -0.2980 -0.1284
   45SOL    HW1  331   1.760   2.674   3.810  0.1013 -1.5352 -0.3857
   45SOL    HW2  332   1.635   2.757   3.788 -0.4060 -1.7429  1.5059
   46SOL     OW  333   1.338   2.939   1.814 -0.4376  0.7789  0.0311
   46SOL    HW1  334   1.270   2.996   1.850  0.2240  0.8869  1.1409
   46SOL    HW2  335   1.399   2.999   1.771  0.3457  0.9533  1.3408
   47SOL     OW  336   1.675   4.665   3.472 -0.4927 -0.1065  0.4388
   47SOL    HW1  337   1.615   4.740   3.482 -1.2338 -0.7649  1.0496
   47SOL    HW2  338   1.752   4.702   3.428 -1.6479  0.6048 -1.0878
   48SOL     OW  339   4.433   3.576   2.095 -0.0619  0.0363  0.0133
   48SOL    HW1  340   4.480   3.496   2.121  2.1095  1.5519  1.0690
   48SOL    HW2  341   4.491   3.619   2.033 -0.2951  1.7058  0.9070
   49SOL     OW  342   4.364   3.362   1.888  0.3882  0.5793  0.5964
   49SOL    HW1  343   4.365   3.451   1.924  1.4117 -0.1088  2.4045
   49SOL    HW2  344   4.454   3.332   1.896  0.5706  0.1836 -2.2072
   50SOL     OW  345   3.501   0.209   4.324 -0.3141 -0.1733  0.0264
   50SOL    HW1  346   3.496   0.235   4.416 -0.8320 -0.6460  0.1388
   50SOL    HW2  347   3.526   0.117   4.327  1.2958  0.2217 -0.3607
   51SOL     OW  348   2.998   4.469   4.802 -0.0049  0.5634 -0.3740
   51SOL    HW1  349   3.070   4.500   4.858 -2.8066  2.9344  2.3171
   51SOL    HW2  350   2.974   4.384   4.839 -0.8704  1.4493  1.2303
   52SOL     OW  351   0.051   3.957   1.912  0.2843 -0.0418  0.1321
   52SOL    HW1  352   0.082   4.025   1.972  0.8328 -0.3556  0.2084
   52SOL    HW2  353  -0.012   4.001   1.855  0.0713  0.3549  0.6699
   53SOL     OW  354   2.911   4.942   2.453 -0.0476 -0.2542 -0.2874
   53SOL    HW1  355   2.875   5.013   2.507 -0.3236  1.3838 -2.4801
   53SOL    HW2  356   2.837   4.915   2.398  0.6250 -0.7671 -0.9503
   54SOL     OW  357   3.843   2.825   3.715 -0.3349 -0.6468  0.0980
   54SOL    HW1  358   3.863   2.875   3.795 -1.5675 -3.5347  2.3919
   54SOL    HW2  359   3.884   2.740   3.729 -1.1906 -1.4818 -2.0645
   55SOL     OW  360   4.801   0.977   2.107 -0.0787  0.1493 -0.0173
   55SOL    HW1  361   4.736   0.957   2.173 -0.8107 -0.0031 -0.7685
   55SOL    HW2  362   4.839   1.061   2.134 -0.4003  0.1070  0.5598
   56SOL     OW  363   1.995   1.895   0.204  0.8891 -0.6621 -0.3965
   56SOL    HW1  364   2.057   1.851   0.146  2.0060 -0.9394  0.9379
   56SOL    HW2  365   2.006   1.851   0.289  0.0048  0.3477  0.2766
   57SOL     OW  366   2.495   0.012   3.525  0.0210  0.3660  0.1445
   57SOL    HW1  367   2.584   0.042   3.506 -0.1241 -0.0712 -1.3863
   57SOL    HW2  368   2.440   0.088   3.508 -0.0183  0.2550 -0.2291
   58SOL     OW  369   2.284   3.681   1.242  0.1656 -0.0401 -0.0262
   58SOL    HW1  370   2.377   3.706   1.244  0.4252 -0.9527  0.2668
   58SOL    HW2  371   2.268   3.643   1.329 -0.8457  1.2989  0.3909
   59SOL     OW  372   2.284   3.037   1.052 -0.3308 -0.3079  0.7605
   59SOL    HW1  373   2.283   3.021   0.958  2.1843 -1.1954  0.7919
   59SOL    HW2  374   2.192   3.042   1.077 -1.0730 -0.9471 -1.5906
   60SOL     OW  375   3.401   1.703   3.859  0.0448 -0.2273  0.0974
   60SOL    HW1  376   3.341   1.702   3.784  0.1207 -0.3990  0.0392
   60SOL    HW2  377   3.396   1.793   3.892 -0.3496 -0.2754  0.1755
   61SOL     OW  378   4.432   3.245   3.294 -0.0218  0.1653 -0.2595
   61SOL    HW1  379   4.491   3.294   3.351 -0.6680  0.6541  0.0042
   61SOL    HW2  380   4.479   3.237   3.211  2.3607 -3.3346  1.1792
   62SOL     OW  381   2.236   2.377   1.850 -0.1388  0.2312  0.4886
   62SOL    HW1  382   2.202   2.350   1.764  0.0691  0.3982  0.3532
   62SOL    HW2  383   2.182   2.329   1.913 -1.3592  1.3273  0.3051
   63SOL     OW  384   4.262   2.126   2.882  0.0451 -0.2561 -0.4704
   63SOL    HW1  385   4.306   2.076   2.813  1.8458  0.7995 -0.1205
   63SOL    HW2  386   4.241   2.210   2.841 -0.9237 -0.4360 -0.3743
   64SOL     OW  387   1.754   0.300   4.530 -0.2687 -0.2495 -0.7423
   64SOL    HW1  388   1.704   0.219   4.520 -1.0151  0.2194 -0.9194
   64SOL    HW2  389   1.713   0.361   4.469 -0.5944  0.6747  0.3651
   65SOL     OW  390   3.179   4.579   3.278 -0.2161 -0.0004 -0.2442
   65SOL    HW1  391   3.108   4.579   3.214  1.0238  1.7712 -1.7423
   65SOL    HW2  392   3.211   4.488   3.279 -1.9241 -0.6263 -0.1606
   66SOL     OW  393   3.168   2.890   0.129  0.3299  0.0472  0.0669
   66SOL    HW1  394   3.253   2.928   0.107  0.3417  1.3941  2.1112
   66SOL    HW2  395   3.183   2.844   0.212 -0.5880 -1.0825 -0.3791
   67SOL     OW  396   2.718   0.992   4.010  0.1382 -0.1780 -0.4923
   67SOL    HW1  397   2.693   1.045   4.086 -1.3972 -1.4160 -0.1013
   67SOL    HW2  398   2.814   0.988   4.016  0.1379  0.7667  0.6751
   68SOL     OW  399   3.138   2.191   4.771  0.2509  0.1900 -0.0393
   68SOL    HW1  400   3.095   2.181   4.856  0.6225 -1.2021  0.0050
   68SOL    HW2  401   3.139   2.285   4.756 -2.2383  0.3294  0.2498
   69SOL     OW  402   0.424   2.448   4.191  0.0354  0.2062 -0.1873
   69SOL    HW1  403   0.356   2.428   4.256 -0.5964 -0.6813 -1.0937
   69SOL    HW2  404   0.406   2.538   4.165 -1.8567 -0.5191 -1.6118
   70SOL     OW  405   0.433   2.963   2.857 -0.1558 -0.1192  0.0229
   70SOL    HW1  406   0.495   3.034   2.839  1.0396 -0.9730  0.6492
   70SOL    HW2  407   0.488   2.887   2.876 -1.4033 -0.8419  0.8657
   71SOL     OW  408   4.650   3.523   3.886 -0.3486 -0.0702  0.7655
   71SOL    HW1  409   4.721   3.483   3.836  0.2780 -0.5096  1.9669
   71SOL    HW2  410   4.634   3.606   3.843 -0.9618 -1.1370 -1.1588
   72SOL     OW  411   3.831   4.474   1.142  0.8623  0.0704  0.3177
   72SOL    HW1  412   3.784   4.458   1.060  0.2118 -1.2452  0.9202
   72SOL    HW2  413   3.824   4.568   1.156 -0.4906  0.0797 -0.2663
   73SOL     OW  414   2.284   0.728   3.625 -0.0885 -0.4416  0.0214
   73SOL    HW1  415   2.287   0.810   3.674  0.0520 -0.9348  0.8559
   73SOL    HW2  416   2.376   0.709   3.604 -0.2053  0.2180 -1.2450
   74SOL     OW  417   4.927   3.124   2.542  0.5424  0.1713  0.0133
   74SOL    HW1  418   4.968   3.076   2.614 -1.5509 -0.9014  0.5638
   74SOL    HW2  419   4.976   3.206   2.537  2.8378 -1.0861  0.4737
   75SOL     OW  420   1.219   3.815   0.244 -0.3711 -0.6906 -0.2796
   75SOL    HW1  421   1.241   3.758   0.170  0.3812 -2.2386  1.0990
   75SOL    HW2  422   1.124   3.822   0.241 -0.4028 -1.2775 -0.9928
   76SOL     OW  423   4.213   4.921   0.332 -0.0530 -0.0534  0.0595
   76SOL    HW1  424   4.251   4.969   0.405  1.5191  0.2391 -0.8861
   76SOL    HW2  425   4.248   4.832   0.340 -0.1928 -0.1250 -0.1042
   77SOL     OW  426   3.289   1.098   1.600  0.0599 -0.9495 -0.5371
   77SOL    HW1  427   3.254   1.127   1.515  2.8183  0.9913 -1.1368
   77SOL    HW2  428   3.246   1.154   1.664 -0.9375 -1.4269 -0.7582
   78SOL     OW  429   3.996   3.007   0.998 -0.6353  0.6094 -0.5655
   78SOL    HW1  430   4.067   3.065   0.971  1.0820 -0.4353  1.4267
   78SOL    HW2  431   4.026   2.919   0.976 -1.4771  0.1839 -0.0735
   79SOL     OW  432   4.282   1.132   2.009 -0.1073 -0.1647  0.1721
   79SOL    HW1  433   4.373   1.134   2.039  0.5446  1.4482 -1.6841
   79SOL    HW2  434   4.245   1.214   2.041  0.1386  0.8088 -1.8440
   80SOL     OW  435   1.098   0.145   3.994  0.0186 -0.1038  0.3375
   80SOL    HW1  436   1.186   0.154   3.960 -0.0815 -0.3987  0.0047
   80SOL    HW2  437   1.088   0.052   4.014  0.1156  0.0774  1.2776
   81SOL     OW  438   4.473   3.465   4.688 -0.6072  0.4024 -0.2404
   81SOL    HW1  439   4.537   3.499   4.750  0.5077 -1.8267 -0.0762
   81SOL    HW2  440   4.490   3.515   4.607 -0.1374  1.3325  0.4140
   82SOL     OW  441   2.853   1.577   4.582  0.2835 -0.7542 -0.6819
   82SOL    HW1  442   2.866   1.561   4.489  0.2797 -0.5082 -0.7243
   82SOL    HW2  443   2.903   1.657   4.600  0.8733 -1.1914 -0.3287
   83SOL     OW  444   2.631   1.036   0.391 -0.3141 -0.0830 -0.1402
   83SOL    HW1  445   2.548   0.993   0.374 -0.1699 -0.8053  0.8558
   83SOL    HW2  446   2.625   1.065   0.482  0.4611 -0.0106 -0.1011
   84SOL     OW  447   1.753   2.163   1.393  0.0011  0.2319  0.3007
   84SOL    HW1  448   1.784   2.119   1.314  1.1827 -0.9963  1.4023
   84SOL    HW2  449   1.670   2.119   1.414  0.1360 -0.0465  0.2463
   85SOL     OW  450   0.992   1.052   1.910 -0.3216  0.1114  0.5255
   85SOL    HW1  451   1.054   1.100   1.965 -2.1441  1.1924  1.7382
   85SOL    HW2  452   0.909   1.056   1.957 -1.3464 -1.3166 -1.0149
   86SOL     OW  453   2.674   4.318   0.649  0.5176 -0.1781 -0.5125
   86SOL    HW1  454   2.735   4.250   0.675 -0.4589 -0.9667 -0.2162
   86SOL    HW2  455   2.591   4.272   0.636  0.4133  0.5366 -2.7967
   87SOL     OW  456   3.498   4.802   0.550 -0.4490  0.4681  0.5170
   87SOL    HW1  457   3.448   4.724   0.525  0.4205  0.5726 -1.8043
   87SOL    HW2  458   3.454   4.874   0.505  1.5618  0.5861 -1.4572
   88SOL     OW  459   4.472   1.127   3.123 -0.4292  0.8434 -0.6207
   88SOL    HW1  460   4.485   1.039   3.159 -1.0813  0.7456 -0.6097
   88SOL    HW2  461   4.561   1.161   3.110 -0.1688  0.9103  1.1123
   89SOL     OW  462   4.602   4.274   2.548  0.3712 -0.1346  0.0237
   89SOL    HW1  463   4.540   4.328   2.597 -0.6961 -0.7032 -0.6610
   89SOL    HW2  464   4.612   4.194   2.601  0.2050 -0.2156 -0.0684
   90SOL     OW  465   4.577   1.907   1.617  0.1213 -0.5645 -0.4962
   90SOL    HW1  466   4.643   1.913   1.686  0.7063 -0.5952 -1.0477
   90SOL    HW2  467   4.495   1.889   1.664  0.2283  0.9083  0.3267
   91SOL     OW  468   3.498   1.222   2.925 -0.4871  0.8987  0.2330
   91SOL    HW1  469   3.430   1.167   2.885 -1.5694  2.1595  0.2377
   91SOL    HW2  470   3.503   1.299   2.868 -0.4860  1.7215  1.3110
   92SOL     OW  471   0.379   3.961   0.975 -0.3511 -0.0577 -0.0973
   92SOL    HW1  472   0.378   3.868   0.997 -0.8957 -0.0825 -0.2104
   92SOL    HW2  473   0.423   4.003   1.049 -0.2650 -0.3791  0.0365
   93SOL     OW  474   3.590   2.771   1.047 -0.1498  0.2822 -0.2984
   93SOL    HW1  475   3.602   2.680   1.075 -0.8752 -0.0785 -1.0998
   93SOL    HW2  476   3.502   2.772   1.010  0.9392  0.5855 -3.0467
   94SOL     OW  477   4.530   1.156   2.100  0.0761 -0.0677 -0.4950
   94SOL    HW1  478   4.550   1.152   2.194 -1.5129  0.2447 -0.1116
   94SOL    HW2  479   4.608   1.194   2.060 -0.5762  3.5522  1.2365
   95SOL     OW  480   3.016   3.068   2.462  0.1985  0.0074 -0.2533
   95SOL    HW1  481   2.974   3.036   2.541  0.3944  0.5514  0.0755
   95SOL    HW2  482   3.039   2.989   2.413  0.6385 -0.3618  0.5234
   96SOL     OW  483   4.315   0.012   1.974  0.3202 -0.4386  0.1482
   96SOL    HW1  484   4.374   0.035   2.046 -0.2296 -1.8586  1.0986
   96SOL    HW2  485   4.330   0.079   1.908  1.2078  0.6198  1.3821
   97SOL     OW  486   1.115   1.108   1.462 -0.0736  0.1458  0.1214
   97SOL    HW1  487   1.190   1.086   1.407 -0.1741 -0.3031  0.1642
   97SOL    HW2  488   1.125   1.202   1.480  0.7452 -0.0177  0.5401
   98SOL     OW  489   2.868   1.086   0.240 -0.0632  0.4634  0.8825
   98SOL    HW1  490   2.791   1.091   0.296 -1.8274  0.0824 -1.4014
   98SOL    HW2  491   2.880   0.993   0.223 -2.1991  0.6586 -2.6613
   99SOL     OW  492   4.408   4.131   2.256  0.7259 -0.3239  0.5822
   99SOL    HW1  493   4.351   4.176   2.319 -1.5994  0.6728 -2.0243
   99SOL    HW2  494   4.401   4.039   2.279 -0.6540 -0.0599  1.3381
  100SOL     OW  495   0.563   1.813   1.145  0.3457  0.2570 -0.2605
  100SOL    HW1  496   0.525   1.901   1.150 -0.7025 -0.0780 -1.5862
  100SOL    HW2  497   0.582   1.800   1.052 -0.4062 -1.2605 -0.2431
  101SOL     OW  498   2.756   1.055   2.787 -0.2516 -0.1714 -0.1603
  101SOL    HW1  499   2.761   1.150   2.801  0.4024 -0.2784  0.3888
  101SOL    HW2  500   2.663   1.037   2.775 -0.3738  0.5506 -0.3558
  102SOL     OW  501   1.646   4.307   0.778 -0.0992 -0.2251 -0.0371
  102SOL    HW1  502   1.647   4.393   0.737 -0.2592 -0.0737  0.2710
  102SOL    HW2  503   1.611   4.323   0.866 -0.0070 -0.5833  0.0662
  103SOL     OW  504   3.948   2.838   1.426 -0.1974  0.0158  0.1006
  103SOL    HW1  505   3.974   2.875   1.511 -1.1763  0.7559  0.0931
  103SOL    HW2  506   4.027   2.848   1.372 -0.0884  1.1196  0.4233
  104SOL     OW  507   0.487   0.526   3.144 -0.0376  0.3424  0.7168
  104SOL    HW1  508   0.533   0.597   3.189 -1.1916  0.4113  1.8588
  104SOL    HW2  509   0.402   0.520   3.189 -0.1906 -1.3752  0.2765
  105SOL     OW  510   1.836   3.945   0.046  0.2971 -0.1492 -0.2414
  105SOL    HW1  511   1.821   4.026  -0.002  2.0654  0.5880  0.3754
  105SOL    HW2  512   1.914   3.906   0.004 -1.2452 -2.2560 -1.3914
  106SOL     OW  513   3.051   0.679   3.728 -0.0042 -0.0998  0.2629
  106SOL    HW1  514   3.112   0.748   3.699  0.3568 -0.7353 -0.5220
  106SOL    HW2  515   3.107   0.612   3.767 -0.2281 -0.5003 -0.0923
  107SOL     OW  516   1.181   2.112   2.158  0.0941  0.0803 -0.3417
  107SOL    HW1  517   1.126   2.069   2.223 -1.4702  3.7888  1.0924
  107SOL    HW2  518   1.145   2.084   2.074 -0.0864 -2.1330  0.4081
  108SOL     OW  519   1.101   2.159   0.186  0.7185  0.1591  0.1395
  108SOL    HW1  520   1.044   2.094   0.227  0.8174  1.2352  2.1044
  108SOL    HW2  521   1.057   2.243   0.200  0.8098  0.6193 -1.9453
  109SOL     OW  522   0.527   2.866   0.931  0.1430 -0.7915 -0.3355
  109SOL    HW1  523   0.540   2.956   0.961  0.6694 -0.6744 -0.8883
  109SOL    HW2  524   0.549   2.868   0.838 -0.0125 -1.4585 -0.3955
  110SOL     OW  525   3.853   2.187   0.381  0.1559  0.1228 -0.0731
  110SOL    HW1  526   3.778   2.216   0.330  0.8443  0.2897 -1.0082
  110SOL    HW2  527   3.839   2.093   0.393  0.6558 -0.1942 -1.7576
  111SOL     OW  528   0.293   1.834   2.597  0.1766  0.4010  0.1148
  111SOL    HW1  529   0.308   1.881   2.515  3.8035 -2.3308 -1.0559
  111SOL    HW2  530   0.368   1.858   2.652 -0.4710 -0.3331  1.3715
  112SOL     OW  531   0.099   3.184   1.533 -0.2421  0.3736  0.0025
  112SOL    HW1  532   0.144   3.115   1.581 -0.1796 -0.3701 -1.0863
  112SOL    HW2  533   0.104   3.157   1.441  0.5273  2.2553 -0.5628
  113SOL     OW  534   3.751   2.008   1.923 -0.2931 -0.1513  0.3515
  113SOL    HW1  535   3.740   1.998   1.828  0.0993  0.3380  0.2512
  113SOL    HW2  536   3.827   2.064   1.932 -0.4934  0.0253  0.9580
  114SOL     OW  537   1.018   0.410   2.792  0.1610  0.7565 -0.5064
  114SOL    HW1  538   0.941   0.382   2.842  0.0006 -1.5087 -1.8661
  114SOL    HW2  539   0.982   0.461   2.719  0.2672  2.5919  0.6671
  115SOL     OW  540   1.172   3.971   3.853 -0.6797  0.2098 -0.2957
  115SOL    HW1  541   1.224   4.022   3.791 -0.7814  1.3513  0.5258
  115SOL    HW2  542   1.123   3.909   3.798 -0.2797  0.7434 -1.2819
  116SOL     OW  543   4.855   2.733   0.363  0.2649 -0.4630  0.0855
  116SOL    HW1  544   4.793   2.666   0.335 -0.2254  0.4524 -1.1206
  116SOL    HW2  545   4.806   2.815   0.357  0.9651  0.0651  1.1629
  117SOL     OW  546   4.725   3.945   2.619 -0.1539  0.1558 -0.3663
  117SOL    HW1  547   4.655   3.977   2.676 -0.7073  0.7341 -1.3545
  117SOL    HW2  548   4.797   4.008   2.631 -0.7280  1.0097 -1.2356
  118SOL     OW  549   2.869   3.921   1.520 -0.5418  0.2926 -0.1308
  118SOL    HW1  550   2.882   3.999   1.573 -1.6981  0.9106 -0.7168
  118SOL    HW2  551   2.947   3.868   1.535  0.6767  1.9540 -0.3938
  119SOL     OW  552   4.442   1.891   4.338  0.4907 -0.1136 -0.1230
  119SOL    HW1  553   4.370   1.830   4.356 -0.0806  0.3171 -0.8700
  119SOL    HW2  554   4.483   1.906   4.423 -0.2444 -0.4378  0.2987
  120SOL     OW  555   4.776   2.705   4.375 -0.2280  0.4781  0.0610
  120SOL    HW1  556   4.700   2.757   4.402 -0.6068  0.0626 -0.1862
  120SOL    HW2  557   4.773   2.707   4.279 -0.3865 -0.1990  0.0491
  121SOL     OW  558   3.708   1.596   1.583  0.1251  0.0993 -0.4692
  121SOL    HW1  559   3.633   1.624   1.530 -0.4503 -0.6014 -0.0401
  121SOL    HW2  560   3.671   1.577   1.669  0.6446 -1.0624 -0.4877
  122SOL     OW  561   0.554   3.654   1.355  0.2769  0.3355  0.2635
  122SOL    HW1  562   0.593   3.680   1.439 -0.2881  0.0021  0.6347
  122SOL    HW2  563   0.590   3.716   1.291  1.1389  0.2522  0.6586
  123SOL     OW  564   1.046   1.997   2.770  0.0917  0.0901  0.4307
  123SOL    HW1  565   1.121   1.961   2.722  0.2883  0.2555  0.6109
  123SOL    HW2  566   1.021   1.927   2.830  0.4921  0.2609  0.8010
  124SOL     OW  567   1.043   4.849   3.530 -0.1746  0.0966 -0.2698
  124SOL    HW1  568   1.097   4.926   3.551  0.3797 -0.7844  1.6893
  124SOL    HW2  569   1.068   4.827   3.440 -0.3740  2.1972 -0.8992
  125SOL     OW  570   0.848   2.677   2.681  0.3673 -0.0048 -0.1765
  125SOL    HW1  571   0.906   2.668   2.757 -0.1637 -2.6463 -0.0144
  125SOL    HW2  572   0.892   2.630   2.611  0.0203  0.9498 -1.0670
  126SOL     OW  573   3.304   3.235   3.804  0.1037 -0.5593  0.5360
  126SOL    HW1  574   3.330   3.189   3.724  0.7439 -1.1703  1.0733
  126SOL    HW2  575   3.243   3.302   3.775  0.7777 -0.3900 -0.5411
  127SOL     OW  576   2.064   3.935   4.855 -0.1561  0.0968  0.1137
  127SOL    HW1  577   2.147   3.967   4.888 -0.9374  2.2117  0.1891
  127SOL    HW2  578   2.079   3.920   4.762  0.6831 -0.9645  0.4078
  128SOL     OW  579   4.347   0.354   1.100 -0.1513 -0.1013 -0.1016
  128SOL    HW1  580   4.372   0.429   1.154  0.6575  0.3565 -1.0770
  128SOL    HW2  581   4.430   0.316   1.072 -0.5232  0.3112 -1.8735
  129SOL     OW  582   3.294   0.620   0.688 -0.2396  0.6051  0.2240
  129SOL    HW1  583   3.388   0.632   0.696  0.0203 -1.1736  0.3015
  129SOL    HW2  584   3.265   0.691   0.631  0.9411  1.8740  1.1476
  130SOL     OW  585   4.257   3.621   0.380  0.2517 -0.1305 -0.0921
  130SOL    HW1  586   4.251   3.690   0.314 -0.8820 -0.4310 -0.3121
  130SOL    HW2  587   4.259   3.669   0.463 -0.8146  0.1717 -0.2279
  131SOL     OW  588   0.445   3.938   2.476  0.3683  0.1548  0.3833
  131SOL    HW1  589   0.409   4.023   2.448  2.1923  0.6085 -0.7655
  131SOL    HW2  590   0.426   3.879   2.403  0.0340 -0.1581  0.7227
  132SOL     OW  591   1.490   4.551   1.188  0.1924 -0.5932 -0.7500
  132SOL    HW1  592   1.417   4.612   1.176 -0.0737 -0.2476  2.0067
  132SOL    HW2  593   1.486   4.526   1.280  2.2265 -2.3342 -1.0476
  133SOL     OW  594   3.924   0.026   0.216 -0.1182 -0.2149  0.2846
  133SOL    HW1  595   3.951  -0.016   0.298  0.2967 -1.0262 -0.2586
  133SOL    HW2  596   3.905  -0.047   0.157  2.6312  0.2714 -1.3667
  134SOL     OW  597   3.409   4.785   4.551  0.1588  0.3245  0.1770
  134SOL    HW1  598   3.321   4.822   4.554 -0.3009 -0.6807 -0.5253
  134SOL    HW2  599   3.444   4.813   4.467 -0.2868 -1.0034 -0.4721
  135SOL     OW  600   1.539   2.704   1.963  0.2436  0.1808 -0.7960
  135SOL    HW1  601   1.534   2.619   2.007  2.3533  0.7246  0.6143
  135SOL    HW2  602   1.631   2.713   1.938 -0.1936  1.5215 -2.0609
  136SOL     OW  603   4.602   0.213   2.019 -0.1871  0.0306  0.3253
  136SOL    HW1  604   4.573   0.304   2.011  1.8725  1.0279  2.9940
  136SOL    HW2  605   4.661   0.201   1.944 -0.6802  0.7797 -0.2069
  137SOL     OW  606   3.701   1.009   2.522 -0.2399 -0.2678  0.2301
  137SOL    HW1  607   3.625   0.960   2.554  0.7014 -1.4525  0.7144
  137SOL    HW2  608   3.775   0.972   2.568  0.6068  1.1912  0.1117
  138SOL     OW  609   2.903   3.804   2.415 -0.0403 -0.4130  0.2244
  138SOL    HW1  610   2.824   3.845   2.450 -0.2710 -0.0324 -0.6938
  138SOL    HW2  611   2.891   3.711   2.429 -0.4935 -0.3265  0.4169
  139SOL     OW  612   3.129   4.082   4.202  1.0811  0.2966 -0.0262
  139SOL    HW1  613   3.118   4.004   4.257  1.2895 -0.6163 -1.2141
  139SOL    HW2  614   3.083   4.060   4.121  0.6032  1.6887 -0.1466
  140SOL     OW  615   0.633   2.204   2.447 -0.1272 -0.3134  0.7698
  140SOL    HW1  616   0.589   2.163   2.373  0.4574 -0.8946  0.7316
  140SOL    HW2  617   0.726   2.194   2.427  0.0551 -1.0696  1.8844
  141SOL     OW  618   4.294   1.018   3.404  0.2799  0.5258 -0.4768
  141SOL    HW1  619   4.353   1.087   3.433 -1.9317  2.1396  0.4749
  141SOL    HW2  620   4.270   0.971   3.485 -0.8389  0.8238 -0.6261
  142SOL     OW  621   2.364   4.521   3.976 -0.0285  0.3740  0.5325
  142SOL    HW1  622   2.286   4.501   3.924  1.4769 -0.0244 -1.7373
  142SOL    HW2  623   2.368   4.452   4.041 -1.6452  0.5068  0.8140
  143SOL     OW  624   4.696   3.041   2.416  0.0705  0.8514 -0.3843
  143SOL    HW1  625   4.776   3.079   2.452 -0.0701  1.1254 -0.3593
  143SOL    HW2  626   4.721   2.952   2.390  0.5715  1.1945 -1.0762
  144SOL     OW  627   1.325   3.176   2.266  0.0846  0.1890  0.8802
  144SOL    HW1  628   1.353   3.112   2.331 -1.7142 -0.9172  0.6568
  144SOL    HW2  629   1.398   3.183   2.205  0.8481 -0.5921  1.6785
  145SOL     OW  630   3.198   1.707   2.941  0.6081 -0.1656  0.4396
  145SOL    HW1  631   3.275   1.715   2.998 -0.2489 -1.7048  1.8926
  145SOL    HW2  632   3.225   1.647   2.872  0.6509 -0.9421  1.1157
  146SOL     OW  633   0.839   0.105   1.938 -0.0565  0.4664 -0.7643
  146SOL    HW1  634   0.903   0.176   1.930  0.2671  0.0922 -1.6886
  146SOL    HW2  635   0.773   0.125   1.872 -0.6759  0.6124 -0.1154
  147SOL     OW  636   0.990   3.326   4.493 -0.2256  0.2068 -0.4249
  147SOL    HW1  637   1.004   3.290   4.406 -0.2617 -1.0016  0.0461
  147SOL    HW2  638   1.013   3.254   4.553  0.2761  1.1708  0.5741
  148SOL     OW  639   2.288   1.740   2.709  0.2166 -0.4378 -0.2557
  148SOL    HW1  640   2.294   1.652   2.744  0.8361 -0.6886 -0.9560
  148SOL    HW2  641   2.284   1.728   2.614 -1.4412  0.2197 -0.2995
  149SOL     OW  642   3.843   2.476   2.727  0.4299 -0.2199 -0.6491
  149SOL    HW1  643   3.909   2.515   2.784 -1.7500  1.7575  0.7425
  149SOL    HW2  644   3.840   2.533   2.651 -1.4609  1.4200  0.5442
  150SOL     OW  645   0.634   2.870   0.670  0.3131 -0.0237  0.1482
  150SOL    HW1  646   0.722   2.873   0.707  0.8519  1.0457 -1.1049
  150SOL    HW2  647   0.637   2.931   0.596 -1.2549 -0.5733 -0.4252
  151SOL     OW  648   3.819   3.930   0.116 -0.5784 -0.1366 -0.0712
  151SOL    HW1  649   3.820   3.986   0.194  0.0612  0.3302 -0.4011
  151SOL    HW2  650   3.764   3.977   0.054 -1.5898 -0.8103  0.3084
  152SOL     OW  651   2.296   2.607   2.573  0.3809  0.1974 -0.1001
  152SOL    HW1  652   2.311   2.515   2.593  0.1034  0.2624  0.4382
  152SOL    HW2  653   2.336   2.654   2.646  1.0284  0.5340 -0.6584
  153SOL     OW  654   4.336   1.789   0.998 -0.3432 -0.4741 -0.1432
  153SOL    HW1  655   4.379   1.874   0.989 -1.0058 -0.1029  0.1936
  153SOL    HW2  656   4.409   1.727   1.010  0.0586  0.4304  2.9087
  154SOL     OW  657   3.121   3.592   2.733  0.1640  0.2283  0.2751
  154SOL    HW1  658   3.134   3.497   2.733  1.5344  0.3967 -0.0088
  154SOL    HW2  659   3.114   3.615   2.825  2.1982  0.1213  0.4995
  155SOL     OW  660   0.933   4.139   3.887  0.0552 -0.2314 -0.2521
  155SOL    HW1  661   1.008   4.080   3.880  1.9257  1.5034  2.9604
  155SOL    HW2  662   0.932   4.186   3.804  1.1346 -1.7794 -1.2098
  156SOL     OW  663   1.217   3.275   1.176 -0.3657  0.6824  0.5975
  156SOL    HW1  664   1.153   3.226   1.124  1.8283  0.4849 -2.1835
  156SOL    HW2  665   1.216   3.363   1.137  2.7734 -0.0067 -1.3871
  157SOL     OW  666   1.717   3.168   2.746  0.0239 -0.8654 -0.6858
  157SOL    HW1  667   1.726   3.101   2.814  2.4437  0.7793  0.7522
  157SOL    HW2  668   1.781   3.235   2.769 -1.0294  1.1234 -3.0704
  158SOL     OW  669   3.652   2.516   4.331  0.4837  0.2522 -0.2273
  158SOL    HW1  670   3.708   2.579   4.378  0.5110 -0.8095  1.2195
  158SOL    HW2  671   3.689   2.431   4.352 -0.6110 -0.3625 -0.7174
  159SOL     OW  672   3.849   2.582   1.799 -0.4481  0.3830 -0.5010
  159SOL    HW1  673   3.900   2.657   1.769 -0.4093  0.9407  0.8976
  159SOL    HW2  674   3.772   2.621   1.841 -0.6540 -0.3806 -0.1654
  160SOL     OW  675   0.797   3.453   1.047  0.1873  0.2130 -0.2720
  160SOL    HW1  676   0.729   3.385   1.048  0.4130 -0.0264 -0.7912
  160SOL    HW2  677   0.757   3.527   1.003 -0.7581  1.1857  2.0597
  161SOL     OW  678   3.539   3.470   4.685  0.2973  0.7228  0.0630
  161SOL    HW1  679   3.491   3.445   4.606  0.9964 -2.8391  0.5993
  161SOL    HW2  680   3.631   3.463   4.661  0.5819 -2.6759  1.6241
  162SOL     OW  681   2.887   2.839   4.552 -0.1442 -0.5862 -0.6176
  162SOL    HW1  682   2.867   2.932   4.541  0.5177 -0.5338 -1.4270
  162SOL    HW2  683   2.954   2.837   4.620 -0.4980 -0.5192 -0.2590
  163SOL     OW  684   0.192   3.604   1.001  0.8180 -0.0855  0.2304
  163SOL    HW1  685   0.260   3.643   0.947  0.0166  1.4766  0.2956
  163SOL    HW2  686   0.196   3.652   1.084 -0.8087  0.5563 -0.0190
  164SOL     OW  687   3.632   4.401   3.256  0.4550 -0.0806  0.1055
  164SOL    HW1  688   3.700   4.404   3.323  0.8487 -0.0125 -0.2888
  164SOL    HW2  689   3.578   4.478   3.273 -1.1552 -1.5156  2.0791
  165SOL     OW  690   2.025   2.145   1.775 -0.0700 -0.0743 -1.0040
  165SOL    HW1  691   1.938   2.175   1.800 -0.3623 -0.0651 -1.9936
  165SOL    HW2  692   2.047   2.079   1.841 -0.5997  0.2857 -0.4506
  166SOL     OW  693   1.720   4.346   2.237 -0.2698  0.0764  0.6591
  166SOL    HW1  694   1.771   4.409   2.288 -1.6098 -0.1186  2.3324
  166SOL    HW2  695   1.659   4.400   2.188 -0.1309  0.1847  0.6055
  167SOL     OW  696   0.862   2.991   1.014  0.2519  0.3228 -0.0317
  167SOL    HW1  697   0.786   3.025   0.967  0.1870  3.3244  1.9409
  167SOL    HW2  698   0.826   2.957   1.096  0.6575 -2.2840 -0.8469
  168SOL     OW  699   1.931   4.228   0.735 -0.4124 -0.6555 -0.3334
  168SOL    HW1  700   1.903   4.137   0.744 -0.2018 -0.6130  1.0609
  168SOL    HW2  701   1.853   4.280   0.756 -0.5570 -0.5126 -1.2155
  169SOL     OW  702   0.716   2.111   0.497 -0.3365  0.2823  0.7229
  169SOL    HW1  703   0.662   2.185   0.468 -0.2274 -0.4458 -1.4501
  169SOL    HW2  704   0.804   2.148   0.505 -0.2091  0.3274 -0.7139
  170SOL     OW  705   1.636   4.467   3.258  0.1807  0.4587 -0.5786
  170SOL    HW1  706   1.630   4.558   3.289  2.4716  0.0807  1.2509
  170SOL    HW2  707   1.553   4.427   3.283 -0.5859  1.8638 -0.7897
  171SOL     OW  708   3.308   3.575   4.224 -0.1541  0.2239 -0.1688
  171SOL    HW1  709   3.267   3.626   4.154 -0.5226  0.8261  0.4730
  171SOL    HW2  710   3.390   3.544   4.186 -0.7122 -0.1309 -1.1338
  172SOL     OW  711   3.751   3.504   2.757 -0.0892  0.6024 -0.0702
  172SOL    HW1  712   3.678   3.529   2.814  0.4926 -0.5306  1.2547
  172SOL    HW2  713   3.828   3.542   2.800  0.2764  0.4422 -0.5798
  173SOL     OW  714   1.093   1.850   4.617  0.5359  0.0576 -0.1246
  173SOL    HW1  715   1.185   1.835   4.639  1.1983  2.1131 -1.2593
  173SOL    HW2  716   1.062   1.914   4.682  0.6113  1.1497 -1.1369
  174SOL     OW  717   1.040   1.552   4.574 -0.6452 -0.6595  0.0680
  174SOL    HW1  718   0.977   1.511   4.633 -1.6622  1.2756  0.4157
  174SOL    HW2  719   1.047   1.642   4.606 -0.1706  0.0576 -1.9343
  175SOL     OW  720   2.952   2.758   1.919 -0.3645 -0.5277 -0.2644
  175SOL    HW1  721   3.004   2.838   1.930 -0.3335 -0.7561  1.5893
  175SOL    HW2  722   2.901   2.752   2.000 -1.5422 -1.5561 -1.0594
  176SOL     OW  723   4.724   1.962   0.438  0.0507 -0.3868  0.0542
  176SOL    HW1  724   4.814   1.959   0.406 -0.0730 -0.6959 -0.2808
  176SOL    HW2  725   4.707   1.873   0.469 -0.5308 -0.6671 -1.0120
  177SOL     OW  726   0.901   2.486   0.483 -0.1576 -0.6852  0.6288
  177SOL    HW1  727   0.844   2.546   0.435  1.7551  0.9633  0.2798
  177SOL    HW2  728   0.861   2.479   0.570 -2.0635 -1.3593 -0.2569
  178SOL     OW  729   1.414   2.399   2.349  0.0730  0.1561 -0.5108
  178SOL    HW1  730   1.410   2.494   2.365 -1.8035 -0.1439  1.1976
  178SOL    HW2  731   1.504   2.376   2.372  0.2581  1.3740  0.1295
  179SOL     OW  732   2.563   3.806   3.596 -0.1907 -0.2352  0.1572
  179SOL    HW1  733   2.470   3.830   3.604 -0.4619 -0.6928 -1.2249
  179SOL    HW2  734   2.572   3.729   3.653 -0.8464 -0.6030 -0.2075
  180SOL     OW  735   1.014   1.775   1.146  0.5877 -0.1748  0.2471
  180SOL    HW1  736   0.993   1.865   1.124  0.9173 -0.7467 -2.8669
  180SOL    HW2  737   1.104   1.762   1.114  0.3878 -1.6982  0.2031
  181SOL     OW  738   3.974   0.140   1.332  0.2717 -0.0645  0.1497
  181SOL    HW1  739   3.979   0.051   1.297 -2.2298 -0.1479 -0.1185
  181SOL    HW2  740   3.949   0.194   1.257  1.3262  0.8380  0.4139
  182SOL     OW  741   3.869   2.049   4.616  0.0150 -0.0955 -0.3776
  182SOL    HW1  742   3.811   1.973   4.621 -1.9680  1.4192  1.8934
  182SOL    HW2  743   3.873   2.082   4.706  0.9840  2.3459 -1.2319
  183SOL     OW  744   3.022   1.442   1.267  0.1426 -0.0619  0.7252
  183SOL    HW1  745   2.928   1.450   1.252 -0.0894 -0.6725  1.7170
  183SOL    HW2  746   3.053   1.531   1.279 -0.4092  0.1099  0.8832
  184SOL     OW  747   2.673   2.554   4.933  0.1314 -0.0514 -0.4061
  184SOL    HW1  748   2.729   2.526   4.861 -1.7375 -0.3479 -1.8474
  184SOL    HW2  749   2.685   2.648   4.938  1.1432 -0.1819 -0.3234
  185SOL     OW  750   4.104   3.308   2.020  0.0770  0.4404 -0.4842
  185SOL    HW1  751   4.142   3.281   2.103 -0.1307 -0.2884 -0.6236
  185SOL    HW2  752   4.168   3.279   1.954 -0.6716 -0.7430 -0.7166
  186SOL     OW  753   2.463   2.985   2.634 -0.1452 -0.1308 -0.8205
  186SOL    HW1  754   2.506   3.030   2.561  2.4330 -0.3473  0.4280
  186SOL    HW2  755   2.470   3.047   2.707 -0.7803 -0.7227 -0.2523
  187SOL     OW  756   4.850   3.896   1.031  0.1532  0.1862 -0.0135
  187SOL    HW1  757   4.910   3.902   1.105 -0.1110 -0.1736  0.2340
  187SOL    HW2  758   4.829   3.803   1.025 -1.6564  0.4886  0.9318
  188SOL     OW  759   2.747   0.228   4.546 -0.1905 -0.9178 -0.0092
  188SOL    HW1  760   2.791   0.292   4.490 -1.1725  0.7443  1.0223
  188SOL    HW2  761   2.680   0.189   4.491 -0.4403 -0.0869 -0.3117
  189SOL     OW  762   3.570   4.485   3.926  0.2269  0.7736 -0.0005
  189SOL    HW1  763   3.560   4.451   4.015  3.0827 -2.8234 -0.8195
  189SOL    HW2  764   3.493   4.454   3.879 -0.2119  0.7763  0.7058
  190SOL     OW  765   0.269   1.441   0.452  0.3156 -0.5809  0.0025
  190SOL    HW1  766   0.312   1.523   0.427  0.8199 -1.1127 -0.9233
  190SOL    HW2  767   0.275   1.439   0.547 -0.3481  0.8054  0.1054
  191SOL     OW  768   3.131   4.429   3.915  0.1625  0.0267  0.0680
  191SOL    HW1  769   3.090   4.400   3.996  1.0113 -0.9421  0.1680
  191SOL    HW2  770   3.223   4.445   3.939  0.6530 -1.2313 -0.9008
  192SOL     OW  771   2.174   4.900   2.669 -0.2581  0.4780  0.4938
  192SOL    HW1  772   2.247   4.918   2.729  0.1953  0.7300 -0.1306
  192SOL    HW2  773   2.201   4.936   2.585 -1.2903  0.9687  0.3510
  193SOL     OW  774   3.458   0.533   1.556 -0.4041  0.6249 -0.3800
  193SOL    HW1  775   3.432   0.521   1.465 -1.4842 -0.7753  0.0656
  193SOL    HW2  776   3.487   0.446   1.584 -1.5918  0.6341  1.0325
  194SOL     OW  777   4.031   1.396   4.490 -0.4432 -0.0465 -0.2660
  194SOL    HW1  778   3.997   1.308   4.506 -1.5038  0.4947  0.6170
  194SOL    HW2  779   4.050   1.398   4.396  2.5426 -2.1945  0.1770
  195SOL     OW  780   3.667   3.214   0.271 -0.0318  0.5417 -0.8040
  195SOL    HW1  781   3.590   3.215   0.215  0.0203 -1.8746 -0.9952
  195SOL    HW2  782   3.637   3.174   0.353  0.7075  0.8657 -0.3638
  196SOL     OW  783   0.101   2.514   1.804 -0.2205 -0.8248  0.4490
  196SOL    HW1  784   0.195   2.511   1.818 -0.3357  0.0369  1.5305
  196SOL    HW2  785   0.090   2.577   1.732  0.0231 -0.9651  0.2864
  197SOL     OW  786   4.896   0.288   4.006  0.3476 -0.1568  0.2785
  197SOL    HW1  787   4.972   0.337   3.976  0.4425 -1.0839 -1.0830
  197SOL    HW2  788   4.925   0.197   4.007 -0.0592 -0.3088  1.9952
  198SOL     OW  789   2.077   0.374   0.800 -0.4626 -0.1286  0.2645
  198SOL    HW1  790   2.150   0.404   0.854  0.3575 -2.7693  0.7430
  198SOL    HW2  791   2.108   0.294   0.759 -2.3595 -0.1489 -1.2742
  199SOL     OW  792   2.364   0.658   3.168  0.6702  0.2454 -0.4800
  199SOL    HW1  793   2.310   0.735   3.154 -0.3761 -0.5112 -0.7344
  199SOL    HW2  794   2.381   0.624   3.080  0.7785 -0.0473 -0.3487
  200SOL     OW  795   0.687   0.803   1.301  0.8234  0.6158 -0.0703
  200SOL    HW1  796   0.658   0.872   1.361 -3.6962  0.5511 -1.8314
  200SOL    HW2  797   0.740   0.849   1.236  1.4172  1.6064  1.0648
  201SOL     OW  798   1.899   3.869   1.824 -0.4822 -0.5563  0.1652
  201SOL    HW1  799   1.930   3.906   1.907 -0.5805 -2.1289  0.9457
  201SOL    HW2  800   1.871   3.780   1.846 -3.2669 -0.0758 -0.9959
  202SOL     OW  801   2.005   0.679   0.272 -0.3779 -0.0746 -0.0463
  202SOL    HW1  802   2.020   0.678   0.366  1.0647 -0.1981 -0.2535
  202SOL    HW2  803   1.956   0.760   0.257 -0.2279  0.1785  0.7643
  203SOL     OW  804   0.240   0.979   0.038  0.7453 -0.0137 -0.3421
  203SOL    HW1  805   0.184   0.976   0.116  0.9356  0.6398 -0.1768
  203SOL    HW2  806   0.186   0.940  -0.031  0.1341  0.4718 -0.1530
  204SOL     OW  807   1.375   4.497   0.502  0.2028 -0.3644  0.7042
  204SOL    HW1  808   1.375   4.424   0.441  0.5860  0.8809 -0.8557
  204SOL    HW2  809   1.390   4.575   0.447  1.7355  0.7112  2.4973
  205SOL     OW  810   0.908   2.038   3.165  0.2206 -0.2605 -0.2571
  205SOL    HW1  811   0.912   1.943   3.178 -0.7839 -0.2871 -0.0379
  205SOL    HW2  812   0.867   2.048   3.079  0.0159 -0.0225 -0.1325
  206SOL     OW  813   4.651   4.352   0.284  0.6216  0.0487  0.1667
  206SOL    HW1  814   4.599   4.280   0.248  0.6715  0.3910 -0.6052
  206SOL    HW2  815   4.732   4.352   0.233  0.6378  0.6199  0.1770
  207SOL     OW  816   0.512   4.066   3.878  0.0293 -0.6408  0.2768
  207SOL    HW1  817   0.575   4.122   3.923 -1.4472  1.8243 -0.5417
  207SOL    HW2  818   0.555   4.044   3.795  0.1478  0.3445  0.0679
  208SOL     OW  819   2.161   1.029   2.932  0.1609 -0.1718  0.3775
  208SOL    HW1  820   2.143   0.953   2.877  1.1790  0.5382 -1.0065
  208SOL    HW2  821   2.079   1.045   2.979 -1.0404 -0.2976 -1.5737
  209SOL     OW  822   3.653   0.597   4.056 -0.5799  0.7302 -0.3373
  209SOL    HW1  823   3.725   0.538   4.034  0.8313  0.2758  4.3779
  209SOL    HW2  824   3.586   0.539   4.094  0.1021  1.7957  2.7533
  210SOL     OW  825   0.085   0.697   2.355  0.1695 -0.2363  0.1930
  210SOL    HW1  826   0.150   0.640   2.313 -1.0782 -1.7374  0.1771
  210SOL    HW2  827   0.045   0.745   2.282 -0.1749 -0.8751 -0.0462
  211SOL     OW  828   2.135   3.056   4.225 -0.2383  0.1860 -0.1547
  211SOL    HW1  829   2.089   3.006   4.293 -0.5759 -1.1414 -1.3121
  211SOL    HW2  830   2.204   2.997   4.194  2.2530  2.0635  1.4088
  212SOL     OW  831   2.470   4.594   0.944  0.5202  0.4714 -0.5341
  212SOL    HW1  832   2.450   4.627   1.032  1.3690  0.7546 -0.4379
  212SOL    HW2  833   2.428   4.657   0.886 -0.2029  0.1824 -0.3410
  213SOL     OW  834   0.587   1.442   2.741  0.1784 -0.2477  0.3492
  213SOL    HW1  835   0.679   1.440   2.714  0.2767  2.6856  0.2091
  213SOL    HW2  836   0.545   1.502   2.679 -1.7534 -1.1228  0.7413
  214SOL     OW  837   0.867   1.410   3.857 -0.0266  0.2579  0.1055
  214SOL    HW1  838   0.840   1.359   3.933 -0.2160 -0.7068 -0.5850
  214SOL    HW2  839   0.848   1.500   3.881 -1.7164 -0.1813  0.5375
  215SOL     OW  840   1.367   0.292   2.049 -0.3848  0.3413  0.2179
  215SOL    HW1  841   1.345   0.199   2.050 -0.1930  0.2877  1.8878
  215SOL    HW2  842   1.298   0.334   2.100 -1.2419  1.3388 -1.6691
  216SOL     OW  843   0.697   0.793   3.433 -0.3248  0.3503 -0.3263
  216SOL    HW1  844   0.625   0.808   3.494 -1.1333 -0.6114 -1.0209
  216SOL    HW2  845   0.746   0.876   3.433 -0.9304  0.7303  0.7817
  217SOL     OW  846   1.824   4.063   1.104  0.2181  1.0480  0.1647
  217SOL    HW1  847   1.831   4.000   1.032  1.9772  0.4055  0.8527
  217SOL    HW2  848   1.914   4.092   1.119 -0.0412  0.8702  2.3617
  218SOL     OW  849   1.947   1.666   3.695 -0.0253 -0.3178 -0.1389
  218SOL    HW1  850   1.865   1.716   3.698  0.9395  1.3113  1.9470
  218SOL    HW2  851   1.936   1.600   3.763 -0.5248 -1.7381 -1.5554
  219SOL     OW  852   0.227   1.797   3.214 -0.3740 -0.2613 -0.3812
  219SOL    HW1  853   0.320   1.787   3.238 -0.3281  0.8388 -0.0241
  219SOL    HW2  854   0.186   1.716   3.242  0.1963 -0.1187  0.9446
  220SOL     OW  855   0.333   4.234   4.614 -0.2565 -0.0256  0.6788
  220SOL    HW1  856   0.355   4.159   4.558 -0.5697 -0.0831  0.6326
  220SOL    HW2  857   0.329   4.308   4.554 -0.8881 -0.1404  0.5787
  221SOL     OW  858   2.783   3.437   1.789 -0.4096  0.4358 -0.3099
  221SOL    HW1  859   2.846   3.391   1.845 -0.3210 -0.1084 -0.8589
  221SOL    HW2  860   2.706   3.380   1.787  0.0360 -0.1598 -1.7385
  222SOL     OW  861   2.426   1.345   0.021  0.0401  0.1542  0.5945
  222SOL    HW1  862   2.421   1.417  -0.042  0.7939  0.2204  0.6028
  222SOL    HW2  863   2.515   1.310   0.011 -0.8715 -1.9664 -0.6952
  223SOL     OW  864   1.068   1.718   0.696  0.7678  0.3379 -0.5223
  223SOL    HW1  865   1.123   1.757   0.764 -0.2479 -0.6858  0.9373
  223SOL    HW2  866   1.004   1.786   0.675  0.9145  0.5553 -0.2710
  224SOL     OW  867   4.122   0.755   4.932  0.0531  0.1360 -0.5543
  224SOL    HW1  868   4.124   0.669   4.889  0.6637  0.4980 -1.2927
  224SOL    HW2  869   4.181   0.745   5.007 -3.1302 -1.3378  1.9866
  225SOL     OW  870   2.487   1.312   3.645 -0.0301 -0.4152 -0.0706
  225SOL    HW1  871   2.464   1.259   3.569  0.0248 -0.6167  0.0545
  225SOL    HW2  872   2.498   1.250   3.716  0.3967 -0.2743 -0.0071
  226SOL     OW  873   1.267   2.551   1.996  0.3476  0.0796  0.2683
  226SOL    HW1  874   1.350   2.507   2.017 -0.6303 -0.9671  2.1341
  226SOL    HW2  875   1.278   2.640   2.028  1.0128  0.1835 -0.2182
  227SOL     OW  876   1.752   4.913   2.497 -0.1102  0.3745  0.2182
  227SOL    HW1  877   1.821   4.926   2.562  0.8071  0.3576 -0.7126
  227SOL    HW2  878   1.701   4.994   2.498 -0.5504  0.0985  1.4442
  228SOL     OW  879   0.668   3.133   0.548 -0.4791 -0.0237 -0.6451
  228SOL    HW1  880   0.610   3.177   0.486 -1.3068  0.3019  0.3220
  228SOL    HW2  881   0.741   3.193   0.559 -1.4500  1.0295  0.4252
  229SOL     OW  882   2.334   3.738   0.828  0.0945  0.0725  0.3716
  229SOL    HW1  883   2.401   3.753   0.895 -0.5778 -0.3008  1.1408
  229SOL    HW2  884   2.257   3.712   0.877  0.1025 -2.0711 -0.6466
  230SOL     OW  885   4.602   0.009   3.070 -0.4150 -0.0840  0.3087
  230SOL    HW1  886   4.673  -0.055   3.073  0.5307  0.8861 -0.4974
  230SOL    HW2  887   4.524  -0.042   3.047  0.0478 -1.1331  0.9995
  231SOL     OW  888   0.078   4.468   4.659  0.1774 -0.2116 -0.3219
  231SOL    HW1  889   0.036   4.395   4.613  0.1447  0.0342 -0.6882
  231SOL    HW2  890   0.097   4.434   4.746  0.7093 -0.8637 -0.6768
  232SOL     OW  891   3.109   2.301   2.745 -0.0508 -0.0634 -0.0292
  232SOL    HW1  892   3.134   2.373   2.803  3.2716  0.5117 -1.8800
  232SOL    HW2  893   3.148   2.223   2.785 -0.0833 -0.1179 -0.1035
  233SOL     OW  894   4.176   4.231   2.076 -0.2756  0.1447 -0.0997
  233SOL    HW1  895   4.258   4.187   2.101 -0.2163  0.6828  0.6824
  233SOL    HW2  896   4.166   4.212   1.983  0.7739  0.1322 -0.2171
  234SOL     OW  897   1.419   2.838   1.102 -0.2571 -0.9535  0.4807
  234SOL    HW1  898   1.410   2.929   1.130  0.3572 -0.5342 -0.6217
  234SOL    HW2  899   1.336   2.797   1.127 -0.4610 -0.1479  1.1715
  235SOL     OW  900   2.723   3.363   0.567  0.5735 -0.3642 -0.3527
  235SOL    HW1  901   2.711   3.409   0.651 -2.2867 -1.5594 -0.0082
  235SOL    HW2  902   2.744   3.433   0.505 -0.5106  1.0218  0.7614
  236SOL     OW  903   4.535   4.452   1.794 -0.0828  0.3028  0.3611
  236SOL    HW1  904   4.598   4.423   1.860 -0.8418  0.9640  1.4059
  236SOL    HW2  905   4.567   4.414   1.712 -0.0966 -2.0265  1.3711
  237SOL     OW  906   4.455   3.977   3.112 -0.3637  0.3915 -0.6345
  237SOL    HW1  907   4.531   3.943   3.065  0.5174  0.4763  0.6576
  237SOL    HW2  908   4.389   3.908   3.105  1.1683 -1.4230  1.4298
  238SOL     OW  909   4.631   1.423   0.520  0.0873 -0.0672  0.2936
  238SOL    HW1  910   4.561   1.398   0.580 -0.3999  2.5377  0.9238
  238SOL    HW2  911   4.593   1.413   0.433 -0.4195 -0.4567  0.5544
  239SOL     OW  912   3.821   0.513   0.276  0.0288  0.5117  0.0298
  239SOL    HW1  913   3.813   0.510   0.181  1.3095  1.3220 -0.1171
  239SOL    HW2  914   3.730   0.512   0.307 -0.4144  0.6686 -1.2068
  240SOL     OW  915   0.537   3.050   1.194 -0.5908 -0.0667  0.2809
  240SOL    HW1  916   0.571   2.961   1.205  0.4545  0.0412 -1.5140
  240SOL    HW2  917   0.475   3.062   1.265  1.4739 -1.1465  2.3956
  241SOL     OW  918   2.455   3.512   3.286  0.2304 -0.4838  0.1884
  241SOL    HW1  919   2.384   3.553   3.236  1.0237  0.0472 -0.5255
  241SOL    HW2  920   2.522   3.491   3.221  2.8143  3.3356  1.2727
  242SOL     OW  921   3.099   2.300   1.517  0.2969  0.2775 -0.2241
  242SOL    HW1  922   3.180   2.329   1.475  1.1884 -2.4677 -0.6508
  242SOL    HW2  923   3.126   2.272   1.604 -0.7292  1.7775  0.6098
  243SOL     OW  924   2.344   2.207   3.347  0.4317 -0.5519  0.5672
  243SOL    HW1  925   2.388   2.293   3.346 -0.3965 -0.1234  0.1192
  243SOL    HW2  926   2.255   2.227   3.374 -0.0088 -1.1725 -0.4209
  244SOL     OW  927   3.888   0.727   1.442  0.0392 -0.3774  0.0264
  244SOL    HW1  928   3.893   0.779   1.362 -2.6563  0.4168  0.2860
  244SOL    HW2  929   3.920   0.785   1.511  3.3012 -1.3787 -0.4616
  245SOL     OW  930   0.695   3.108   0.847  0.4641 -0.2143  0.1178
  245SOL    HW1  931   0.680   3.106   0.752 -1.0568 -0.8650  0.3365
  245SOL    HW2  932   0.664   3.195   0.873 -0.6857 -0.6235  0.2084
  246SOL     OW  933   0.560   1.513   3.841  0.5190 -0.0290  0.1552
  246SOL    HW1  934   0.501   1.437   3.844  0.3372  0.0892 -0.3389
  246SOL    HW2  935   0.505   1.585   3.811  1.0910 -0.0926 -1.0757
  247SOL     OW  936   1.972   2.154   3.533 -0.8008  0.1843 -0.0674
  247SOL    HW1  937   1.900   2.093   3.543 -0.3118 -0.2756  0.7128
  247SOL    HW2  938   2.027   2.141   3.610 -0.4099  1.2394 -0.1396
  248SOL     OW  939   1.902   2.344   4.721  0.1689 -0.4930  0.3021
  248SOL    HW1  940   1.881   2.355   4.629 -1.2707  2.0792  0.8485
  248SOL    HW2  941   1.853   2.267   4.749 -0.4487 -0.4963 -0.7666
  249SOL     OW  942   0.000   4.497   0.516 -0.1454  0.1866  0.3526
  249SOL    HW1  943  -0.081   4.532   0.481  0.8472  2.2833 -0.0167
  249SOL    HW2  944   0.020   4.422   0.460 -1.7618 -0.3366  0.4268
  250SOL     OW  945   4.803   0.062   1.809 -0.2729  0.1487  0.1320
  250SOL    HW1  946   4.751   0.014   1.874  1.0717 -1.6671 -0.0481
  250SOL    HW2  947   4.769   0.033   1.725 -0.5172  0.7730  0.0106
  251SOL     OW  948   3.198   0.154   0.178  0.2243  0.2470 -0.1780
  251SOL    HW1  949   3.240   0.132   0.261 -0.4603  0.9030  0.3508
  251SOL    HW2  950   3.262   0.210   0.133 -0.0837  1.2733  0.6368
  252SOL     OW  951   2.186   4.636   2.569 -0.3777 -0.2899  0.1665
  252SOL    HW1  952   2.134   4.656   2.491 -1.1256 -1.6288  0.3050
  252SOL    HW2  953   2.164   4.705   2.631 -1.8350 -0.7105  0.1456
  253SOL     OW  954   1.111   3.715   3.238  0.1233 -0.5308  0.1290
  253SOL    HW1  955   1.064   3.750   3.163 -0.1119  0.4134  0.7033
  253SOL    HW2  956   1.109   3.785   3.303  1.3784 -0.8716  0.5747
  254SOL     OW  957   2.496   3.934   1.098  0.2044  0.6220  0.0921
  254SOL    HW1  958   2.515   3.903   1.187 -0.9024  0.0032  0.1328
  254SOL    HW2  959   2.435   4.006   1.110 -1.1486 -0.4213 -0.1876
  255SOL     OW  960   3.337   1.864   4.751 -0.5387 -0.5654 -0.3129
  255SOL    HW1  961   3.318   1.926   4.681 -0.7722 -2.2294 -1.8104
  255SOL    HW2  962   3.304   1.906   4.831 -3.3226  0.0158 -1.6519
  256SOL     OW  963   0.799   4.270   2.099  0.3719 -0.0980  0.1449
  256SOL    HW1  964   0.812   4.245   2.007  0.2592  0.0123  0.0995
  256SOL    HW2  965   0.809   4.365   2.100  0.1927 -0.0797  0.2170
  257SOL     OW  966   2.286   2.372   0.572 -0.0477  0.1491  0.2001
  257SOL    HW1  967   2.248   2.350   0.657  1.2270  0.2834  0.8436
  257SOL    HW2  968   2.212   2.399   0.518 -1.0542 -1.1431  0.8649
  258SOL     OW  969   4.249   2.531   4.307  0.3085  0.4711  0.3071
  258SOL    HW1  970   4.252   2.483   4.225 -1.1855  0.6323  0.1281
  258SOL    HW2  971   4.192   2.606   4.289 -1.2581 -0.2790  1.8677
  259SOL     OW  972   0.865   3.091   1.698  0.1902  0.0415 -0.2336
  259SOL    HW1  973   0.883   3.035   1.774  0.0106  0.5449  0.1899
  259SOL    HW2  974   0.780   3.060   1.666 -0.7563  1.1780  1.0561
  260SOL     OW  975   0.871   0.679   3.868  0.0883 -0.0912  0.7066
  260SOL    HW1  976   0.812   0.689   3.942  0.1283 -0.5231  0.8032
  260SOL    HW2  977   0.867   0.586   3.847 -0.7030  0.1947 -0.4960
  261SOL     OW  978   0.471   4.598   4.053 -0.1196  0.3689 -0.0175
  261SOL    HW1  979   0.388   4.620   4.013 -0.2957 -0.1037  0.0810
  261SOL    HW2  980   0.461   4.507   4.082  0.3038  0.4191  0.3087
  262SOL     OW  981   4.276   0.807   3.042  0.1781  0.2709  0.0264
  262SOL    HW1  982   4.349   0.805   3.104  0.2250  0.4936 -0.0206
  262SOL    HW2  983   4.250   0.715   3.033  0.8917  0.1120 -0.4767
  263SOL     OW  984   4.442   3.682   4.156  0.3602 -0.2046  0.3856
  263SOL    HW1  985   4.378   3.649   4.093  1.4099  0.9015 -1.3642
  263SOL    HW2  986   4.485   3.604   4.191  0.9289 -0.8455 -1.6091
  264SOL     OW  987   1.218   0.230   2.679  0.4982  0.3139  0.2222
  264SOL    HW1  988   1.159   0.289   2.727  1.6979  1.1159  0.7593
  264SOL    HW2  989   1.268   0.187   2.747 -0.9245 -2.0277 -0.1138
  265SOL     OW  990   2.931   0.543   1.217  0.3531 -0.1806  0.6143
  265SOL    HW1  991   2.986   0.565   1.292 -0.3833 -0.0148  1.1163
  265SOL    HW2  992   2.973   0.588   1.143  0.9512 -0.1491  0.9636
  266SOL     OW  993   3.050   0.714   3.310 -0.4591  0.1740  0.1232
  266SOL    HW1  994   3.143   0.729   3.293 -0.3680  0.1102  0.5502
  266SOL    HW2  995   3.007   0.735   3.227 -0.0293 -0.1624 -0.1896
  267SOL     OW  996   2.667   1.736   0.358  0.4745 -0.1195  0.1098
  267SOL    HW1  997   2.744   1.693   0.322 -0.0376 -1.0649  0.0859
  267SOL    HW2  998   2.665   1.822   0.317  0.9671 -0.4608 -0.6487
  268SOL     OW  999   1.642   0.511   0.527 -0.6085  0.2655  0.0527
  268SOL    HW1 1000   1.730   0.517   0.565 -0.7307  1.3120  0.2087
  268SOL    HW2 1001   1.622   0.600   0.498 -1.6224  0.0459  0.0250
  269SOL     OW 1002   3.112   3.072   3.931 -0.5964  0.2917  0.2323
  269SOL    HW1 1003   3.029   3.120   3.926 -0.4809  1.0144  3.4051
  269SOL    HW2 1004   3.174   3.128   3.884 -1.5977  0.3722 -1.0647
  270SOL     OW 1005   0.449   4.094   1.217 -0.1996 -0.1622  0.4501
  270SOL    HW1 1006   0.368   4.134   1.247 -0.7140 -0.2274 -0.7944
  270SOL    HW2 1007   0.517   4.133   1.272 -0.8990  1.0432  0.5035
  271SOL     OW 1008   0.173   0.035   3.066 -0.2713 -0.3744  0.6780
  271SOL    HW1 1009   0.186  -0.058   3.084 -1.0132 -0.5699  0.2204
  271SOL    HW2 1010   0.252   0.062   3.019 -0.1512 -0.8178  0.6257
  272SOL     OW 1011   1.058   4.187   4.512 -0.6214 -0.1514 -0.0027
  272SOL    HW1 1012   1.001   4.228   4.577  0.0431  0.4251  0.2229
  272SOL    HW2 1013   0.998   4.158   4.443 -1.1282  0.9930 -0.0563
  273SOL     OW 1014   2.716   2.533   2.104 -0.5988 -0.2060  0.2201
  273SOL    HW1 1015   2.682   2.457   2.152  0.1011 -0.5838  0.1422
  273SOL    HW2 1016   2.811   2.518   2.102 -0.6115 -0.2163 -1.3095
  274SOL     OW 1017   4.024   3.886   3.859 -0.0450 -0.5101 -0.0677
  274SOL    HW1 1018   3.929   3.902   3.853  0.0762  2.0232  2.3861
  274SOL    HW2 1019   4.034   3.828   3.934  0.3944  1.2596  1.3115
  275SOL     OW 1020   3.928   0.401   3.326 -0.3765 -0.3422  0.2051
  275SOL    HW1 1021   3.893   0.484   3.360  0.8813  0.0477  0.6026
  275SOL    HW2 1022   3.948   0.418   3.235 -0.1379 -0.2139  0.2815
  276SOL     OW 1023   0.006   2.459   4.921  0.3559  0.3095  0.3208
  276SOL    HW1 1024   0.099   2.482   4.923  1.0121 -1.7784 -1.6146
  276SOL    HW2 1025  -0.035   2.530   4.871  1.4612 -0.1295 -1.2976
  277SOL     OW 1026   3.165   4.902   4.531 -0.1858  0.3199 -0.1312
  277SOL    HW1 1027   3.167   4.952   4.449  0.1787 -0.8091 -0.8311
  277SOL    HW2 1028   3.093   4.840   4.519  0.1609 -0.1583  0.2206
  278SOL     OW 1029   1.520   1.391   3.924  0.3735  0.4220 -0.4678
  278SOL    HW1 1030   1.553   1.408   4.012 -1.1787  0.5215  0.1250
  278SOL    HW2 1031   1.461   1.316   3.934  0.9105 -0.1761 -1.6038
  279SOL     OW 1032   2.199   0.915   1.681 -0.0044 -0.0710  0.4281
  279SOL    HW1 1033   2.269   0.974   1.652 -1.2514  1.3882  0.2090
  279SOL    HW2 1034   2.158   0.885   1.600 -1.3759  1.3461  0.5403
  280SOL     OW 1035   4.602   3.753   0.104 -0.3059  0.4819 -0.3117
  280SOL    HW1 1036   4.507   3.764   0.101 -0.6524 -1.7658 -3.4231
  280SOL    HW2 1037   4.617   3.691   0.175 -1.3304  0.1245 -0.3870
  281SOL     OW 1038   1.962   1.995   4.640  0.6952  0.6810 -0.1241
  281SOL    HW1 1039   1.957   2.010   4.545  2.9857  0.7461 -0.2930
  281SOL    HW2 1040   1.922   1.909   4.653  1.4589  0.1068 -1.3506
  282SOL     OW 1041   1.181   0.338   0.361 -0.3960 -0.1363  0.5688
  282SOL    HW1 1042   1.266   0.347   0.403  0.2332 -0.8623 -0.5225
  282SOL    HW2 1043   1.150   0.252   0.389  0.0056 -0.6036 -0.3887
  283SOL     OW 1044   0.717   4.608   4.651  0.1444 -0.5631 -0.5116
  283SOL    HW1 1045   0.674   4.536   4.698 -0.5164  0.3026  0.2503
  283SOL    HW2 1046   0.741   4.570   4.566  0.6817 -1.9548  0.2286
  284SOL     OW 1047   0.021   2.310   4.038 -0.8006  0.3187 -0.0019
  284SOL    HW1 1048   0.069   2.354   3.968 -0.9503  0.9998  0.3147
  284SOL    HW2 1049   0.034   2.216   4.021 -0.6879  0.4763 -0.8308
  285SOL     OW 1050   2.632   3.454   0.143  0.1060 -0.8291 -0.1750
  285SOL    HW1 1051   2.613   3.531   0.090  1.1611  0.8155  1.7022
  285SOL    HW2 1052   2.650   3.489   0.231 -1.6050 -3.3915  1.3391
  286SOL     OW 1053   1.450   2.489   3.274 -0.2761 -0.2884 -0.3111
  286SOL    HW1 1054   1.415   2.474   3.362 -1.5313 -0.6135 -0.8439
  286SOL    HW2 1055   1.517   2.422   3.262 -1.5152 -1.5586 -0.3491
  287SOL     OW 1056   1.284   3.593   1.692  0.2733  0.5716 -0.1134
  287SOL    HW1 1057   1.233   3.630   1.620 -0.3509 -1.0589 -0.5476
  287SOL    HW2 1058   1.374   3.618   1.673  0.3369 -1.0491 -2.3159
  288SOL     OW 1059   1.492   4.859   1.799 -0.8510  0.2520 -0.1350
  288SOL    HW1 1060   1.438   4.784   1.776 -1.0005  0.8313 -1.7903
  288SOL    HW2 1061   1.434   4.934   1.792 -0.6893  0.5646  1.4584
  289SOL     OW 1062   1.717   0.507   0.954 -0.8339 -0.3683  0.9180
  289SOL    HW1 1063   1.640   0.488   1.007 -0.3576 -1.7436  1.1470
  289SOL    HW2 1064   1.787   0.455   0.993 -0.2888 -0.8327 -0.5869
  290SOL     OW 1065   2.093   1.304   1.082 -0.4437  0.0089 -0.0373
  290SOL    HW1 1066   2.106   1.235   1.018  0.6808 -0.8306  1.0610
  290SOL    HW2 1067   2.179   1.346   1.090 -1.0092  1.2733 -0.3781
  291SOL     OW 1068   4.534   1.967   0.736  0.2845  0.1064 -0.2020
  291SOL    HW1 1069   4.504   1.967   0.827 -1.4649 -3.0565 -0.6435
  291SOL    HW2 1070   4.617   2.016   0.739 -0.9116  2.2705  2.5653
  292SOL     OW 1071   3.651   0.294   3.044  0.2202 -0.2121  0.5098
  292SOL    HW1 1072   3.627   0.228   2.980  1.5862 -1.0042  0.7701
  292SOL    HW2 1073   3.646   0.249   3.129 -1.2026  0.7160  0.9519
  293SOL     OW 1074   1.479   2.480   3.822  0.2599 -0.4635 -0.8127
  293SOL    HW1 1075   1.546   2.533   3.777  0.0810  1.0029  0.5496
  293SOL    HW2 1076   1.399   2.495   3.771  0.3418  0.1354 -0.7787
  294SOL     OW 1077   3.586   4.824   2.368  0.0486 -0.0759  0.2687
  294SOL    HW1 1078   3.554   4.857   2.452  0.6706  1.3615 -0.0385
  294SOL    HW2 1079   3.679   4.845   2.368  0.4051 -1.5278 -0.1172
  295SOL     OW 1080   4.676   0.211   4.784  0.9341  0.4051 -0.4420
  295SOL    HW1 1081   4.662   0.126   4.742  0.6717  0.0910  0.2771
  295SOL    HW2 1082   4.629   0.205   4.867  0.4652  1.4479 -0.6236
  296SOL     OW 1083   2.513   3.166   2.844 -0.0688  0.3471 -0.1346
  296SOL    HW1 1084   2.559   3.236   2.796  1.9018 -0.4083  0.5310
  296SOL    HW2 1085   2.567   3.152   2.922 -1.2527 -0.9068  0.4918
  297SOL     OW 1086   4.194   0.748   0.471  0.3886  0.1903 -0.4879
  297SOL    HW1 1087   4.224   0.759   0.381  1.7669  1.3947  0.0634
  297SOL    HW2 1088   4.137   0.671   0.469 -0.3841  0.7443 -2.5488
  298SOL     OW 1089   0.755   0.074   4.201 -0.1228 -0.5520  0.5927
  298SOL    HW1 1090   0.726   0.038   4.117 -2.0393 -0.4348  1.1464
  298SOL    HW2 1091   0.806   0.151   4.177 -1.3595 -0.0195 -0.4713
  299SOL     OW 1092   2.430   3.238   2.513  0.0290 -0.7053 -0.7171
  299SOL    HW1 1093   2.351   3.184   2.515 -0.7145  0.3448 -0.7717
  299SOL    HW2 1094   2.412   3.309   2.575  1.4376 -1.1133  0.1920
  300SOL     OW 1095   0.682   1.276   3.169  0.4495  0.1184  0.3284
  300SOL    HW1 1096   0.766   1.253   3.131 -0.3457 -2.1960 -0.2203
  300SOL    HW2 1097   0.640   1.332   3.104  1.1446  0.4262  0.1370
  301SOL     OW 1098   2.404   4.541   2.449  0.2518 -0.4159  0.1904
  301SOL    HW1 1099   2.339   4.596   2.492  1.2036 -0.2481  1.4857
  301SOL    HW2 1100   2.479   4.600   2.434  0.9101 -1.1021  0.6912
  302SOL     OW 1101   3.683   2.802   1.583 -0.2574  0.1219 -0.3245
  302SOL    HW1 1102   3.721   2.715   1.568  0.0884  0.0957  0.6537
  302SOL    HW2 1103   3.662   2.834   1.495 -1.2546 -1.3212 -0.6399
  303SOL     OW 1104   0.095   0.608   4.449 -0.4545  0.1860  0.2542
  303SOL    HW1 1105   0.115   0.517   4.425 -0.4176  0.6325 -1.5201
  303SOL    HW2 1106   0.150   0.625   4.525 -0.2884 -1.2088  0.4629
  304SOL     OW 1107   4.116   1.264   3.226  0.1621 -0.2274 -0.7944
  304SOL    HW1 1108   4.030   1.248   3.267  1.4508 -0.5473  2.0752
  304SOL    HW2 1109   4.163   1.181   3.236  1.4613  0.5183 -0.4160
  305SOL     OW 1110   3.936   4.480   4.153  0.2579 -0.1196 -0.1092
  305SOL    HW1 1111   4.030   4.498   4.149  0.2459  0.8273  2.1236
  305SOL    HW2 1112   3.930   4.384   4.145  1.4809 -0.2476  0.2388
  306SOL     OW 1113   2.997   1.384   2.534 -0.3951 -0.1115  0.4812
  306SOL    HW1 1114   3.018   1.453   2.471  0.4594 -1.3166 -0.6048
  306SOL    HW2 1115   2.978   1.308   2.480 -2.5669 -0.4522  1.6069
  307SOL     OW 1116   1.215   4.534   4.367 -0.0769  0.4775 -0.2440
  307SOL    HW1 1117   1.235   4.470   4.435 -2.0203 -0.1491 -0.2020
  307SOL    HW2 1118   1.136   4.578   4.398  0.9388  2.6153 -0.5002
  308SOL     OW 1119   1.622   1.604   0.483  0.1789  0.1007 -0.4816
  308SOL    HW1 1120   1.699   1.558   0.517 -0.3164  0.5173  1.3544
  308SOL    HW2 1121   1.601   1.560   0.401  0.5737 -2.0434  0.5054
  309SOL     OW 1122   4.905   1.440   0.975 -0.8624  0.2550  0.8329
  309SOL    HW1 1123   4.965   1.461   1.045 -0.5401 -1.6640  1.1959
  309SOL    HW2 1124   4.825   1.410   1.019 -0.2284 -2.1632  0.4744
  310SOL     OW 1125   1.214   0.934   3.341 -0.0343  0.3152  0.2332
  310SOL    HW1 1126   1.235   0.870   3.274 -0.2461  0.4454  0.0405
  310SOL    HW2 1127   1.118   0.934   3.345 -0.0082 -0.1033  0.9372
  311SOL     OW 1128   4.556   2.152   2.678  0.2528  0.4735 -0.3098
  311SOL    HW1 1129   4.578   2.061   2.659 -0.4481  0.8926 -3.8057
  311SOL    HW2 1130   4.631   2.202   2.646  0.5090  1.2129  1.3150
  312SOL     OW 1131   3.308   1.466   1.428  0.1523 -0.0109  0.0516
  312SOL    HW1 1132   3.345   1.542   1.382 -1.9438  1.4039  0.5450
  312SOL    HW2 1133   3.358   1.462   1.510  2.1163 -0.9244 -1.1163
  313SOL     OW 1134   0.381   0.116   2.889 -0.1526 -0.3195  0.0328
  313SOL    HW1 1135   0.475   0.098   2.878  0.1707 -1.2147  3.2367
  313SOL    HW2 1136   0.377   0.207   2.916 -0.3153 -0.0853 -0.7415
  314SOL     OW 1137   4.697   3.281   1.409 -0.2896  0.0100 -0.6558
  314SOL    HW1 1138   4.764   3.337   1.370 -0.8260  0.6961 -0.6214
  314SOL    HW2 1139   4.647   3.248   1.335 -1.0657  1.0011 -0.5945
  315SOL     OW 1140   2.420   4.284   1.770 -0.0380  0.0728 -0.4179
  315SOL    HW1 1141   2.496   4.318   1.723  2.2268 -1.5584  1.8056
  315SOL    HW2 1142   2.416   4.335   1.851  0.2068 -1.3653  0.5492
  316SOL     OW 1143   3.730   4.179   3.096  0.0570 -0.4269 -0.7201
  316SOL    HW1 1144   3.769   4.182   3.008 -1.3885  1.2528 -1.3572
  316SOL    HW2 1145   3.742   4.267   3.130 -0.0417 -0.8741  0.5090
  317SOL     OW 1146   2.722   4.534   4.822 -0.5027  0.1383 -0.1980
  317SOL    HW1 1147   2.816   4.521   4.832 -0.7748 -0.2760  2.6564
  317SOL    HW2 1148   2.714   4.624   4.791  0.8280 -0.0423 -1.1603
  318SOL     OW 1149   3.293   1.836   1.119 -0.1226 -0.1284 -0.5080
  318SOL    HW1 1150   3.371   1.859   1.069  0.7962 -1.4084  0.2916
  318SOL    HW2 1151   3.225   1.825   1.052 -0.0406  2.4316 -1.0972
  319SOL     OW 1152   2.301   2.561   2.236 -0.5914 -0.1725 -0.5061
  319SOL    HW1 1153   2.345   2.588   2.155  2.1829  0.8418  1.2148
  319SOL    HW2 1154   2.336   2.474   2.254  0.9782  0.6917  0.9423
  320SOL     OW 1155   3.375   4.749   3.180 -0.3857 -0.3204  0.4984
  320SOL    HW1 1156   3.301   4.709   3.226 -1.8282  0.6073 -0.8964
  320SOL    HW2 1157   3.340   4.771   3.094  2.3915 -2.6707 -1.4191
  321SOL     OW 1158   0.634   1.187   4.805 -0.2022  0.3151 -0.2639
  321SOL    HW1 1159   0.583   1.138   4.870  0.3674  1.7834  1.3782
  321SOL    HW2 1160   0.725   1.178   4.836 -0.1436  3.0326  0.6380
  322SOL     OW 1161   3.325   4.357   1.583 -0.1305 -0.2907 -0.1734
  322SOL    HW1 1162   3.289   4.409   1.511 -0.9504 -1.1205 -0.3696
  322SOL    HW2 1163   3.417   4.384   1.587  0.5838 -1.9010 -3.0672
  323SOL     OW 1164   3.924   3.820   1.730 -0.4130 -0.1524 -0.1254
  323SOL    HW1 1165   3.939   3.907   1.693 -2.6562 -0.4701 -2.0388
  323SOL    HW2 1166   3.957   3.826   1.820 -0.3326  2.6073 -0.2503
  324SOL     OW 1167   3.213   2.859   4.096 -0.3832  0.2669 -0.4352
  324SOL    HW1 1168   3.122   2.851   4.126 -0.2867  1.2334  0.1392
  324SOL    HW2 1169   3.210   2.924   4.026 -0.2771 -0.4644 -1.1441
  325SOL     OW 1170   2.991   4.275   3.748  0.1911 -0.1617  0.2991
  325SOL    HW1 1171   2.900   4.298   3.769  0.2245  0.9245 -0.6924
  325SOL    HW2 1172   3.043   4.317   3.816  0.0527  0.3729  0.0724
  326SOL     OW 1173   1.821   0.557   3.822 -0.1852  0.1349  0.2698
  326SOL    HW1 1174   1.900   0.584   3.775  0.0816 -2.6084 -1.0262
  326SOL    HW2 1175   1.833   0.464   3.840 -2.4396 -0.0041  1.5006
  327SOL     OW 1176   4.362   2.883   3.515  0.1662  0.5094 -0.7200
  327SOL    HW1 1177   4.322   2.969   3.501 -0.8309  0.3648  0.9575
  327SOL    HW2 1178   4.381   2.880   3.609 -0.7386 -1.4450 -0.5287
  328SOL     OW 1179   4.024   0.731   1.836 -0.2422 -0.2569  0.1433
  328SOL    HW1 1180   4.022   0.786   1.914 -1.6061  2.3463 -1.5713
  328SOL    HW2 1181   4.106   0.753   1.793 -1.0943  1.0893 -0.8906
  329SOL     OW 1182   2.566   0.924   4.548  0.0721  0.6140 -0.1483
  329SOL    HW1 1183   2.550   0.868   4.624 -1.2869  1.0675 -0.0614
  329SOL    HW2 1184   2.510   1.001   4.564  0.1225  0.9214 -1.3856
  330SOL     OW 1185   0.370   1.133   0.764 -0.0841  0.6607 -0.1163
  330SOL    HW1 1186   0.291   1.131   0.817 -0.2386 -0.6123 -0.3698
  330SOL    HW2 1187   0.439   1.161   0.824 -0.5126  0.6112  0.4009
  331SOL     OW 1188   2.229   4.470   2.792  0.2435 -0.0971  0.0129
  331SOL    HW1 1189   2.275   4.389   2.772  2.3815  1.4660 -1.8150
  331SOL    HW2 1190   2.184   4.493   2.711 -2.0439 -0.4245  1.1175
  332SOL     OW 1191   3.026   2.010   4.147 -0.2305 -0.1970  0.3740
  332SOL    HW1 1192   3.022   1.932   4.091 -0.7159  0.5601 -0.6851
  332SOL    HW2 1193   3.040   2.083   4.085  0.1616  0.5658  1.3313
  333SOL     OW 1194   2.659   0.614   3.429  0.5377 -0.6638 -0.6405
  333SOL    HW1 1195   2.619   0.652   3.507  0.6324 -0.2369 -0.7989
  333SOL    HW2 1196   2.747   0.590   3.457  1.6268  2.1640 -1.3567
  334SOL     OW 1197   0.570   3.091   3.560 -0.1455  0.2131  0.6523
  334SOL    HW1 1198   0.509   3.155   3.524  0.2590 -0.7183 -1.8838
  334SOL    HW2 1199   0.646   3.143   3.586 -0.6593  0.9855  0.6314
  335SOL     OW 1200   3.168   0.867   4.639  0.0076 -0.0129  0.7123
  335SOL    HW1 1201   3.167   0.919   4.719 -0.0334 -0.0629  0.7444
  335SOL    HW2 1202   3.250   0.892   4.595  0.5607 -0.7541  1.2790
  336SOL     OW 1203   1.876   3.289   3.682  0.0491 -0.0814  0.0244
  336SOL    HW1 1204   1.843   3.240   3.757  1.2686 -3.0876 -1.2195
  336SOL    HW2 1205   1.971   3.290   3.694  0.2107 -0.0853 -1.1510
  337SOL     OW 1206   3.103   1.227   4.856  0.1142  0.4955  0.0422
  337SOL    HW1 1207   3.067   1.195   4.773  0.9334  2.3846 -1.1282
  337SOL    HW2 1208   3.149   1.308   4.832  0.7499  0.8723  2.2904
  338SOL     OW 1209   0.089   1.419   2.204  0.0860 -0.5554  0.1641
  338SOL    HW1 1210   0.043   1.339   2.228 -0.9738  0.3486  1.2658
  338SOL    HW2 1211   0.172   1.414   2.252 -0.0082 -0.9381  0.2883
  339SOL     OW 1212   2.228   4.260   4.828 -0.0033  0.6747  0.1481
  339SOL    HW1 1213   2.250   4.174   4.863 -0.7728 -0.2920 -1.6187
  339SOL    HW2 1214   2.230   4.319   4.904  1.3350 -0.7295  1.2477
  340SOL     OW 1215   3.864   2.741   3.136  0.3286  0.0111  0.5059
  340SOL    HW1 1216   3.795   2.774   3.194  0.4623  0.5938  0.3358
  340SOL    HW2 1217   3.897   2.663   3.180 -0.7548 -0.5462  0.3706
  341SOL     OW 1218   0.840   0.972   3.624  0.2564 -0.0470  0.0768
  341SOL    HW1 1219   0.771   0.950   3.687  0.9307 -0.0886  0.8243
  341SOL    HW2 1220   0.919   0.980   3.678  0.9053 -0.3688 -0.8133
  342SOL     OW 1221   2.509   2.280   1.337  0.5552 -0.0463  0.1375
  342SOL    HW1 1222   2.568   2.296   1.410 -0.5512 -1.2545  1.3361
  342SOL    HW2 1223   2.422   2.276   1.376  0.0821 -2.1240 -1.0028
  343SOL     OW 1224   0.396   0.723   1.162  0.2908  0.1522  0.4242
  343SOL    HW1 1225   0.458   0.719   1.235  1.7481 -1.1220 -0.8192
  343SOL    HW2 1226   0.441   0.773   1.094 -0.4716  0.1228 -0.1199
  344SOL     OW 1227   2.407   4.303   4.117  0.0559  0.3451  0.0496
  344SOL    HW1 1228   2.384   4.292   4.209  0.7950 -0.4570  0.1523
  344SOL    HW2 1229   2.491   4.258   4.108 -0.6154 -0.7143 -1.2860
  345SOL     OW 1230   4.446   2.735   0.274 -0.0905 -0.5780 -0.7104
  345SOL    HW1 1231   4.394   2.658   0.294 -1.3078  0.3960  0.0542
  345SOL    HW2 1232   4.384   2.796   0.234  0.9394 -0.1518 -1.7090
  346SOL     OW 1233   4.641   3.935   1.836 -0.2781  0.1896 -0.2318
  346SOL    HW1 1234   4.646   3.942   1.740  1.5302  0.1606 -0.1722
  346SOL    HW2 1235   4.627   4.025   1.866 -2.7167 -0.0098 -0.5530
  347SOL     OW 1236   1.547   0.549   3.718  0.0789  0.2759 -0.4546
  347SOL    HW1 1237   1.639   0.563   3.741  0.3589 -1.7363 -0.2134
  347SOL    HW2 1238   1.499   0.608   3.777  1.1052 -0.4789  1.2140
  348SOL     OW 1239   4.783   2.939   1.823 -0.5700 -0.2667  0.1921
  348SOL    HW1 1240   4.808   2.853   1.787 -4.0296 -1.4542  0.2009
  348SOL    HW2 1241   4.742   2.984   1.749 -2.0793 -0.1676  1.0513
  349SOL     OW 1242   2.280   4.324   1.328  0.2811 -0.1436  0.3699
  349SOL    HW1 1243   2.312   4.414   1.332  2.0602 -0.5157 -2.5049
  349SOL    HW2 1244   2.335   4.276   1.390 -0.3086  0.6045  1.5078
  350SOL     OW 1245   3.949   2.496   1.182 -0.4404  0.2525 -0.0786
  350SOL    HW1 1246   3.992   2.554   1.119  2.7520  0.6467  2.1938
  350SOL    HW2 1247   3.965   2.408   1.147 -0.8442  0.5375 -1.0036
  351SOL     OW 1248   3.216   0.030   2.627  0.7691  0.0963 -0.0064
  351SOL    HW1 1249   3.156  -0.044   2.617  1.8425 -0.8344  0.2916
  351SOL    HW2 1250   3.174   0.086   2.691 -0.2023 -0.0968 -0.4550
  352SOL     OW 1251   2.139   2.365   2.832 -0.2192 -0.3058  0.0735
  352SOL    HW1 1252   2.078   2.439   2.836 -0.2398 -0.3751  1.0736
  352SOL    HW2 1253   2.085   2.288   2.849 -0.0347 -0.4723 -0.0881
  353SOL     OW 1254   1.989   4.850   4.040 -0.0764 -0.8325  0.2461
  353SOL    HW1 1255   2.021   4.762   4.064 -0.2658 -1.4402 -1.5769
  353SOL    HW2 1256   2.054   4.882   3.977 -1.5957 -0.9754 -1.4661
  354SOL     OW 1257   1.178   2.542   0.409  0.1128  0.4129 -0.3218
  354SOL    HW1 1258   1.090   2.515   0.434 -0.2067  0.2140 -1.5929
  354SOL    HW2 1259   1.236   2.487   0.461 -0.4892  0.8598  0.8668
  355SOL     OW 1260   1.153   3.387   1.841 -0.6177 -0.8588  0.8374
  355SOL    HW1 1261   1.199   3.454   1.790 -0.7272  0.0223  1.8731
  355SOL    HW2 1262   1.119   3.327   1.775 -0.2119 -0.0936 -0.0970
  356SOL     OW 1263   4.837   2.126   3.638 -0.4260 -0.3030 -0.2246
  356SOL    HW1 1264   4.786   2.111   3.559 -2.5332  1.4070  0.7242
  356SOL    HW2 1265   4.898   2.196   3.614 -1.5903  0.7555 -0.1487
  357SOL     OW 1266   1.255   2.716   1.536 -0.3626 -0.0685 -0.1649
  357SOL    HW1 1267   1.327   2.715   1.473 -1.2560  0.6090 -1.2392
  357SOL    HW2 1268   1.292   2.678   1.616  2.0229  2.6925  0.2249
  358SOL     OW 1269   2.713   2.705   2.580  0.2688  1.0690 -0.8691
  358SOL    HW1 1270   2.662   2.704   2.499 -0.5713 -0.5966 -0.3583
  358SOL    HW2 1271   2.738   2.614   2.594 -0.0407  1.2380  1.0130
  359SOL     OW 1272   2.728   0.077   4.901 -0.1830 -0.3588  0.2407
  359SOL    HW1 1273   2.786   0.138   4.947  0.2615  0.0326 -0.8047
  359SOL    HW2 1274   2.712   0.007   4.964 -0.7454  0.8426  1.4891
  360SOL     OW 1275   4.489   0.758   1.111  0.4132 -0.3934 -0.1190
  360SOL    HW1 1276   4.559   0.778   1.174 -0.1084  3.1076 -0.4846
  360SOL    HW2 1277   4.536   0.735   1.031  1.0770 -1.6642  0.5942
  361SOL     OW 1278   2.045   0.531   4.833  0.5427  0.2676  0.1830
  361SOL    HW1 1279   2.092   0.463   4.880  0.0563 -0.8046 -0.8351
  361SOL    HW2 1280   2.093   0.541   4.750  1.1722  1.8589  0.6904
  362SOL     OW 1281   2.539   3.972   3.882 -0.1072 -0.0679 -0.4919
  362SOL    HW1 1282   2.525   3.921   3.962  0.5204 -1.3337 -1.1701
  362SOL    HW2 1283   2.501   3.919   3.812  3.1446 -1.0966 -1.6418
  363SOL     OW 1284   0.484   1.078   0.076  0.2633  0.2557 -0.0435
  363SOL    HW1 1285   0.403   1.027   0.077  0.0334  0.5980  1.5260
  363SOL    HW2 1286   0.456   1.167   0.098  0.9733  0.5271 -0.2082
  364SOL     OW 1287   3.212   4.204   0.024 -0.0867  0.3360  0.1878
  364SOL    HW1 1288   3.228   4.197   0.119  2.1095 -5.2076 -0.1912
  364SOL    HW2 1289   3.136   4.147   0.009  1.9737 -2.1507 -1.5920
  365SOL     OW 1290   3.953   0.920   0.777  0.9555  0.4312 -0.1957
  365SOL    HW1 1291   3.983   0.984   0.843  1.4207 -0.6114  0.6320
  365SOL    HW2 1292   3.991   0.951   0.695 -1.5254  3.0897 -0.4994
  366SOL     OW 1293   3.354   1.285   0.419 -0.5607 -0.1382 -0.1817
  366SOL    HW1 1294   3.425   1.259   0.477  0.3730  3.0770  0.2828
  366SOL    HW2 1295   3.279   1.301   0.477 -0.9195 -1.0120 -0.3855
  367SOL     OW 1296   3.149   3.811   2.554  0.1629  0.1408 -0.4713
  367SOL    HW1 1297   3.067   3.820   2.505  0.8714 -0.7224 -1.9064
  367SOL    HW2 1298   3.131   3.747   2.622 -0.4942  0.3531 -0.4456
  368SOL     OW 1299   0.789   1.819   0.508  0.3766 -0.1594  0.1387
  368SOL    HW1 1300   0.753   1.752   0.566  0.9027 -0.4145  0.1719
  368SOL    HW2 1301   0.782   1.900   0.559 -0.4649 -0.1461  0.0119
  369SOL     OW 1302   0.475   1.275   0.368 -0.3083 -0.1281 -0.0603
  369SOL    HW1 1303   0.518   1.304   0.288  0.6277  0.2077  0.5570
  369SOL    HW2 1304   0.390   1.320   0.367  0.1661  0.7839 -0.2868
  370SOL     OW 1305   4.538   3.951   0.409 -0.1927 -0.0334 -0.3085
  370SOL    HW1 1306   4.492   3.993   0.337 -1.8243 -0.1850  0.5932
  370SOL    HW2 1307   4.472   3.893   0.449  0.1908  1.1150  2.1489
  371SOL     OW 1308   1.760   4.209   3.285  0.1083  0.3199  0.2856
  371SOL    HW1 1309   1.692   4.274   3.268  0.9730  1.1866  0.0225
  371SOL    HW2 1310   1.833   4.260   3.322  0.9862 -0.4151 -0.3927
  372SOL     OW 1311   0.232   3.358   2.487 -0.3419 -0.4495 -0.4627
  372SOL    HW1 1312   0.174   3.412   2.542  0.5067  1.0113 -0.9340
  372SOL    HW2 1313   0.238   3.407   2.405  0.7245 -1.1121 -0.7926
  373SOL     OW 1314   4.279   3.993   3.781  0.1653 -0.0567  0.5934
  373SOL    HW1 1315   4.249   4.069   3.732  1.8179 -0.3452 -0.9902
  373SOL    HW2 1316   4.199   3.946   3.804 -0.7828  1.2303  0.0303
  374SOL     OW 1317   2.162   0.697   0.901 -0.1507  0.1719 -0.2447
  374SOL    HW1 1318   2.224   0.754   0.857 -0.6797  0.9745  0.0382
  374SOL    HW2 1319   2.080   0.708   0.853 -0.0868 -0.8934 -0.6266
  375SOL     OW 1320   0.028   1.649   3.587  0.0606  0.1334  0.2594
  375SOL    HW1 1321   0.025   1.558   3.557  1.5041  0.0198  0.3818
  375SOL    HW2 1322  -0.010   1.647   3.675 -1.5216 -0.0241 -0.3940
  376SOL     OW 1323   2.766   0.945   3.582  0.0117  0.0601 -0.6427
  376SOL    HW1 1324   2.766   1.040   3.599  0.7068  0.0376 -0.4873
  376SOL    HW2 1325   2.856   0.925   3.558 -0.1363 -0.5659 -0.6978
  377SOL     OW 1326   0.807   2.102   3.854  0.4119  0.2592 -0.1241
  377SOL    HW1 1327   0.896   2.131   3.832  0.4302  1.4081  1.3551
  377SOL    HW2 1328   0.810   2.007   3.844  2.0392  0.2040  0.6387
  378SOL     OW 1329   1.002   3.876   1.154 -0.1557  0.2740  0.1902
  378SOL    HW1 1330   0.944   3.950   1.169  0.6344  1.1447 -0.9127
  378SOL    HW2 1331   0.996   3.859   1.060 -0.5988 -1.3087  0.4789
  379SOL     OW 1332   1.750   2.764   4.930  0.7274  0.8366  0.1320
  379SOL    HW1 1333   1.820   2.812   4.886  2.2844 -1.7841 -0.4803
  379SOL    HW2 1334   1.746   2.679   4.885 -0.6382 -0.3261  2.2188
  380SOL     OW 1335   2.003   0.843   3.640 -0.0902 -0.1223 -0.2696
  380SOL    HW1 1336   2.083   0.791   3.651 -0.9771 -1.5553 -0.3382
  380SOL    HW2 1337   1.967   0.851   3.728 -0.9458 -1.3008 -0.4881
  381SOL     OW 1338   3.957   2.234   1.040  0.0965  0.1157 -0.0728
  381SOL    HW1 1339   4.028   2.172   1.055  0.2754  0.2781 -0.2372
  381SOL    HW2 1340   3.939   2.228   0.946  0.6484  0.8796 -0.2389
  382SOL     OW 1341   0.591   0.274   3.283 -0.7534 -1.1557 -0.4977
  382SOL    HW1 1342   0.506   0.278   3.239 -0.4035 -0.3421 -1.1069
  382SOL    HW2 1343   0.623   0.364   3.284  0.2140 -1.4836 -0.4873
  383SOL     OW 1344   3.784   3.252   3.379 -0.5171 -0.6287 -0.2123
  383SOL    HW1 1345   3.746   3.335   3.350 -2.5456 -1.6128 -0.6034
  383SOL    HW2 1346   3.865   3.243   3.329 -0.6846  0.7314 -0.7577
  384SOL     OW 1347   0.372   0.039   3.499  0.1952 -0.0225  0.1909
  384SOL    HW1 1348   0.308   0.098   3.459  0.8408  0.2127 -0.5199
  384SOL    HW2 1349   0.414  -0.005   3.425  0.8910 -0.1373  0.6431
  385SOL     OW 1350   0.718   2.854   1.200 -0.2765  0.2997 -0.7757
  385SOL    HW1 1351   0.763   2.834   1.283 -1.0034  2.9758  0.3634
  385SOL    HW2 1352   0.706   2.769   1.159 -0.0142 -1.1840  1.9537
  386SOL     OW 1353   2.996   0.619   2.464  0.2654  0.2852 -0.6264
  386SOL    HW1 1354   3.068   0.680   2.480 -0.6042  1.7431 -1.9861
  386SOL    HW2 1355   2.953   0.653   2.385  0.9515 -3.1785 -2.7543
  387SOL     OW 1356   4.635   0.583   3.234  0.0687 -0.1553  0.1181
  387SOL    HW1 1357   4.658   0.504   3.284 -3.2957 -2.4001 -1.5124
  387SOL    HW2 1358   4.597   0.549   3.153 -1.0899  3.2191 -0.8949
  388SOL     OW 1359   2.037   4.462   2.978 -0.1620  0.3396 -0.0657
  388SOL    HW1 1360   2.116   4.469   2.925 -0.5020  3.4202 -0.3061
  388SOL    HW2 1361   2.067   4.417   3.058  1.5222  0.2863 -0.6761
  389SOL     OW 1362   0.665   4.212   2.580 -0.3052  0.6633 -0.3293
  389SOL    HW1 1363   0.635   4.208   2.489 -0.6157 -0.5613 -0.1937
  389SOL    HW2 1364   0.738   4.150   2.583  0.0719  1.1212  0.1387
  390SOL     OW 1365   0.413   2.864   3.938 -0.0923 -0.3003  0.0383
  390SOL    HW1 1366   0.383   2.880   4.028 -2.4086 -0.7354 -0.5938
  390SOL    HW2 1367   0.391   2.944   3.891 -1.3989 -1.0642 -0.7004
  391SOL     OW 1368   3.632   4.419   2.350 -0.2013  0.0444  0.3120
  391SOL    HW1 1369   3.559   4.363   2.324  0.3770 -0.9030  0.6898
  391SOL    HW2 1370   3.599   4.468   2.425 -0.6327  0.0428  0.1286
  392SOL     OW 1371   1.938   3.164   3.362  0.0165 -0.6523  0.1604
  392SOL    HW1 1372   1.940   3.096   3.294  0.5427 -2.0138  1.4972
  392SOL    HW2 1373   2.011   3.142   3.420  1.0748  1.8564 -0.0935
  393SOL     OW 1374   1.579   0.536   3.431  0.3415 -0.1476  0.1900
  393SOL    HW1 1375   1.554   0.622   3.398  0.3629 -0.7910 -1.5608
  393SOL    HW2 1376   1.541   0.532   3.519 -1.5222  0.7966 -0.5341
  394SOL     OW 1377   0.589   0.969   1.485 -0.0462  0.1459 -0.3585
  394SOL    HW1 1378   0.541   0.916   1.549  0.2890 -2.6386 -2.2346
  394SOL    HW2 1379   0.641   1.029   1.538 -1.5024 -0.4240  1.8764
  395SOL     OW 1380   3.371   0.287   0.493  0.2058  0.9134 -0.2438
  395SOL    HW1 1381   3.400   0.327   0.575  1.4995 -1.0263  0.3027
  395SOL    HW2 1382   3.452   0.261   0.449 -0.5275  0.5095 -1.4124
  396SOL     OW 1383   2.954   2.036   2.478  0.1660  0.1823  0.0765
  396SOL    HW1 1384   2.995   2.025   2.564  0.7475  2.3220  0.1272
  396SOL    HW2 1385   2.865   2.066   2.497  0.9943  3.0204  0.0572
  397SOL     OW 1386   2.497   0.442   4.390  0.1223 -0.2463 -0.3462
  397SOL    HW1 1387   2.408   0.417   4.364  0.7927 -2.2491 -0.9341
  397SOL    HW2 1388   2.491   0.458   4.484 -1.2578  1.7402 -0.7185
  398SOL     OW 1389   1.316   0.096   1.654  0.3459 -0.5192 -0.5254
  398SOL    HW1 1390   1.260   0.157   1.702 -0.5327 -1.3622 -0.4514
  398SOL    HW2 1391   1.282   0.097   1.565  1.2803  0.2076 -0.9001
  399SOL     OW 1392   1.729   3.995   0.534  0.3569  0.0372  0.3331
  399SOL    HW1 1393   1.709   3.941   0.457  3.5035  0.1631 -0.6811
  399SOL    HW2 1394   1.705   4.084   0.507  0.7442 -0.0275 -0.2402
  400SOL     OW 1395   1.521   4.071   3.150  0.5739 -0.0406  0.3129
  400SOL    HW1 1396   1.554   4.095   3.064 -0.1753  2.0972  0.5802
  400SOL    HW2 1397   1.596   4.081   3.209  0.4246  1.0845  0.3183
  401SOL     OW 1398   0.804   4.119   4.825 -0.5693 -0.1927 -0.0738
  401SOL    HW1 1399   0.761   4.148   4.906 -1.8209 -0.7879 -0.4967
  401SOL    HW2 1400   0.741   4.059   4.785 -0.1545  0.4439 -1.7281
  402SOL     OW 1401   1.393   2.924   3.589  0.0442  0.6388  0.0909
  402SOL    HW1 1402   1.325   2.857   3.584 -0.3662  1.1361 -1.4200
  402SOL    HW2 1403   1.376   2.969   3.672 -0.6859 -0.0479  0.3236
  403SOL     OW 1404   1.620   1.833   0.761 -0.7238 -0.2196  0.4429
  403SOL    HW1 1405   1.594   1.920   0.730  2.3594  1.6072  2.4453
  403SOL    HW2 1406   1.658   1.791   0.683 -0.0740  1.2132 -0.0512
  404SOL     OW 1407   0.280   4.510   3.809  0.2442  0.7248 -0.5731
  404SOL    HW1 1408   0.291   4.571   3.736  0.8812 -1.0609 -2.0414
  404SOL    HW2 1409   0.333   4.434   3.785 -2.6217 -1.5584 -0.1443
  405SOL     OW 1410   4.455   2.362   4.474  0.3182  0.4798  0.1289
  405SOL    HW1 1411   4.394   2.424   4.433  0.7892  0.4363 -0.6623
  405SOL    HW2 1412   4.459   2.289   4.412  2.1101  1.0251 -0.4676
  406SOL     OW 1413   1.059   3.135   2.963 -0.1046 -0.5430  0.6550
  406SOL    HW1 1414   1.018   3.118   2.879 -1.0057  1.1936  0.6983
  406SOL    HW2 1415   1.043   3.055   3.014 -3.3479 -0.0492  0.6137
  407SOL     OW 1416   1.151   4.853   2.289  0.2685 -0.6550  0.2065
  407SOL    HW1 1417   1.161   4.838   2.384 -0.7687 -0.5357  0.3462
  407SOL    HW2 1418   1.066   4.816   2.268 -0.2417  0.7775 -0.3689
  408SOL     OW 1419   4.574   3.631   1.574 -0.4622  0.1044  0.4018
  408SOL    HW1 1420   4.573   3.536   1.584  0.2273  0.1473  0.9917
  408SOL    HW2 1421   4.510   3.649   1.506 -1.9553 -0.6341  1.5501
  409SOL     OW 1422   0.701   4.570   3.924  0.2254 -0.8134 -0.3114
  409SOL    HW1 1423   0.636   4.529   3.866 -0.5826 -1.6054  1.1062
  409SOL    HW2 1424   0.649   4.607   3.995  1.3411 -2.5104  1.5041
  410SOL     OW 1425   3.393   2.922   4.487 -0.1132 -0.9875  0.1100
  410SOL    HW1 1426   3.322   2.960   4.539  0.7032  0.9506 -0.0902
  410SOL    HW2 1427   3.351   2.885   4.410 -0.7903  2.4356 -1.3382
  411SOL     OW 1428   1.414   4.901   4.113  0.1125  0.3759 -0.7526
  411SOL    HW1 1429   1.393   4.864   4.199  1.8687 -1.8586 -1.2246
  411SOL    HW2 1430   1.336   4.885   4.060 -1.4908  2.8597  0.6216
  412SOL     OW 1431   2.635   3.141   3.086  0.2386  0.1416  0.1655
  412SOL    HW1 1432   2.562   3.149   3.148  0.2410 -1.3492  0.3911
  412SOL    HW2 1433   2.702   3.198   3.122  0.6514 -1.5111  2.2178
  413SOL     OW 1434   3.903   0.866   2.647 -0.3047  0.6553 -0.3340
  413SOL    HW1 1435   3.924   0.922   2.722 -2.9893  0.2953  0.8269
  413SOL    HW2 1436   3.979   0.808   2.639 -0.1342  0.3187  2.5513
  414SOL     OW 1437   3.680   2.393   2.361 -0.4378 -0.0079  0.1013
  414SOL    HW1 1438   3.663   2.337   2.285  0.4584  1.5755 -1.3301
  414SOL    HW2 1439   3.766   2.364   2.393  0.0463  0.5318 -0.6671
  415SOL     OW 1440   1.078   4.423   3.073  0.1412  0.1066 -0.0673
  415SOL    HW1 1441   1.113   4.496   3.123  1.3285 -0.0826 -0.5833
  415SOL    HW2 1442   1.130   4.422   2.993  0.3638 -1.4845  0.0664
  416SOL     OW 1443   0.267   2.487   1.390 -0.3783  0.4155 -0.6670
  416SOL    HW1 1444   0.275   2.394   1.412 -1.7763 -0.0239 -1.8528
  416SOL    HW2 1445   0.348   2.507   1.343 -0.0591 -0.2109 -0.3968
  417SOL     OW 1446   1.701   0.738   4.813  0.1833 -0.1219 -0.2383
  417SOL    HW1 1447   1.685   0.799   4.740  2.5138  1.9667  0.8190
  417SOL    HW2 1448   1.743   0.662   4.772  2.3368  1.4153 -1.0954
  418SOL     OW 1449   1.507   4.323   2.829 -0.1303 -0.6832  0.1749
  418SOL    HW1 1450   1.591   4.368   2.826  0.0199 -1.0014 -0.7103
  418SOL    HW2 1451   1.529   4.230   2.831 -0.4543 -0.8343 -1.7803
  419SOL     OW 1452   1.932   0.454   0.149  0.1896 -0.3721 -0.9493
  419SOL    HW1 1453   1.972   0.535   0.181 -0.7777  0.1609 -1.0526
  419SOL    HW2 1454   1.901   0.476   0.061 -3.3383  0.3275  0.3255
  420SOL     OW 1455   1.093   4.598   1.028  0.4301 -0.0037  0.3563
  420SOL    HW1 1456   1.116   4.668   0.966 -0.2179 -0.7192 -0.7161
  420SOL    HW2 1457   1.075   4.522   0.973  1.0115 -1.0097  1.4957
  421SOL     OW 1458   1.629   2.103   1.024 -0.0578 -0.1272  0.9159
  421SOL    HW1 1459   1.663   2.151   0.948 -0.7487  0.0917  0.7373
  421SOL    HW2 1460   1.706   2.064   1.064  0.1910 -1.5134 -0.7669
  422SOL     OW 1461   1.852   3.180   3.936  0.2380 -0.2549 -0.1060
  422SOL    HW1 1462   1.839   3.105   3.994  0.7082  0.4322  0.9060
  422SOL    HW2 1463   1.793   3.247   3.970  0.3421  0.0724 -0.5653
  423SOL     OW 1464   3.871   1.044   3.542  0.0204  0.4573 -0.1474
  423SOL    HW1 1465   3.874   1.131   3.503 -0.5986  1.1027  1.1665
  423SOL    HW2 1466   3.940   1.046   3.609  0.5243 -0.3366 -0.6324
  424SOL     OW 1467   1.534   4.054   0.736 -0.5544  0.2038  0.1430
  424SOL    HW1 1468   1.554   4.139   0.776 -3.1589  0.5292  0.9553
  424SOL    HW2 1469   1.610   4.035   0.682  0.1111  3.1106 -0.1453
  425SOL     OW 1470   2.973   4.529   1.576  0.4232  0.1554  0.1096
  425SOL    HW1 1471   3.026   4.547   1.499 -0.8692 -2.0284 -1.3937
  425SOL    HW2 1472   2.926   4.449   1.555 -1.5227  0.5756  2.3939
  426SOL     OW 1473   4.918   2.493   3.060 -0.5648  0.4293  0.4315
  426SOL    HW1 1474   4.874   2.547   3.126  0.9289 -0.1352  1.9812
  426SOL    HW2 1475   4.955   2.555   2.998 -0.6614  1.0696  1.0060
  427SOL     OW 1476   2.931   2.468   3.378 -0.1011 -0.0530 -0.0406
  427SOL    HW1 1477   2.892   2.434   3.458 -1.4573  0.4240 -0.4656
  427SOL    HW2 1478   2.914   2.400   3.312 -3.3613  1.4968 -1.0405
  428SOL     OW 1479   3.110   2.489   2.949 -0.1324 -0.0850  0.0681
  428SOL    HW1 1480   3.024   2.510   2.910 -0.3834 -1.2092 -0.0175
  428SOL    HW2 1481   3.132   2.567   3.000 -0.9907  0.4080 -0.2720
  429SOL     OW 1482   1.746   1.702   3.877  0.4481  0.2895  0.1698
  429SOL    HW1 1483   1.666   1.652   3.895  0.0942  0.2096 -1.4841
  429SOL    HW2 1484   1.717   1.794   3.878 -0.1134  0.2049 -2.1905
  430SOL     OW 1485   2.006   1.873   2.625 -0.0192 -0.5243  0.0789
  430SOL    HW1 1486   1.933   1.810   2.627  2.0580 -3.2186 -1.4592
  430SOL    HW2 1487   2.014   1.904   2.715 -1.5709 -1.9793  0.7736
  431SOL     OW 1488   4.673   0.323   0.265 -0.3581 -0.4184 -0.3148
  431SOL    HW1 1489   4.600   0.271   0.232 -1.0350  0.5594 -0.3773
  431SOL    HW2 1490   4.723   0.347   0.187 -1.4786  1.1644 -0.5934
  432SOL     OW 1491   0.728   3.563   0.167 -0.0577  0.2904  0.2568
  432SOL    HW1 1492   0.642   3.538   0.133  0.0603  0.1573  0.0494
  432SOL    HW2 1493   0.790   3.511   0.115  0.2050  1.1786 -0.3361
  433SOL     OW 1494   4.891   0.108   4.918  0.1355  1.0815  0.4089
  433SOL    HW1 1495   4.852   0.040   4.973  1.5333 -2.6117 -2.6313
  433SOL    HW2 1496   4.816   0.158   4.885 -1.4390 -1.2555  0.1504
  434SOL     OW 1497   2.080   2.464   0.378  0.0662 -0.1283  0.6776
  434SOL    HW1 1498   2.018   2.523   0.422 -0.6704 -1.6731  1.7995
  434SOL    HW2 1499   2.063   2.478   0.285  1.0831  2.6178  0.8145
  435SOL     OW 1500   4.900   2.226   0.154 -0.2382  0.5530 -0.2971
  435SOL    HW1 1501   4.836   2.176   0.103 -0.5771  0.3010  0.3593
  435SOL    HW2 1502   4.934   2.291   0.093  0.3539 -0.5856 -1.2284
  436SOL     OW 1503   0.448   3.296   0.470 -0.0133 -1.0487 -0.0894
  436SOL    HW1 1504   0.435   3.239   0.394  2.1930 -2.9800  0.8503
  436SOL    HW2 1505   0.424   3.242   0.545  1.3181 -0.4660  0.7986
  437SOL     OW 1506   3.017   1.049   2.486  0.2303  0.2853  0.5501
  437SOL    HW1 1507   2.945   1.111   2.492 -0.3892 -0.4026  0.4050
  437SOL    HW2 1508   3.010   1.011   2.398 -0.6337 -1.4230  1.3134
  438SOL     OW 1509   4.939   2.466   4.227  0.1786  0.0266 -0.6275
  438SOL    HW1 1510   4.952   2.397   4.162  0.0452  0.4320 -1.1015
  438SOL    HW2 1511   4.845   2.483   4.225  0.1115 -0.2576 -0.0068
  439SOL     OW 1512   4.247   3.522   1.390 -0.2478 -0.4421 -0.0613
  439SOL    HW1 1513   4.318   3.581   1.364 -0.2779 -0.5565 -0.4067
  439SOL    HW2 1514   4.217   3.483   1.308 -1.3671  0.3430 -0.0542
  440SOL     OW 1515   0.773   3.700   2.033 -0.0221 -0.3716 -0.1419
  440SOL    HW1 1516   0.839   3.671   2.095  0.0329  0.6151  0.2856
  440SOL    HW2 1517   0.822   3.726   1.955  0.2938  1.8188  0.7178
  441SOL     OW 1518   1.619   1.537   3.522  0.0244 -0.1308  0.4287
  441SOL    HW1 1519   1.604   1.459   3.576 -0.9703 -0.7239 -0.6627
  441SOL    HW2 1520   1.676   1.506   3.451  0.7228  0.4660  0.7178
  442SOL     OW 1521   2.955   2.433   1.097 -0.6508  0.4660  0.1478
  442SOL    HW1 1522   2.972   2.354   1.149 -1.8442 -0.5493 -0.9357
  442SOL    HW2 1523   3.034   2.443   1.044 -0.2512  0.3558  0.7066
  443SOL     OW 1524   3.974   1.379   4.180 -0.6670  0.3746  0.3103
  443SOL    HW1 1525   3.919   1.435   4.236  0.0881  1.1390  0.3086
  443SOL    HW2 1526   3.922   1.366   4.101  0.1927  3.3870 -0.8795
  444SOL     OW 1527   4.762   4.744   3.736  0.1940 -0.6844 -0.0360
  444SOL    HW1 1528   4.835   4.683   3.751  0.7868 -0.2465 -1.0243
  444SOL    HW2 1529   4.796   4.805   3.670 -0.2119  1.0144  1.2792
  445SOL     OW 1530   1.368   2.354   1.639 -0.2986 -0.1574  0.6123
  445SOL    HW1 1531   1.376   2.430   1.696 -0.1633  0.6872 -0.4857
  445SOL    HW2 1532   1.443   2.299   1.660 -0.3704  0.0356  1.3856
  446SOL     OW 1533   2.317   3.929   3.619 -0.4062  0.0070  0.3410
  446SOL    HW1 1534   2.264   3.871   3.564  0.0552 -0.0101 -0.0987
  446SOL    HW2 1535   2.269   4.012   3.620 -0.6662 -0.1429  0.3119
  447SOL     OW 1536   4.718   1.782   1.301 -0.2584 -0.1840  0.2132
  447SOL    HW1 1537   4.768   1.842   1.358  0.2923 -0.7341  0.3260
  447SOL    HW2 1538   4.627   1.811   1.310  0.2033  2.0747 -1.4726
  448SOL     OW 1539   0.050   1.793   1.998  0.3179 -0.3019  0.5327
  448SOL    HW1 1540   0.040   1.769   2.090 -1.1475  0.2786  0.5581
  448SOL    HW2 1541   0.099   1.875   1.999  3.3908 -1.9826  0.5597
  449SOL     OW 1542   2.383   0.329   3.750 -0.3108 -0.0234  0.0814
  449SOL    HW1 1543   2.475   0.346   3.767  0.0533  0.3456 -1.9700
  449SOL    HW2 1544   2.337   0.365   3.825  0.9468  3.3380 -0.5874
  450SOL     OW 1545   3.551   4.455   1.339 -0.3068 -0.0002 -0.2052
  450SOL    HW1 1546   3.529   4.362   1.336  0.8624 -0.2655 -1.1183
  450SOL    HW2 1547   3.531   4.488   1.252  1.1919  0.1136 -0.5469
  451SOL     OW 1548   3.222   1.451   0.217  0.1912  0.0464  0.0996
  451SOL    HW1 1549   3.258   1.396   0.286 -1.3608  0.5902  1.4044
  451SOL    HW2 1550   3.150   1.399   0.180  0.0521  0.3598 -0.0769
  452SOL     OW 1551   1.702   0.969   2.386  0.0139  0.4885  0.6865
  452SOL    HW1 1552   1.638   0.967   2.316 -0.6942 -0.1785  1.3404
  452SOL    HW2 1553   1.751   0.887   2.377  0.4948  0.7940  0.4575
  453SOL     OW 1554   4.137   4.941   4.321 -0.0955  0.1894 -0.2027
  453SOL    HW1 1555   4.136   4.984   4.235  1.0725  0.7049  0.0179
  453SOL    HW2 1556   4.121   5.011   4.383  0.4665  0.0774  0.0783
  454SOL     OW 1557   4.442   1.568   4.840  0.6483 -0.4841  0.1918
  454SOL    HW1 1558   4.481   1.568   4.752  0.9741  2.5010  0.2195
  454SOL    HW2 1559   4.472   1.650   4.879 -1.0330 -0.8322  2.4041
  455SOL     OW 1560   3.558   4.474   1.999 -0.1213 -0.5118 -0.4505
  455SOL    HW1 1561   3.613   4.465   1.921  0.6235 -0.4880  0.0597
  455SOL    HW2 1562   3.520   4.562   1.992  0.4431 -0.2657 -0.4702
  456SOL     OW 1563   3.088   1.051   3.018  0.2321 -0.1497  0.0725
  456SOL    HW1 1564   3.137   1.009   3.089  0.4215 -1.8719 -1.0088
  456SOL    HW2 1565   3.000   1.063   3.053  0.5545 -0.1670  0.9011
  457SOL     OW 1566   4.880   0.199   2.575  0.4764  0.2445 -0.4894
  457SOL    HW1 1567   4.856   0.281   2.532  0.6855  0.6520  0.1563
  457SOL    HW2 1568   4.870   0.133   2.507 -1.6663  0.5003 -0.5193
  458SOL     OW 1569   4.447   2.161   4.270 -0.4125  0.1756 -0.2240
  458SOL    HW1 1570   4.431   2.067   4.277 -1.5512  0.4030  0.3952
  458SOL    HW2 1571   4.514   2.168   4.202 -0.8663 -1.0306 -0.8305
  459SOL     OW 1572   3.856   2.556   0.428 -0.0302  0.5311 -0.4988
  459SOL    HW1 1573   3.861   2.606   0.510 -1.4476  1.7554 -1.1297
  459SOL    HW2 1574   3.887   2.616   0.361  4.1492 -1.3949 -0.6454
  460SOL     OW 1575   0.297   0.930   2.252  0.1915  0.2493  0.0520
  460SOL    HW1 1576   0.362   0.861   2.245  0.3423  0.2614  1.2678
  460SOL    HW2 1577   0.240   0.916   2.176  0.5342 -0.8700 -0.0164
  461SOL     OW 1578   1.086   4.074   1.386  0.2498  0.3438 -0.0690
  461SOL    HW1 1579   1.034   4.154   1.398 -2.8779 -1.5606  0.0788
  461SOL    HW2 1580   1.107   4.073   1.293  0.8282  1.5585  0.0193
  462SOL     OW 1581   0.187   0.715   0.720  0.3237 -0.1652 -0.0660
  462SOL    HW1 1582   0.254   0.782   0.707 -1.1220  1.5058  0.5852
  462SOL    HW2 1583   0.105   0.765   0.724 -1.0328 -2.1535 -1.3155
  463SOL     OW 1584   4.020   1.606   2.099  0.0169  0.2064  0.0657
  463SOL    HW1 1585   3.934   1.647   2.110 -1.2227 -2.2287  0.0478
  463SOL    HW2 1586   4.018   1.567   2.012  1.1750  0.1898  0.0316
  464SOL     OW 1587   3.826   2.575   1.431 -0.3484 -0.0157 -0.0561
  464SOL    HW1 1588   3.868   2.661   1.432  0.1592 -0.2587 -0.5228
  464SOL    HW2 1589   3.861   2.531   1.353 -0.4438 -0.7230  0.2902
  465SOL     OW 1590   3.824   3.486   1.503  0.2694 -0.2708 -0.3928
  465SOL    HW1 1591   3.911   3.511   1.473  0.9909  0.2951  1.9367
  465SOL    HW2 1592   3.809   3.400   1.465  2.9878 -1.5523  1.1415
  466SOL     OW 1593   2.418   0.094   2.070 -0.5604  0.4667  0.2931
  466SOL    HW1 1594   2.337   0.043   2.078 -1.0481  0.9885 -1.0173
  466SOL    HW2 1595   2.484   0.030   2.046 -0.7153  0.1283  0.7566
  467SOL     OW 1596   1.105   2.160   3.685  0.2212 -0.2127  0.3987
  467SOL    HW1 1597   1.116   2.156   3.779 -1.5457 -0.4221  0.6347
  467SOL    HW2 1598   1.170   2.100   3.650 -0.4217 -1.6761  1.6121
  468SOL     OW 1599   0.972   4.161   0.188 -0.0500  0.2577 -0.2901
  468SOL    HW1 1600   0.913   4.229   0.155  0.1376  1.2572  1.3142
  468SOL    HW2 1601   1.000   4.114   0.110 -3.7384 -0.9791 -1.0849
  469SOL     OW 1602   3.107   0.222   2.836  1.1026 -0.3671  0.3542
  469SOL    HW1 1603   3.103   0.163   2.911  0.1958  0.5120  1.0176
  469SOL    HW2 1604   3.097   0.309   2.873 -0.9818 -0.0014 -0.9214
  470SOL     OW 1605   0.740   0.557   4.385 -0.0035 -0.0551 -0.5098
  470SOL    HW1 1606   0.830   0.582   4.407 -0.4209 -0.0043  1.2677
  470SOL    HW2 1607   0.685   0.620   4.432 -0.9905 -1.1385 -0.1597
  471SOL     OW 1608   3.728   1.160   0.834  0.0666  0.3223 -0.3769
  471SOL    HW1 1609   3.665   1.124   0.772 -0.2280 -0.0134  0.1106
  471SOL    HW2 1610   3.674   1.210   0.896  0.3350  0.4788 -0.2671
  472SOL     OW 1611   1.184   2.359   2.514  0.4524 -0.2310  0.3187
  472SOL    HW1 1612   1.240   2.355   2.437 -1.1093 -0.7806 -0.8538
  472SOL    HW2 1613   1.203   2.443   2.555 -0.3995  1.2215 -2.0695
  473SOL     OW 1614   3.415   2.527   2.882 -0.0891 -0.0198  0.4332
  473SOL    HW1 1615   3.469   2.456   2.915 -0.9113  0.4054  2.8381
  473SOL    HW2 1616   3.325   2.496   2.892 -0.4203  0.8561  0.2600
  474SOL     OW 1617   0.741   2.125   0.104 -0.4853  0.1360 -0.2333
  474SOL    HW1 1618   0.649   2.128   0.130 -0.8795  0.9570 -1.5888
  474SOL    HW2 1619   0.768   2.217   0.102 -0.0516 -0.0010 -1.2103
  475SOL     OW 1620   4.037   0.005   1.809 -0.2955 -0.2515 -0.3497
  475SOL    HW1 1621   3.973  -0.054   1.769 -2.0568  0.1928  1.6506
  475SOL    HW2 1622   4.019   0.090   1.768  0.3211 -0.4945 -1.1540
  476SOL     OW 1623   3.093   2.043   0.113  0.8499  0.1879 -0.6804
  476SOL    HW1 1624   3.105   2.014   0.203  1.1086  0.7348 -0.5297
  476SOL    HW2 1625   3.182   2.046   0.077  1.0013  1.9661 -0.2975
  477SOL     OW 1626   4.006   2.724   4.287 -0.5253 -0.0762  0.1845
  477SOL    HW1 1627   4.018   2.699   4.196 -0.2605  0.5915  0.0333
  477SOL    HW2 1628   4.024   2.818   4.289 -1.6416  0.1447  0.7085
  478SOL     OW 1629   0.340   3.199   1.888  0.6351  0.2024 -0.1615
  478SOL    HW1 1630   0.435   3.189   1.883  0.6058 -0.0742 -0.1863
  478SOL    HW2 1631   0.322   3.284   1.846  1.0946  1.4463  2.0263
  479SOL     OW 1632   2.555   3.779   1.317  0.1000  0.4785 -0.0361
  479SOL    HW1 1633   2.649   3.761   1.308  0.1554  0.5594  0.3631
  479SOL    HW2 1634   2.536   3.762   1.409 -0.1457  1.0759  0.0247
  480SOL     OW 1635   2.484   1.192   4.422  0.3361  0.0273 -0.3731
  480SOL    HW1 1636   2.485   1.284   4.449 -1.6826 -0.5430  2.0327
  480SOL    HW2 1637   2.393   1.176   4.395  0.7966 -1.1514 -1.3440
  481SOL     OW 1638   1.812   1.144   0.295  0.4803  0.0973  0.3208
  481SOL    HW1 1639   1.798   1.127   0.202  1.3390 -2.1227  0.5318
  481SOL    HW2 1640   1.760   1.222   0.314 -0.4757  0.0277 -1.8033
  482SOL     OW 1641   2.464   4.731   4.931 -0.2605  0.3467 -0.1726
  482SOL    HW1 1642   2.552   4.760   4.956 -0.3555 -1.2265  2.1932
  482SOL    HW2 1643   2.405   4.782   4.986 -0.9158  1.4140 -1.7661
  483SOL     OW 1644   4.509   4.565   0.499 -0.6707 -0.4252 -0.3723
  483SOL    HW1 1645   4.536   4.484   0.456 -1.9360 -0.0254 -2.0625
  483SOL    HW2 1646   4.500   4.542   0.591  1.3704 -1.5452 -0.4107
  484SOL     OW 1647   2.352   2.166   4.685 -0.5652  0.2703  0.0605
  484SOL    HW1 1648   2.341   2.150   4.592 -1.5227 -0.8127  0.3296
  484SOL    HW2 1649   2.446   2.173   4.698 -0.4631  1.5410 -1.1365
  485SOL     OW 1650   4.701   3.043   1.580  0.1685 -0.0249  0.2636
  485SOL    HW1 1651   4.745   3.122   1.551  0.1188 -0.2064 -0.3139
  485SOL    HW2 1652   4.608   3.059   1.565  0.2611 -0.7056 -1.1394
  486SOL     OW 1653   1.786   2.338   4.413  0.3320 -0.2446  0.3470
  486SOL    HW1 1654   1.751   2.319   4.326  1.0044 -2.3650  0.4790
  486SOL    HW2 1655   1.753   2.267   4.469  0.0193  1.0046  1.8131
  487SOL     OW 1656   1.544   1.879   2.713  0.0026  0.2038 -0.1761
  487SOL    HW1 1657   1.500   1.836   2.786  0.4106  0.5357  0.2717
  487SOL    HW2 1658   1.528   1.822   2.638 -1.8790  0.7230 -0.2147
  488SOL     OW 1659   4.626   4.857   4.440  0.3964 -0.1137  0.4208
  488SOL    HW1 1660   4.563   4.891   4.376 -0.6495 -2.0912  0.3093
  488SOL    HW2 1661   4.703   4.912   4.429 -0.9740  1.8115 -0.0888
  489SOL     OW 1662   3.006   0.033   0.632  0.1714  0.1270  0.4255
  489SOL    HW1 1663   2.955  -0.047   0.646  0.6150 -0.0413  1.0860
  489SOL    HW2 1664   2.968   0.098   0.691  0.3555  0.1620  0.5079
  490SOL     OW 1665   1.470   4.717   0.378 -0.2835 -0.2389 -0.7156
  490SOL    HW1 1666   1.530   4.784   0.409 -0.2292 -0.3473 -0.5886
  490SOL    HW2 1667   1.466   4.731   0.283  0.6422 -0.8021 -0.8439
  491SOL     OW 1668   2.788   3.107   3.718 -0.0850  0.4470  0.3505
  491SOL    HW1 1669   2.809   3.057   3.640 -0.3700 -0.9583  1.1468
  491SOL    HW2 1670   2.696   3.131   3.707 -0.4400 -0.6932  0.7414
  492SOL     OW 1671   2.416   2.550   4.139  0.7976  0.1553  0.2107
  492SOL    HW1 1672   2.391   2.640   4.160 -1.8933 -1.1165  3.4406
  492SOL    HW2 1673   2.399   2.502   4.220  2.1003 -3.3046 -1.3941
  493SOL     OW 1674   0.455   2.336   2.198 -0.1817 -0.0811  0.2634
  493SOL    HW1 1675   0.507   2.264   2.162 -0.6270 -0.7152  0.8627
  493SOL    HW2 1676   0.477   2.338   2.291 -0.1388  0.5982  0.2466
  494SOL     OW 1677   0.884   0.987   0.414 -0.2043 -0.2782  0.2919
  494SOL    HW1 1678   0.813   0.957   0.358 -0.2586 -0.5418  0.4988
  494SOL    HW2 1679   0.877   1.083   0.414 -0.0766 -0.2649 -0.3148
  495SOL     OW 1680   1.170   1.360   1.466 -0.4686 -0.0325 -0.0393
  495SOL    HW1 1681   1.124   1.440   1.491 -0.9465 -0.0460 -0.8473
  495SOL    HW2 1682   1.229   1.388   1.395 -1.2100 -0.5391 -0.8717
  496SOL     OW 1683   3.837   3.838   2.965  0.0437  0.3367  0.2977
  496SOL    HW1 1684   3.742   3.844   2.976  0.2918  1.1299  2.7141
  496SOL    HW2 1685   3.860   3.752   2.999  0.3078  0.6911  1.0401
  497SOL     OW 1686   4.701   2.554   4.079 -0.4613 -0.8151  0.0808
  497SOL    HW1 1687   4.619   2.507   4.065 -0.7953 -0.4759  0.8541
  497SOL    HW2 1688   4.676   2.646   4.083 -0.3921 -0.8371  2.5242
  498SOL     OW 1689   3.599   4.899   4.315 -0.3455  0.1858 -0.6104
  498SOL    HW1 1690   3.522   4.874   4.264 -0.4908  2.1233 -1.4392
  498SOL    HW2 1691   3.673   4.882   4.257 -0.1756 -0.9775 -0.0867
  499SOL     OW 1692   1.346   3.080   3.815 -0.1287 -0.6433  0.9568
  499SOL    HW1 1693   1.305   3.080   3.902  0.4973  1.0161  1.2938
  499SOL    HW2 1694   1.379   3.169   3.805 -0.7592 -0.6230 -1.2732
  500SOL     OW 1695   2.098   1.503   0.179  0.1827  0.1470 -0.4350
  500SOL    HW1 1696   2.127   1.417   0.212  0.8795  1.3097  2.2582
  500SOL    HW2 1697   2.005   1.490   0.158  0.1748 -1.1897  0.2878
  501SOL     OW 1698   0.034   2.017   0.324  0.0039 -0.0423  0.3272
  501SOL    HW1 1699   0.118   2.041   0.363  0.1159  1.4498 -0.7587
  501SOL    HW2 1700   0.011   2.091   0.269 -1.6109 -0.8110 -0.0928
  502SOL     OW 1701   3.175   3.283   1.610 -0.1246  0.2606  0.1524
  502SOL    HW1 1702   3.107   3.231   1.653 -0.5101 -0.7585 -1.5901
  502SOL    HW2 1703   3.255   3.232   1.622 -0.4297 -0.5845 -1.2107
  503SOL     OW 1704   2.656   4.071   1.943 -0.4997  0.2931 -0.6698
  503SOL    HW1 1705   2.685   4.012   1.872 -0.2165  0.6463 -0.8500
  503SOL    HW2 1706   2.665   4.018   2.023  0.0676  0.1961 -0.7944
  504SOL     OW 1707   0.259   4.543   0.555 -0.0939  0.6569 -0.7600
  504SOL    HW1 1708   0.274   4.635   0.578 -1.0334  0.2658  1.7270
  504SOL    HW2 1709   0.166   4.539   0.534 -0.2375  0.1535 -0.0580
  505SOL     OW 1710   0.600   2.072   4.484  0.0759  0.0420 -0.0201
  505SOL    HW1 1711   0.621   2.016   4.410  0.6296  0.2095  0.0082
  505SOL    HW2 1712   0.505   2.081   4.481  0.0131 -0.6436 -0.2074
  506SOL     OW 1713   0.641   2.595   4.771  0.4094 -0.3305  0.2671
  506SOL    HW1 1714   0.564   2.572   4.718 -1.1960  0.4032  2.1555
  506SOL    HW2 1715   0.649   2.523   4.834  0.0422  0.4955  1.3017
  507SOL     OW 1716   2.518   0.846   2.032  0.0495  0.1837  0.0264
  507SOL    HW1 1717   2.555   0.790   2.101  2.9650  0.4079 -1.1917
  507SOL    HW2 1718   2.463   0.908   2.079  0.3832 -0.8760  1.9335
  508SOL     OW 1719   1.912   1.043   0.672 -0.7076  0.2775 -0.0688
  508SOL    HW1 1720   1.875   1.064   0.758 -0.9028 -0.5575  0.0626
  508SOL    HW2 1721   1.866   0.963   0.646  1.9211 -1.6559  0.7370
  509SOL     OW 1722   2.901   4.543   1.939 -0.3014 -0.4500 -0.2130
  509SOL    HW1 1723   2.863   4.582   1.860  0.5513  0.0567 -0.3801
  509SOL    HW2 1724   2.950   4.614   1.979  1.7780 -1.4720 -0.8251
  510SOL     OW 1725   4.241   1.486   4.036  0.2181 -0.4171 -0.0957
  510SOL    HW1 1726   4.172   1.424   4.012  1.3983 -2.0834  0.6046
  510SOL    HW2 1727   4.210   1.526   4.118 -1.1218  0.9109 -1.1975
  511SOL     OW 1728   3.421   3.624   2.120  0.2099  0.0840  0.1579
  511SOL    HW1 1729   3.481   3.550   2.125 -0.3244 -0.3120  0.7673
  511SOL    HW2 1730   3.391   3.637   2.210 -0.8542  0.0788 -0.1869
  512SOL     OW 1731   4.561   1.885   2.663 -0.1906 -0.0053  0.0910
  512SOL    HW1 1732   4.512   1.869   2.582 -0.7466  0.8207  0.2548
  512SOL    HW2 1733   4.552   1.804   2.713  0.4534 -0.6549 -0.8134
  513SOL     OW 1734   4.329   0.115   1.213  0.3587  0.3309 -0.3430
  513SOL    HW1 1735   4.327   0.205   1.179 -0.8838  0.4534  0.0137
  513SOL    HW2 1736   4.347   0.061   1.136  0.7465  0.8475 -0.6244
  514SOL     OW 1737   3.177   0.258   3.431 -0.1885  0.4615  0.3672
  514SOL    HW1 1738   3.226   0.291   3.356 -2.9496  0.4601 -1.5696
  514SOL    HW2 1739   3.193   0.164   3.431 -0.2742  0.4456 -0.2878
  515SOL     OW 1740   4.631   3.976   0.757 -0.2714  0.1712  0.6795
  515SOL    HW1 1741   4.554   4.005   0.709 -0.5718  0.3327  1.2584
  515SOL    HW2 1742   4.697   4.043   0.740 -1.0934  1.4873  2.3748
  516SOL     OW 1743   3.712   0.902   3.358 -0.0521 -0.0941 -0.1884
  516SOL    HW1 1744   3.726   0.960   3.433 -4.1427 -0.3738  1.0442
  516SOL    HW2 1745   3.665   0.957   3.295 -3.1225 -1.5883  0.6053
  517SOL     OW 1746   2.406   4.573   1.264 -0.4281  0.2393  0.4043
  517SOL    HW1 1747   2.488   4.536   1.296 -0.3163 -0.0499 -0.1987
  517SOL    HW2 1748   2.373   4.627   1.336 -1.6373 -2.6260  2.1729
  518SOL     OW 1749   0.071   4.754   1.068 -0.0364  0.2627 -0.8294
  518SOL    HW1 1750   0.041   4.829   1.017  1.0914  0.9783 -0.4807
  518SOL    HW2 1751   0.132   4.709   1.009  1.3479  1.1488 -0.1267
  519SOL     OW 1752   2.223   4.293   0.758 -0.3055  0.2171  0.1138
  519SOL    HW1 1753   2.150   4.248   0.800 -0.0160 -0.3893 -0.0132
  519SOL    HW2 1754   2.183   4.343   0.687 -0.5157 -0.7717 -0.4817
  520SOL     OW 1755   0.092   4.502   4.939 -0.0664 -0.3125  0.3380
  520SOL    HW1 1756   0.009   4.540   4.967 -0.5501 -1.0530 -0.0572
  520SOL    HW2 1757   0.148   4.506   5.016 -0.5796 -0.1005  0.6993
  521SOL     OW 1758   0.202   4.044   4.781 -0.2224 -0.1176  0.5459
  521SOL    HW1 1759   0.254   4.095   4.719  0.0636 -2.0477 -0.8947
  521SOL    HW2 1760   0.133   4.105   4.810  1.8194  2.0019  1.2974
  522SOL     OW 1761   3.991   2.817   1.831  0.0236  0.2489  0.1351
  522SOL    HW1 1762   3.989   2.874   1.908  0.5950 -0.0209  0.3556
  522SOL    HW2 1763   4.069   2.763   1.844  0.5001  0.6451 -0.9458
  523SOL     OW 1764   4.207   0.172   1.485  0.0824  0.6295  0.0563
  523SOL    HW1 1765   4.268   0.185   1.412  1.3105 -1.5230  0.6117
  523SOL    HW2 1766   4.120   0.173   1.444  0.5773  1.7731 -1.0452
  524SOL     OW 1767   3.474   4.544   4.921 -0.2044 -0.1630  0.3901
  524SOL    HW1 1768   3.533   4.596   4.867 -2.3690  1.6315 -0.3688
  524SOL    HW2 1769   3.428   4.608   4.975 -0.9771 -1.5648  1.4759
  525SOL     OW 1770   0.202   0.672   2.999  0.8845 -0.3215 -0.1728
  525SOL    HW1 1771   0.150   0.727   2.940 -0.2964  0.4178  1.4818
  525SOL    HW2 1772   0.292   0.681   2.967  0.4112  0.8186 -1.2651
  526SOL     OW 1773   0.773   3.657   2.469 -0.0580 -0.5858 -0.2141
  526SOL    HW1 1774   0.751   3.747   2.445 -0.7375 -1.0832 -1.6255
  526SOL    HW2 1775   0.824   3.625   2.395  1.4353 -0.9284  0.9370
  527SOL     OW 1776   3.699   3.866   4.275  0.4671  0.0552  0.2218
  527SOL    HW1 1777   3.749   3.945   4.296  2.0479 -0.9048  0.2548
  527SOL    HW2 1778   3.608   3.889   4.293  0.6195  2.4957 -1.6357
  528SOL     OW 1779   0.161   2.659   4.214 -0.5907 -0.0760  0.4357
  528SOL    HW1 1780   0.192   2.651   4.123 -0.0889  2.1866  0.3550
  528SOL    HW2 1781   0.089   2.597   4.219 -1.6502  0.8180 -2.0019
  529SOL     OW 1782   3.813   2.780   2.857 -0.4621 -0.2886  0.2987
  529SOL    HW1 1783   3.886   2.740   2.810  0.5235  1.5829  0.1252
  529SOL    HW2 1784   3.832   2.762   2.949  0.1375  0.0311  0.2437
  530SOL     OW 1785   0.376   1.786   1.743 -0.2083  0.3841  0.6225
  530SOL    HW1 1786   0.433   1.715   1.714 -1.6881  0.0147 -1.6192
  530SOL    HW2 1787   0.346   1.827   1.662 -2.7128  0.8861  1.7157
  531SOL     OW 1788   1.004   4.352   0.916 -0.4710  0.4477 -0.2899
  531SOL    HW1 1789   1.067   4.284   0.893  0.4834  0.4754  2.0143
  531SOL    HW2 1790   0.920   4.317   0.888  0.1551 -1.1253 -0.2965
  532SOL     OW 1791   3.784   1.349   4.749 -0.5032 -0.2873 -0.2546
  532SOL    HW1 1792   3.757   1.426   4.798 -0.2796 -0.0921 -0.4362
  532SOL    HW2 1793   3.877   1.338   4.770 -0.3447 -0.0615 -0.8141
  533SOL     OW 1794   1.552   3.673   0.672 -0.1994 -0.1198  0.0934
  533SOL    HW1 1795   1.639   3.637   0.661  0.1126  0.6025  0.1065
  533SOL    HW2 1796   1.493   3.598   0.664  0.5413 -1.0500  2.6629
  534SOL     OW 1797   2.432   4.829   0.381 -0.7604 -0.0240 -1.1456
  534SOL    HW1 1798   2.375   4.751   0.382  0.0925 -0.6942 -2.6912
  534SOL    HW2 1799   2.371   4.902   0.391 -1.5642 -0.8543  0.5813
  535SOL     OW 1800   2.059   3.032   3.091  0.0386 -0.3106 -0.5950
  535SOL    HW1 1801   2.090   3.110   3.046 -0.0917 -0.0787 -0.2906
  535SOL    HW2 1802   2.109   3.029   3.172 -0.5467 -0.0691 -0.2124
  536SOL     OW 1803   3.640   0.756   0.220  0.1354 -0.0934 -0.0751
  536SOL    HW1 1804   3.615   0.683   0.277  2.3350 -0.3796  0.6375
  536SOL    HW2 1805   3.576   0.754   0.149 -2.3005 -0.1752  1.9680
  537SOL     OW 1806   3.541   1.087   0.553 -0.0940 -0.5246  0.1553
  537SOL    HW1 1807   3.619   1.140   0.538 -0.0901 -0.6936 -0.4417
  537SOL    HW2 1808   3.568   0.997   0.534 -0.2243 -0.6869  0.7198
  538SOL     OW 1809   3.709   1.174   2.082 -0.1769 -0.7141 -0.1007
  538SOL    HW1 1810   3.693   1.086   2.048 -0.2102 -0.3998 -0.9152
  538SOL    HW2 1811   3.643   1.229   2.039 -1.5835 -0.6124  1.9839
  539SOL     OW 1812   4.100   2.913   0.005  0.2488 -0.0292 -0.0321
  539SOL    HW1 1813   4.174   2.901  -0.055  0.9558  1.1644  0.5693
  539SOL    HW2 1814   4.052   2.987  -0.031 -0.9155 -1.0406 -0.6410
  540SOL     OW 1815   0.187   1.610   1.470 -0.9410 -0.8305  0.8642
  540SOL    HW1 1816   0.108   1.646   1.509 -1.5681 -1.1674 -0.0504
  540SOL    HW2 1817   0.247   1.685   1.462 -0.5086 -0.8919  3.0794
  541SOL     OW 1818   2.758   3.111   1.597  0.2264 -0.4796  0.7771
  541SOL    HW1 1819   2.850   3.095   1.576 -0.1190 -2.2648  0.5297
  541SOL    HW2 1820   2.734   3.042   1.659 -0.7399  0.4434  1.4793
  542SOL     OW 1821   2.200   3.848   2.265 -0.5336  0.1922  0.0930
  542SOL    HW1 1822   2.252   3.768   2.257  0.1020  0.6496 -0.3419
  542SOL    HW2 1823   2.125   3.833   2.206 -0.4119 -0.0726  0.0026
  543SOL     OW 1824   3.897   3.472   0.870 -0.3078 -0.1296 -0.0413
  543SOL    HW1 1825   3.978   3.468   0.922  0.1225 -1.5124 -0.7806
  543SOL    HW2 1826   3.912   3.411   0.798 -1.1750  1.2174 -1.4242
  544SOL     OW 1827   3.926   3.033   0.662  0.3867 -0.5553  0.4889
  544SOL    HW1 1828   3.891   3.060   0.577  2.8921 -0.8459 -0.7511
  544SOL    HW2 1829   3.913   3.109   0.719  0.8211  0.6040 -0.8853
  545SOL     OW 1830   0.295   3.483   4.275  0.0194  0.0376 -1.0657
  545SOL    HW1 1831   0.275   3.400   4.317 -1.5035  1.8368  2.1640
  545SOL    HW2 1832   0.379   3.510   4.313 -1.3817  1.6916  1.0821
  546SOL     OW 1833   2.837   3.506   0.354 -0.0538  0.0422  0.4754
  546SOL    HW1 1834   2.913   3.449   0.365  0.7223  1.2898  1.8652
  546SOL    HW2 1835   2.855   3.554   0.273 -0.1594 -0.8132 -0.0702
  547SOL     OW 1836   0.813   1.028   2.300 -0.4986  0.5334 -0.0565
  547SOL    HW1 1837   0.817   1.093   2.230  0.1769  0.6617  0.0921
  547SOL    HW2 1838   0.724   1.035   2.334 -0.7797  0.5757 -0.7961
  548SOL     OW 1839   4.304   1.632   1.989 -0.3156  0.3858 -0.4528
  548SOL    HW1 1840   4.349   1.704   1.945 -0.8096  1.5604  0.8877
  548SOL    HW2 1841   4.218   1.627   1.946 -0.0122  0.0883 -1.0377
  549SOL     OW 1842   2.069   4.198   4.513  0.9616 -0.0724 -0.1421
  549SOL    HW1 1843   1.975   4.218   4.522  1.2027  1.0926 -0.0926
  549SOL    HW2 1844   2.077   4.108   4.546  0.0027  0.1286  0.6890
  550SOL     OW 1845   1.544   0.857   3.072  0.4225 -0.1176 -1.1481
  550SOL    HW1 1846   1.574   0.948   3.061  0.7410 -0.1849 -0.8721
  550SOL    HW2 1847   1.619   0.813   3.112 -0.1983 -0.1967 -0.0503
  551SOL     OW 1848   4.815   3.649   0.389  0.0197  0.0851  0.3747
  551SOL    HW1 1849   4.721   3.630   0.382 -0.1670  1.5079 -1.6292
  551SOL    HW2 1850   4.848   3.583   0.450 -2.0060 -1.3992 -0.0426
  552SOL     OW 1851   1.346   2.946   2.392  0.1400 -0.1020  0.1618
  552SOL    HW1 1852   1.265   2.970   2.438 -0.8223  0.4536 -1.7454
  552SOL    HW2 1853   1.416   2.972   2.452 -1.0567 -0.8680  1.9965
  553SOL     OW 1854   0.740   0.996   0.673 -0.2208 -0.0097 -0.0691
  553SOL    HW1 1855   0.672   1.032   0.617 -0.7648 -0.9243 -0.0150
  553SOL    HW2 1856   0.815   0.983   0.615 -0.5815 -0.3804 -0.4541
  554SOL     OW 1857   4.188   2.115   1.143 -0.4804  0.1653 -0.2322
  554SOL    HW1 1858   4.230   2.197   1.119  1.1807 -0.2631  1.0059
  554SOL    HW2 1859   4.238   2.083   1.218 -1.2981 -1.8092 -0.4526
  555SOL     OW 1860   3.631   4.770   2.651 -0.2695  0.3235 -0.1736
  555SOL    HW1 1861   3.574   4.847   2.647 -0.3193  0.2644 -0.6302
  555SOL    HW2 1862   3.639   4.751   2.745  0.1561  1.1880 -0.0245
  556SOL     OW 1863   3.012   2.834   3.801  0.2363  0.4282  0.0452
  556SOL    HW1 1864   3.095   2.847   3.756  0.9077  2.6583  1.7488
  556SOL    HW2 1865   3.000   2.914   3.853 -1.6431 -0.9457  1.8996
  557SOL     OW 1866   0.002   0.701   1.335  0.3631 -0.1994 -0.0160
  557SOL    HW1 1867   0.038   0.759   1.267 -0.5431  0.5175  0.0841
  557SOL    HW2 1868   0.008   0.613   1.298  3.7593 -0.3763  0.6768
  558SOL     OW 1869   4.638   2.404   4.654 -0.1539 -0.0614 -0.0275
  558SOL    HW1 1870   4.566   2.368   4.603 -2.5912  1.9785  1.7011
  558SOL    HW2 1871   4.619   2.498   4.659  2.6312  0.5565  0.5566
  559SOL     OW 1872   4.838   2.768   1.226  0.2812 -0.2094 -0.1417
  559SOL    HW1 1873   4.880   2.712   1.161 -0.3723 -2.3328  1.1468
  559SOL    HW2 1874   4.762   2.804   1.180  1.0720  0.1755 -1.1961
  560SOL     OW 1875   4.268   0.336   2.706 -0.3834 -0.0091 -0.4181
  560SOL    HW1 1876   4.317   0.340   2.624  0.1697  0.2132 -0.0790
  560SOL    HW2 1877   4.325   0.289   2.766 -1.3680 -1.4316 -0.5459
  561SOL     OW 1878   1.347   0.426   1.364  0.1306 -0.1807 -0.4541
  561SOL    HW1 1879   1.296   0.505   1.377 -0.6351 -0.0271 -3.5515
  561SOL    HW2 1880   1.424   0.437   1.420 -0.3147  2.3950 -0.2455
  562SOL     OW 1881   0.647   3.491   2.674 -0.4341 -0.1053  0.0375
  562SOL    HW1 1882   0.616   3.421   2.617 -1.2751  0.9705 -0.8671
  562SOL    HW2 1883   0.691   3.553   2.616  1.0535 -0.2509  0.9339
  563SOL     OW 1884   2.099   3.445   1.208  0.3377  0.3606 -0.6220
  563SOL    HW1 1885   2.122   3.491   1.289 -0.4791 -2.0315  1.0962
  563SOL    HW2 1886   2.169   3.381   1.197 -1.2274 -1.6170  0.2013
  564SOL     OW 1887   0.739   0.798   0.866 -0.1792  0.1687  0.3310
  564SOL    HW1 1888   0.762   0.859   0.796  1.4725  0.7471  1.3358
  564SOL    HW2 1889   0.649   0.822   0.889 -0.6088  0.2295 -1.2873
  565SOL     OW 1890   1.741   1.203   2.207 -0.0091 -0.1106 -0.7664
  565SOL    HW1 1891   1.740   1.238   2.296 -1.0068  0.8956 -1.1519
  565SOL    HW2 1892   1.656   1.161   2.196  0.2930 -0.6618 -1.0984
  566SOL     OW 1893   1.577   3.792   4.513  0.4062  0.7902  0.4270
  566SOL    HW1 1894   1.562   3.703   4.544  0.9994 -0.2013 -1.9491
  566SOL    HW2 1895   1.667   3.812   4.541  0.4895  0.3992  0.4428
  567SOL     OW 1896   0.346   0.592   3.536 -0.6215  0.2419 -0.6465
  567SOL    HW1 1897   0.340   0.504   3.572  2.4896  0.1319 -0.0890
  567SOL    HW2 1898   0.334   0.581   3.442  2.5874 -1.3648 -1.0120
  568SOL     OW 1899   2.104   2.791   0.932  0.0953  0.7428  0.4404
  568SOL    HW1 1900   2.094   2.810   0.839 -1.4868  0.4467  0.5205
  568SOL    HW2 1901   2.068   2.703   0.943  1.7651  0.1055  1.0836
  569SOL     OW 1902   0.674   4.793   2.069  0.5891 -0.7098  0.1293
  569SOL    HW1 1903   0.592   4.746   2.084  1.0049 -1.0890  1.4012
  569SOL    HW2 1904   0.657   4.848   1.993 -0.4205 -1.7560 -0.4303
  570SOL     OW 1905   1.003   4.574   2.405 -0.0287 -0.3042 -0.1785
  570SOL    HW1 1906   1.039   4.555   2.492 -2.6314 -3.1821  0.4357
  570SOL    HW2 1907   0.948   4.651   2.419 -1.3385 -1.4184  1.0886
  571SOL     OW 1908   3.402   1.932   4.051  0.5449  0.2885 -0.6179
  571SOL    HW1 1909   3.323   1.938   4.104  1.0822  1.5266  0.0691
  571SOL    HW2 1910   3.460   1.875   4.101  0.0941 -0.6731 -1.1524
  572SOL     OW 1911   0.285   1.780   3.611  0.1066 -0.3578  0.1430
  572SOL    HW1 1912   0.332   1.728   3.547  1.4952 -1.4795  1.9584
  572SOL    HW2 1913   0.196   1.748   3.608  0.0609 -0.1694 -1.3894
  573SOL     OW 1914   4.850   0.167   1.438 -0.1776  0.6626 -0.2017
  573SOL    HW1 1915   4.764   0.196   1.469  0.2082  0.7009  0.8776
  573SOL    HW2 1916   4.900   0.152   1.518  0.8059  0.5902 -0.8195
  574SOL     OW 1917   0.483   4.539   0.403 -0.0069  0.1319 -0.1931
  574SOL    HW1 1918   0.484   4.630   0.430  0.3599  0.4913 -1.3421
  574SOL    HW2 1919   0.409   4.500   0.450 -0.6160  1.1906 -0.2433
  575SOL     OW 1920   2.362   0.927   3.072  0.5005  0.4362 -0.4614
  575SOL    HW1 1921   2.355   0.992   3.142  1.6525  2.3948 -2.0632
  575SOL    HW2 1922   2.303   0.958   3.004  1.4021  0.0966 -1.4364
  576SOL     OW 1923   3.398   0.408   2.843 -0.1531  0.1872 -0.2869
  576SOL    HW1 1924   3.392   0.498   2.876  0.0924 -0.8905  3.1651
  576SOL    HW2 1925   3.470   0.410   2.780  0.6156  2.2108  0.5812
  577SOL     OW 1926   3.794   0.692   0.506 -0.5098  0.1641  0.1526
  577SOL    HW1 1927   3.790   0.787   0.490  1.4802  0.7129  2.2755
  577SOL    HW2 1928   3.714   0.658   0.468 -0.7657  2.5359 -1.7023
  578SOL     OW 1929   4.418   2.246   0.572  0.0252 -0.1907 -0.3413
  578SOL    HW1 1930   4.363   2.170   0.556  1.5412 -1.3004 -0.5766
  578SOL    HW2 1931   4.439   2.241   0.665  3.2325 -2.4074 -0.9985
  579SOL     OW 1932   2.174   4.937   2.198  0.1602  0.3751 -0.2308
  579SOL    HW1 1933   2.101   4.884   2.231  0.3929 -1.0350 -1.8884
  579SOL    HW2 1934   2.164   4.935   2.103  1.9818  0.7125 -0.4601
  580SOL     OW 1935   1.573   0.445   2.673 -0.1176  0.1594 -0.4205
  580SOL    HW1 1936   1.602   0.371   2.727  1.8851  1.6183  0.6301
  580SOL    HW2 1937   1.524   0.404   2.602  0.7864 -2.1725  0.1846
  581SOL     OW 1938   4.868   3.440   1.246  0.4351  0.5465 -0.1050
  581SOL    HW1 1939   4.819   3.493   1.183  5.0473  5.0026 -0.6219
  581SOL    HW2 1940   4.937   3.399   1.195 -0.2175 -2.3855  1.1157
  582SOL     OW 1941   1.812   2.675   3.112  0.0876 -0.4940  0.1406
  582SOL    HW1 1942   1.883   2.720   3.067  0.0136 -0.6225 -0.1032
  582SOL    HW2 1943   1.754   2.645   3.042  0.2237 -1.1137  0.2859
  583SOL     OW 1944   4.876   1.711   3.853 -0.3833 -0.3703 -0.0200
  583SOL    HW1 1945   4.891   1.677   3.941  0.2990 -1.5159 -0.5601
  583SOL    HW2 1946   4.836   1.797   3.867 -0.4600 -0.6185  1.3980
  584SOL     OW 1947   3.392   0.863   3.940  0.1353  0.4294 -0.2488
  584SOL    HW1 1948   3.382   0.859   3.845  0.2962 -0.1571 -0.2402
  584SOL    HW2 1949   3.392   0.772   3.968  2.5193  0.4766  0.0737
  585SOL     OW 1950   4.178   1.164   1.726  0.0938  0.0998 -0.6335
  585SOL    HW1 1951   4.184   1.151   1.821  0.7149  1.1624 -0.5044
  585SOL    HW2 1952   4.100   1.217   1.714  0.8687  1.3096 -0.5347
  586SOL     OW 1953   4.642   2.295   1.799  0.3833 -0.2637 -0.2657
  586SOL    HW1 1954   4.567   2.324   1.851  1.3386 -0.5065  1.3119
  586SOL    HW2 1955   4.684   2.376   1.770  0.1049 -0.1128 -0.2470
  587SOL     OW 1956   1.655   0.886   1.027  0.3180  0.5901 -1.2071
  587SOL    HW1 1957   1.607   0.965   1.005  1.4120  2.0086  1.1302
  587SOL    HW2 1958   1.612   0.852   1.105  0.7216 -0.3256 -1.3651
  588SOL     OW 1959   4.938   4.081   0.832  0.5761  0.5149 -0.4239
  588SOL    HW1 1960   4.970   4.029   0.758  2.9425  0.5885  0.4525
  588SOL    HW2 1961   4.901   4.016   0.892  1.4694  0.0705 -0.3320
  589SOL     OW 1962   0.662   0.011   3.971 -0.1960 -0.0164  0.1387
  589SOL    HW1 1963   0.736   0.024   3.913 -0.2936 -0.6610 -0.1412
  589SOL    HW2 1964   0.589  -0.011   3.913 -0.2253 -0.9585  0.5137
  590SOL     OW 1965   4.443   3.816   4.759 -0.2311 -0.8426 -0.5383
  590SOL    HW1 1966   4.354   3.835   4.731 -0.5547 -0.5316  0.6840
  590SOL    HW2 1967   4.435   3.787   4.849  1.0904  1.3176  0.3469
  591SOL     OW 1968   2.535   0.112   4.414  0.7499  0.3986 -0.5279
  591SOL    HW1 1969   2.440   0.109   4.428  0.8361 -1.1185 -0.1031
  591SOL    HW2 1970   2.544   0.124   4.319  0.0804 -2.0719 -0.9869
  592SOL     OW 1971   4.894   1.006   3.821 -0.2087 -0.0337  0.4386
  592SOL    HW1 1972   4.929   0.956   3.747  1.1350  0.4907  0.6854
  592SOL    HW2 1973   4.963   1.002   3.888 -0.5894  1.1062  0.9327
  593SOL     OW 1974   0.871   3.988   1.545 -0.1935  0.3907 -0.4397
  593SOL    HW1 1975   0.947   4.023   1.499 -0.2573  0.4887 -0.4704
  593SOL    HW2 1976   0.799   4.045   1.520 -0.1761  0.6059 -0.0117
  594SOL     OW 1977   1.802   4.537   1.377  0.1126 -0.0040  0.2460
  594SOL    HW1 1978   1.741   4.610   1.385  1.3744  1.4287 -2.1114
  594SOL    HW2 1979   1.885   4.578   1.351  0.9378 -2.2661 -0.9363
  595SOL     OW 1980   0.505   3.397   1.272 -0.0228 -0.2364 -0.5966
  595SOL    HW1 1981   0.497   3.488   1.303  1.7770 -0.1292 -0.3476
  595SOL    HW2 1982   0.560   3.354   1.338 -1.4991 -1.7580 -0.2833
  596SOL     OW 1983   1.487   2.393   4.333 -0.4916  0.6529 -0.3685
  596SOL    HW1 1984   1.428   2.421   4.262 -2.1297 -1.9931 -0.1824
  596SOL    HW2 1985   1.573   2.388   4.292 -0.8099  2.1642 -1.3168
  597SOL     OW 1986   0.634   0.962   0.275 -0.1762  0.0191 -0.1058
  597SOL    HW1 1987   0.613   1.020   0.202 -3.8333  0.9733  1.4769
  597SOL    HW2 1988   0.601   0.876   0.249  1.4065 -0.4274 -0.7559
  598SOL     OW 1989   3.698   4.046   1.227 -0.1060 -0.3503 -0.3237
  598SOL    HW1 1990   3.706   4.012   1.138  0.5199 -1.5038  0.1432
  598SOL    HW2 1991   3.766   3.999   1.276 -0.8497 -0.1973  0.8855
  599SOL     OW 1992   3.659   2.272   0.160 -0.0450 -0.4603 -0.1958
  599SOL    HW1 1993   3.740   2.311   0.128 -1.0248  0.1318 -2.1286
  599SOL    HW2 1994   3.621   2.229   0.083 -2.5924  1.0974  0.0467
  600SOL     OW 1995   1.147   1.630   4.888 -0.0417 -0.1321 -0.6831
  600SOL    HW1 1996   1.156   1.689   4.963  0.0751  1.6645 -2.0357
  600SOL    HW2 1997   1.057   1.642   4.858 -0.6361 -2.1193  0.1186
  601SOL     OW 1998   3.051   3.806   0.511  0.2915  0.5848 -0.4389
  601SOL    HW1 1999   3.104   3.726   0.512  2.0792  1.7196  0.7484
  601SOL    HW2 2000   3.086   3.860   0.582 -3.1402  1.0278  1.1484
  602SOL     OW 2001   3.939   0.649   3.177 -0.4795 -0.0887 -0.2740
  602SOL    HW1 2002   3.965   0.710   3.246  0.2252  0.2549 -0.8344
  602SOL    HW2 2003   3.845   0.635   3.192 -0.1420 -0.8687  1.4171
  603SOL     OW 2004   1.202   1.325   4.403  0.0788  0.3804 -0.3145
  603SOL    HW1 2005   1.178   1.410   4.367 -0.7650  0.7731  1.0567
  603SOL    HW2 2006   1.173   1.262   4.338 -0.2908  1.1037 -0.8623
  604SOL     OW 2007   2.782   0.632   1.800  0.1312 -0.4745 -0.0944
  604SOL    HW1 2008   2.750   0.702   1.743 -2.2087  0.3065  1.9419
  604SOL    HW2 2009   2.832   0.678   1.868 -0.2095 -0.9241  0.4715
  605SOL     OW 2010   1.688   3.029   4.869  0.5683  0.2600 -0.1435
  605SOL    HW1 2011   1.655   3.103   4.818  3.0156  0.8503 -0.9943
  605SOL    HW2 2012   1.677   3.055   4.960  0.4720  1.2292 -0.4255
  606SOL     OW 2013   2.439   2.523   3.687 -0.5937 -0.4810 -0.3961
  606SOL    HW1 2014   2.464   2.477   3.768 -0.5486  0.8970  0.4091
  606SOL    HW2 2015   2.348   2.497   3.672 -0.3526 -1.3688 -0.3444
  607SOL     OW 2016   3.930   2.542   0.789  0.3354 -0.2063 -0.3854
  607SOL    HW1 2017   4.014   2.572   0.826  0.0645  0.6725 -0.4848
  607SOL    HW2 2018   3.882   2.622   0.769  0.4029 -0.6355 -2.5355
  608SOL     OW 2019   4.450   2.473   0.433  0.1339 -0.6033  0.0711
  608SOL    HW1 2020   4.363   2.504   0.458  1.4478  1.4756  2.4495
  608SOL    HW2 2021   4.458   2.388   0.477  0.0312  0.1148  1.5210
  609SOL     OW 2022   3.951   3.182   4.909 -0.1042  0.3642  0.5330
  609SOL    HW1 2023   3.938   3.255   4.970  0.5796  0.5258  0.4915
  609SOL    HW2 2024   3.863   3.148   4.893 -0.2637  0.1421  1.8211
  610SOL     OW 2025   0.072   3.047   2.803 -0.1885  0.1191 -0.3244
  610SOL    HW1 2026   0.004   2.980   2.807  0.9679 -1.1230 -0.7926
  610SOL    HW2 2027   0.105   3.052   2.893 -0.8958  0.7580 -0.0854
  611SOL     OW 2028   3.925   4.394   0.491 -0.1566  0.4529 -0.0984
  611SOL    HW1 2029   3.833   4.402   0.517  0.0992  3.2061  0.2966
  611SOL    HW2 2030   3.953   4.311   0.529 -2.0078  0.4227  1.3691
  612SOL     OW 2031   3.214   0.432   0.868  0.2006 -0.1430  0.8687
  612SOL    HW1 2032   3.231   0.496   0.798  0.0277 -0.4397  0.5531
  612SOL    HW2 2033   3.119   0.434   0.878  0.2533  0.1415  1.3289
  613SOL     OW 2034   0.581   1.681   4.260 -0.2660 -0.3163 -0.1107
  613SOL    HW1 2035   0.621   1.768   4.260  1.8032 -1.2078 -0.4704
  613SOL    HW2 2036   0.502   1.691   4.314 -0.7723  2.0521 -1.1634
  614SOL     OW 2037   2.154   2.764   3.890  0.3282 -0.4052 -0.2034
  614SOL    HW1 2038   2.106   2.839   3.855  0.6969 -0.1207 -0.0969
  614SOL    HW2 2039   2.185   2.793   3.976  1.9739 -0.0538 -0.8924
  615SOL     OW 2040   2.755   1.563   2.266  0.0498  0.4831  0.4567
  615SOL    HW1 2041   2.848   1.576   2.284  0.7905 -1.2621 -1.6288
  615SOL    HW2 2042   2.740   1.612   2.185 -1.4821  2.5735  1.8876
  616SOL     OW 2043   2.724   3.897   1.773  0.3352 -1.0059  0.0680
  616SOL    HW1 2044   2.782   3.825   1.796 -0.6084 -0.8869  3.3376
  616SOL    HW2 2045   2.685   3.871   1.690 -0.1269 -4.3911  1.1861
  617SOL     OW 2046   2.276   3.306   0.871 -0.5972  0.1457  0.4083
  617SOL    HW1 2047   2.277   3.344   0.959 -0.7672  0.8429  0.1219
  617SOL    HW2 2048   2.360   3.331   0.833  0.1439 -1.4978  0.9084
  618SOL     OW 2049   1.666   0.651   0.125 -0.3247  0.6021 -0.0847
  618SOL    HW1 2050   1.719   0.698   0.189  1.7648  0.0218 -1.2864
  618SOL    HW2 2051   1.686   0.693   0.041  0.0485 -1.0827 -0.8898
  619SOL     OW 2052   0.857   2.534   1.961  0.1224  0.0420 -0.1093
  619SOL    HW1 2053   0.830   2.604   1.901  0.0256 -0.3929 -0.5787
  619SOL    HW2 2054   0.810   2.554   2.043 -1.2232 -0.3855 -0.7421
  620SOL     OW 2055   2.699   3.828   4.538  0.0796 -0.1286  0.2275
  620SOL    HW1 2056   2.759   3.833   4.463  1.0441 -0.8655  0.9093
  620SOL    HW2 2057   2.644   3.753   4.519  1.1407 -1.0876  0.7893
  621SOL     OW 2058   1.150   4.810   1.558  0.2448  0.3286  1.1296
  621SOL    HW1 2059   1.066   4.828   1.599  0.6881  2.7500  1.1465
  621SOL    HW2 2060   1.145   4.854   1.473  1.2147 -0.1378  0.8122
  622SOL     OW 2061   2.729   4.393   3.410 -0.0579  0.1429 -0.4610
  622SOL    HW1 2062   2.785   4.391   3.333  0.4403 -0.8594 -0.0923
  622SOL    HW2 2063   2.682   4.309   3.408  1.2870 -0.7200  1.2644
  623SOL     OW 2064   4.193   4.226   3.650  0.2699 -0.1755  0.1533
  623SOL    HW1 2065   4.186   4.195   3.560 -0.4714 -0.5817  0.3382
  623SOL    HW2 2066   4.240   4.309   3.643  0.7575 -0.5016 -0.5366
  624SOL     OW 2067   1.135   0.790   4.701 -0.5140 -0.1353 -0.2957
  624SOL    HW1 2068   1.090   0.714   4.737 -1.1294 -0.8335 -2.3670
  624SOL    HW2 2069   1.226   0.763   4.692 -0.3009  0.1429  0.9293
  625SOL     OW 2070   3.546   2.688   0.737  0.2971 -0.5121 -0.3016
  625SOL    HW1 2071   3.503   2.711   0.820 -0.1790  0.5133 -0.8091
  625SOL    HW2 2072   3.481   2.709   0.670  1.6844  1.4201 -1.1208
  626SOL     OW 2073   0.197   3.193   4.838  0.4805  0.2782  0.2683
  626SOL    HW1 2074   0.253   3.154   4.771  0.2797 -1.7469  1.1908
  626SOL    HW2 2075   0.130   3.241   4.789  1.4260  0.4311 -0.9062
  627SOL     OW 2076   4.865   1.631   4.133 -0.4408 -0.7871 -0.0740
  627SOL    HW1 2077   4.826   1.614   4.218 -0.6598 -1.1507 -0.2440
  627SOL    HW2 2078   4.812   1.580   4.071 -0.6101 -0.1194 -0.4976
  628SOL     OW 2079   2.427   4.241   0.591  0.3103 -0.0781  0.3345
  628SOL    HW1 2080   2.358   4.288   0.636  0.6868  0.0390  0.8014
  628SOL    HW2 2081   2.381   4.183   0.530 -0.2341 -0.5634  1.1802
  629SOL     OW 2082   1.748   0.868   4.345 -0.2536 -0.0219  0.0068
  629SOL    HW1 2083   1.726   0.874   4.438 -1.9056 -1.8666 -0.1989
  629SOL    HW2 2084   1.834   0.827   4.344 -0.8304 -1.3268  0.7370
  630SOL     OW 2085   3.793   0.669   0.790 -0.2951 -0.4897 -0.0103
  630SOL    HW1 2086   3.806   0.642   0.699 -0.7568 -1.1799  0.1245
  630SOL    HW2 2087   3.858   0.738   0.804  2.1477 -2.6514  0.1267
  631SOL     OW 2088   4.617   1.804   3.759  0.7090 -0.2533 -0.5682
  631SOL    HW1 2089   4.603   1.819   3.666 -3.5720  1.1537  0.0643
  631SOL    HW2 2090   4.565   1.726   3.779 -0.9207  1.1475  1.0181
  632SOL     OW 2091   4.224   2.602   3.847 -0.3490 -0.4069 -0.5537
  632SOL    HW1 2092   4.137   2.570   3.825 -0.7953  1.6922 -2.2644
  632SOL    HW2 2093   4.270   2.603   3.763  0.7977  0.0124  0.0604
  633SOL     OW 2094   2.600   3.634   3.801  0.2060  0.5094  0.1439
  633SOL    HW1 2095   2.646   3.568   3.852 -1.1838  0.0262  0.8190
  633SOL    HW2 2096   2.511   3.635   3.837  0.1992  2.8127  0.2273
  634SOL     OW 2097   0.542   3.424   0.784  0.0325 -0.2650 -0.4180
  634SOL    HW1 2098   0.561   3.384   0.869  0.2912 -0.7961 -0.7198
  634SOL    HW2 2099   0.455   3.464   0.795 -0.2959 -1.0352 -0.1490
  635SOL     OW 2100   3.456   1.640   3.141  0.1678 -0.2615  0.2722
  635SOL    HW1 2101   3.419   1.663   3.226 -0.5091 -0.3368 -0.0020
  635SOL    HW2 2102   3.506   1.717   3.115 -0.5255  0.1817  0.2364
  636SOL     OW 2103   2.801   2.419   0.483  0.4124 -0.1216 -0.5350
  636SOL    HW1 2104   2.823   2.410   0.390 -1.0224 -0.6634 -0.8497
  636SOL    HW2 2105   2.821   2.333   0.520 -2.0880 -0.9909 -1.0568
  637SOL     OW 2106   4.445   1.553   3.524  0.2310 -0.1219  0.4373
  637SOL    HW1 2107   4.383   1.484   3.546  0.6289 -0.7096 -0.2481
  637SOL    HW2 2108   4.467   1.538   3.433  1.2350  0.1940  0.6111
  638SOL     OW 2109   4.663   2.269   1.198 -0.1544  0.1831 -0.1167
  638SOL    HW1 2110   4.727   2.251   1.130  0.1927  0.7421  0.0560
  638SOL    HW2 2111   4.615   2.345   1.167 -1.1413 -0.5882 -0.5193
  639SOL     OW 2112   1.204   0.537   0.125 -0.0498 -0.4613  0.5624
  639SOL    HW1 2113   1.281   0.578   0.165 -0.7714 -0.0941  1.6195
  639SOL    HW2 2114   1.185   0.462   0.181 -0.2944 -0.7231  0.1328
  640SOL     OW 2115   4.050   2.188   1.519  0.3903  0.3268  0.8784
  640SOL    HW1 2116   4.139   2.220   1.504  1.3702 -1.2450  2.9305
  640SOL    HW2 2117   4.016   2.243   1.590 -0.7811  1.6742 -0.6364
  641SOL     OW 2118   0.566   4.079   3.579  0.4768 -0.1036 -0.2144
  641SOL    HW1 2119   0.621   4.096   3.502 -0.3781 -3.0332 -1.5941
  641SOL    HW2 2120   0.526   3.994   3.562  0.2365 -0.8999  3.5084
  642SOL     OW 2121   2.522   0.023   3.808 -0.2098 -0.4616 -0.1830
  642SOL    HW1 2122   2.557  -0.058   3.844 -1.0874 -0.5056  0.6399
  642SOL    HW2 2123   2.506   0.005   3.716  0.5220 -0.9043 -0.2220
  643SOL     OW 2124   4.349   2.857   0.702 -0.3446 -0.6208  0.3480
  643SOL    HW1 2125   4.417   2.822   0.643  0.4709  0.8028  0.3914
  643SOL    HW2 2126   4.377   2.829   0.789 -1.1050 -2.0190  0.1780
  644SOL     OW 2127   1.819   2.828   0.868  0.1179  0.2883  0.5223
  644SOL    HW1 2128   1.763   2.894   0.909 -3.8713 -1.8675 -0.9135
  644SOL    HW2 2129   1.856   2.872   0.791 -3.3596  0.7747 -1.0638
  645SOL     OW 2130   0.074   2.020   2.793 -0.7261  0.2598 -0.6783
  645SOL    HW1 2131  -0.020   2.009   2.805 -1.1255  2.1775 -1.7514
  645SOL    HW2 2132   0.083   2.097   2.736  1.5316  1.0553  0.6212
  646SOL     OW 2133   1.158   3.720   1.354 -0.6191 -0.1693 -0.1077
  646SOL    HW1 2134   1.247   3.690   1.335 -0.8818 -0.5102 -0.8019
  646SOL    HW2 2135   1.145   3.794   1.295 -0.0679  1.2243  1.4107
  647SOL     OW 2136   2.679   0.382   3.823  0.2896  0.3614 -0.1464
  647SOL    HW1 2137   2.724   0.453   3.868 -0.1718  0.1804  0.6031
  647SOL    HW2 2138   2.664   0.316   3.890 -0.7206  0.2410 -0.4779
  648SOL     OW 2139   3.738   3.364   4.301 -0.8381  0.1256 -0.0101
  648SOL    HW1 2140   3.825   3.379   4.264 -0.0617 -0.8958  1.2903
  648SOL    HW2 2141   3.679   3.417   4.248  0.4674  0.2021 -1.4372
  649SOL     OW 2142   2.609   0.597   0.076 -0.1468 -0.3141 -0.5553
  649SOL    HW1 2143   2.542   0.530   0.090 -0.6805  0.3652  0.3474
  649SOL    HW2 2144   2.692   0.552   0.088 -0.5068 -0.3488  2.8266
  650SOL     OW 2145   2.714   2.903   1.369  0.2639 -0.3255 -0.4122
  650SOL    HW1 2146   2.714   2.917   1.464  1.7879  0.1635 -0.4629
  650SOL    HW2 2147   2.747   2.986   1.333 -1.5823 -0.0051 -1.4728
  651SOL     OW 2148   4.626   4.649   2.601 -0.2749  0.6017  0.5849
  651SOL    HW1 2149   4.599   4.663   2.510  1.7151  0.1759 -0.1362
  651SOL    HW2 2150   4.572   4.576   2.631 -1.3807  1.1406 -0.0448
  652SOL     OW 2151   4.943   0.390   0.641 -0.0949 -0.0328 -0.1616
  652SOL    HW1 2152   4.966   0.460   0.580 -1.5115  1.6605  1.1380
  652SOL    HW2 2153   4.994   0.408   0.719 -1.9122  0.8035  0.9056
  653SOL     OW 2154   0.021   1.614   3.091 -0.5592  0.1852 -0.1821
  653SOL    HW1 2155  -0.073   1.630   3.098 -0.9707 -2.0473  0.3954
  653SOL    HW2 2156   0.050   1.600   3.181 -0.2030 -1.4719 -0.5112
  654SOL     OW 2157   4.056   0.251   1.725 -0.7718  0.4579  0.2871
  654SOL    HW1 2158   4.133   0.224   1.676 -0.8261  2.8938 -1.3492
  654SOL    HW2 2159   4.091   0.301   1.799 -0.7398 -2.1313  2.1700
  655SOL     OW 2160   0.806   0.173   1.010  0.5115  0.4785  0.5665
  655SOL    HW1 2161   0.796   0.232   1.084 -0.1896 -0.4622  1.2469
  655SOL    HW2 2162   0.761   0.092   1.037  1.5263 -0.4080 -0.2804
  656SOL     OW 2163   3.285   1.409   3.071  0.2028 -0.1203 -0.2652
  656SOL    HW1 2164   3.338   1.488   3.081 -0.0205 -0.0730  0.5413
  656SOL    HW2 2165   3.275   1.400   2.976  0.7886  0.4433 -0.3907
  657SOL     OW 2166   1.856   1.761   4.741 -0.0459  0.5509 -0.3355
  657SOL    HW1 2167   1.799   1.698   4.697  0.4602  0.7264 -1.2663
  657SOL    HW2 2168   1.809   1.785   4.821 -0.9510  0.1778 -0.7476
  658SOL     OW 2169   4.254   3.162   3.480  0.3540  0.1211  0.2853
  658SOL    HW1 2170   4.307   3.172   3.559 -0.2904 -1.5124  0.9607
  658SOL    HW2 2171   4.307   3.201   3.411  0.7874  1.9162  1.5484
  659SOL     OW 2172   3.978   2.168   1.976  0.4187  0.2321  0.0982
  659SOL    HW1 2173   4.059   2.170   1.925  0.9326 -0.1354  0.8927
  659SOL    HW2 2174   3.995   2.223   2.052  0.9986 -2.1687  1.8015
  660SOL     OW 2175   3.433   4.377   0.971 -0.4740 -0.0828 -0.2571
  660SOL    HW1 2176   3.523   4.373   0.938 -0.4142 -1.3944 -0.0188
  660SOL    HW2 2177   3.437   4.331   1.055 -0.7770  2.4897  1.2458
  661SOL     OW 2178   3.835   0.206   4.033 -0.0840 -0.4290  0.6230
  661SOL    HW1 2179   3.854   0.113   4.044  0.1625 -0.3626  0.7598
  661SOL    HW2 2180   3.886   0.250   4.101 -0.9032 -0.2640  1.1513
  662SOL     OW 2181   3.355   3.186   1.192 -0.3271 -0.0441 -0.5089
  662SOL    HW1 2182   3.406   3.256   1.151 -0.4253  0.3702  0.0482
  662SOL    HW2 2183   3.418   3.143   1.250 -0.6693  0.6828  0.4352
  663SOL     OW 2184   0.052   3.165   2.226 -0.5290 -0.0357 -0.1207
  663SOL    HW1 2185   0.043   3.119   2.310  0.7418 -1.1869 -0.5726
  663SOL    HW2 2186   0.035   3.098   2.160  2.8118 -0.3720 -0.8277
  664SOL     OW 2187   0.500   1.361   0.666  0.1276  0.0996  0.0986
  664SOL    HW1 2188   0.492   1.374   0.571  0.0768  0.1180  0.1054
  664SOL    HW2 2189   0.437   1.291   0.686 -1.0374  1.1858  0.3658
  665SOL     OW 2190   0.241   0.737   2.597  0.4421 -0.2485 -0.7082
  665SOL    HW1 2191   0.198   0.755   2.514 -1.6769  0.4868  0.4971
  665SOL    HW2 2192   0.261   0.643   2.593 -1.6371 -0.7168 -1.1850
  666SOL     OW 2193   1.917   2.163   0.075  0.1862  0.0867 -0.0875
  666SOL    HW1 2194   1.932   2.093   0.139 -1.8000 -0.1276  0.2150
  666SOL    HW2 2195   1.985   2.150   0.009  0.3939 -1.6169  0.4089
  667SOL     OW 2196   0.301   0.454   1.059  0.8484  0.0988  0.2097
  667SOL    HW1 2197   0.321   0.532   1.111  1.3092 -1.0987  1.8739
  667SOL    HW2 2198   0.386   0.423   1.028  0.7500 -0.2597  0.2984
  668SOL     OW 2199   0.143   3.780   4.892 -0.0280  0.1636  0.1745
  668SOL    HW1 2200   0.064   3.775   4.837 -0.1226 -0.4093  0.3522
  668SOL    HW2 2201   0.173   3.870   4.883 -0.2409  0.1694 -0.5448
  669SOL     OW 2202   0.559   1.078   2.856 -0.0040  0.6182 -0.0108
  669SOL    HW1 2203   0.579   1.073   2.762  0.8278  1.1041  0.1291
  669SOL    HW2 2204   0.637   1.045   2.899 -1.3246 -2.1441  0.5148
  670SOL     OW 2205   0.039   4.880   4.710  1.0777  0.4468  0.0601
  670SOL    HW1 2206  -0.036   4.822   4.721  0.8748  0.6785 -0.0888
  670SOL    HW2 2207   0.043   4.929   4.793  1.2014  0.2762  0.1552
  671SOL     OW 2208   4.831   2.460   1.379  0.2439  0.1169  0.3206
  671SOL    HW1 2209   4.856   2.542   1.337  0.6914 -0.5166 -0.6906
  671SOL    HW2 2210   4.768   2.421   1.319  1.0657 -0.9170  0.0960
  672SOL     OW 2211   2.529   3.654   4.935 -0.5871 -0.2559  0.0190
  672SOL    HW1 2212   2.564   3.722   4.877 -0.9735 -0.0201  0.0593
  672SOL    HW2 2213   2.476   3.702   4.999  1.9370 -0.2012  2.2476
  673SOL     OW 2214   1.858   2.015   1.195  0.4315  0.8396  0.6745
  673SOL    HW1 2215   1.945   2.043   1.169 -0.0758  0.3332 -1.8288
  673SOL    HW2 2216   1.856   1.921   1.174 -0.2399  0.4848  2.1561
  674SOL     OW 2217   3.219   2.382   2.464  0.1300  0.1219 -0.0844
  674SOL    HW1 2218   3.297   2.337   2.496 -0.3701  0.5160  1.7874
  674SOL    HW2 2219   3.173   2.315   2.412  1.4472 -0.2480 -0.8333
  675SOL     OW 2220   4.521   1.172   3.791 -0.1126  0.2574  0.2894
  675SOL    HW1 2221   4.513   1.099   3.853 -0.9462 -0.5719 -0.7538
  675SOL    HW2 2222   4.442   1.224   3.805  0.5084  1.0371  1.0726
  676SOL     OW 2223   2.248   2.092   4.083  0.3750 -0.1148 -0.7395
  676SOL    HW1 2224   2.283   2.164   4.030 -1.2172  1.1916 -0.0938
  676SOL    HW2 2225   2.325   2.043   4.109  1.6518  1.9475 -0.3696
  677SOL     OW 2226   0.522   4.919   3.714 -0.0162 -0.2155 -0.0015
  677SOL    HW1 2227   0.477   4.955   3.638  1.0557  0.8202 -0.1754
  677SOL    HW2 2228   0.589   4.861   3.677  0.5877  0.3824  0.1193
  678SOL     OW 2229   4.267   0.523   2.401  0.5548  0.1095  0.0036
  678SOL    HW1 2230   4.267   0.429   2.381 -0.6447 -0.4803  2.3554
  678SOL    HW2 2231   4.214   0.563   2.332 -0.1061 -1.1717 -0.2594
  679SOL     OW 2232   3.446   0.754   1.727 -1.1090  0.3713 -0.5040
  679SOL    HW1 2233   3.437   0.684   1.662  0.3781 -0.5971  0.2745
  679SOL    HW2 2234   3.530   0.794   1.708 -0.2604 -0.4545  1.2676
  680SOL     OW 2235   1.595   0.957   3.967 -0.2189  0.4005  0.2488
  680SOL    HW1 2236   1.503   0.958   3.939  0.0644  0.1512 -0.6852
  680SOL    HW2 2237   1.592   0.994   4.056 -1.7850 -3.5255  2.0634
  681SOL     OW 2238   3.942   0.711   2.914  0.4687  0.0761 -0.0736
  681SOL    HW1 2239   3.985   0.633   2.878  2.3886  0.7469  0.6259
  681SOL    HW2 2240   3.924   0.689   3.005  0.4600  0.2525 -0.0328
  682SOL     OW 2241   4.102   2.010   0.146 -0.3070 -0.0441  0.1300
  682SOL    HW1 2242   4.122   1.919   0.126  0.2403  0.0812  0.1067
  682SOL    HW2 2243   4.103   2.055   0.061 -1.8138 -0.2418 -0.0210
  683SOL     OW 2244   0.731   1.098   2.031  0.2486  0.4321 -0.3596
  683SOL    HW1 2245   0.721   1.003   2.041  0.9666  0.6145  4.8166
  683SOL    HW2 2246   0.641   1.131   2.030 -0.2379 -0.1919  3.8500
  684SOL     OW 2247   4.873   3.156   3.873 -0.5145 -0.1704  0.3193
  684SOL    HW1 2248   4.950   3.099   3.873  0.5207  1.0882  2.2240
  684SOL    HW2 2249   4.909   3.245   3.871 -1.8037  0.4810  2.4117
  685SOL     OW 2250   2.568   1.591   4.358 -0.1516 -0.6454 -0.0663
  685SOL    HW1 2251   2.645   1.583   4.302  1.3400  1.5328  1.5392
  685SOL    HW2 2252   2.527   1.673   4.331 -2.1247 -1.8656 -1.0383
  686SOL     OW 2253   1.433   1.785   0.950  0.4847  0.2214  0.3752
  686SOL    HW1 2254   1.503   1.817   0.894  2.4460 -1.1542  1.8998
  686SOL    HW2 2255   1.447   1.690   0.955 -2.2270 -0.2839 -0.2047
  687SOL     OW 2256   1.473   4.824   0.107 -0.4741  0.6133 -0.1963
  687SOL    HW1 2257   1.427   4.903   0.077 -0.0126  0.6886 -0.7257
  687SOL    HW2 2258   1.566   4.847   0.099 -0.3410  0.3119  0.4497
  688SOL     OW 2259   4.237   1.213   2.963  0.6353  0.4492 -0.4603
  688SOL    HW1 2260   4.308   1.178   3.017  1.8197  0.6489 -1.8288
  688SOL    HW2 2261   4.174   1.248   3.026  2.6668  2.0591  0.8238
  689SOL     OW 2262   2.905   3.315   3.834  0.3688 -0.1902 -0.7631
  689SOL    HW1 2263   2.833   3.337   3.893  0.2931 -1.3699 -0.3817
  689SOL    HW2 2264   2.870   3.246   3.778  1.3443 -1.1346 -0.2389
  690SOL     OW 2265   4.618   4.695   0.798  0.2035  0.1635 -0.6955
  690SOL    HW1 2266   4.607   4.722   0.889  1.1262  1.2197 -0.8781
  690SOL    HW2 2267   4.695   4.637   0.800  0.9467  1.1103 -0.9507
  691SOL     OW 2268   3.129   4.905   3.379  0.1146 -0.1391  0.3179
  691SOL    HW1 2269   3.112   4.923   3.286  1.4271 -1.0569 -0.1339
  691SOL    HW2 2270   3.078   4.826   3.397 -0.2732  0.1337  0.4415
  692SOL     OW 2271   2.388   3.407   3.550  0.1466 -0.1172 -0.3066
  692SOL    HW1 2272   2.318   3.466   3.578  1.2288  0.5489  1.1777
  692SOL    HW2 2273   2.408   3.435   3.460 -0.7444  0.4055 -0.3555
  693SOL     OW 2274   0.689   2.615   2.160 -0.1790  0.1110  0.4553
  693SOL    HW1 2275   0.613   2.651   2.113  0.3514  0.0853 -0.4611
  693SOL    HW2 2276   0.659   2.604   2.250 -0.6111  2.0843  0.5931
  694SOL     OW 2277   0.578   0.448   2.748  0.5042 -0.1333  0.2197
  694SOL    HW1 2278   0.625   0.391   2.688 -1.9375 -0.6641 -1.3339
  694SOL    HW2 2279   0.490   0.455   2.711  0.1268  3.1072  1.3926
  695SOL     OW 2280   1.525   3.709   2.520 -0.3126  0.1696  0.3099
  695SOL    HW1 2281   1.517   3.639   2.584 -0.5529  0.6893  0.8631
  695SOL    HW2 2282   1.436   3.725   2.490  0.0221 -1.7311 -2.0263
  696SOL     OW 2283   1.488   1.499   1.805  0.0629 -0.1616 -0.0378
  696SOL    HW1 2284   1.479   1.476   1.713  3.0381 -1.8651 -0.0232
  696SOL    HW2 2285   1.410   1.463   1.847 -0.5368 -0.8035 -1.6325
  697SOL     OW 2286   2.923   4.349   3.178 -0.0526 -0.1648 -0.1336
  697SOL    HW1 2287   2.861   4.355   3.105 -1.5418 -1.7186  0.9391
  697SOL    HW2 2288   2.947   4.257   3.182 -3.4180 -1.1966  3.9050
  698SOL     OW 2289   4.726   3.880   3.891 -0.8301 -0.9972 -0.0818
  698SOL    HW1 2290   4.722   3.827   3.811 -0.9820 -1.5367  0.2753
  698SOL    HW2 2291   4.659   3.947   3.879  0.6900  0.3716 -1.4016
  699SOL     OW 2292   1.819   1.597   4.133  0.1834  0.3900  0.3245
  699SOL    HW1 2293   1.804   1.661   4.064 -0.7814  0.3434  0.4789
  699SOL    HW2 2294   1.865   1.525   4.090  0.3553  0.7342 -0.0735
  700SOL     OW 2295   4.513   2.236   1.564 -0.2081  0.0532 -0.7147
  700SOL    HW1 2296   4.531   2.146   1.538  1.2243  0.0067  0.2893
  700SOL    HW2 2297   4.555   2.245   1.650  1.4610  2.2166 -1.6410
  701SOL     OW 2298   2.205   4.558   4.875  0.0454 -0.5227 -0.7489
  701SOL    HW1 2299   2.218   4.571   4.781  0.6874 -2.0433 -0.9033
  701SOL    HW2 2300   2.115   4.527   4.883  0.1660 -0.9318 -0.9361
  702SOL     OW 2301   4.519   2.014   3.224  0.2680  0.3704  0.2800
  702SOL    HW1 2302   4.536   1.970   3.141  2.6298  0.4348  0.6794
  702SOL    HW2 2303   4.461   1.953   3.271  0.5283 -0.6003 -0.6121
  703SOL     OW 2304   4.738   1.256   3.660 -0.3596  0.1861  0.0568
  703SOL    HW1 2305   4.700   1.343   3.676  0.0017  0.3087  0.2729
  703SOL    HW2 2306   4.674   1.195   3.697 -1.0018  0.3140 -0.8229
  704SOL     OW 2307   3.998   3.486   3.492  0.2827  0.3787  0.5492
  704SOL    HW1 2308   3.980   3.428   3.566 -1.3227  1.3667  0.9993
  704SOL    HW2 2309   4.021   3.570   3.533  0.0540  0.7465 -0.0564
  705SOL     OW 2310   2.055   4.318   3.242  0.2404 -0.2781  0.0140
  705SOL    HW1 2311   2.101   4.353   3.319 -0.2213 -1.8475  1.0413
  705SOL    HW2 2312   2.069   4.224   3.246 -1.5818 -0.6206 -0.6051
  706SOL     OW 2313   0.664   0.166   1.715  0.3072  0.2584  0.1241
  706SOL    HW1 2314   0.740   0.114   1.689  0.7798  1.6071 -1.3405
  706SOL    HW2 2315   0.636   0.210   1.635 -0.5514  1.6298  1.1338
  707SOL     OW 2316   4.089   2.086   3.845  0.6269  0.2763  0.0022
  707SOL    HW1 2317   4.065   2.145   3.773 -0.8952  0.2644  0.4560
  707SOL    HW2 2318   4.080   2.140   3.923 -0.4309 -0.4272  0.3924
  708SOL     OW 2319   4.532   0.718   1.791 -0.5113 -0.2002 -0.1437
  708SOL    HW1 2320   4.585   0.790   1.824  0.6377 -1.2683  0.4152
  708SOL    HW2 2321   4.448   0.759   1.768 -0.0953  1.2013  0.6968
  709SOL     OW 2322   0.169   1.400   4.345 -0.0148 -0.8952  0.2997
  709SOL    HW1 2323   0.085   1.446   4.341  0.1242 -0.6840 -0.3220
  709SOL    HW2 2324   0.196   1.406   4.437 -0.6860 -0.9862  0.5089
  710SOL     OW 2325   1.560   1.784   3.220  0.2161  0.1979 -0.4431
  710SOL    HW1 2326   1.541   1.698   3.183  1.7906 -0.2745 -0.2262
  710SOL    HW2 2327   1.626   1.822   3.162  0.0074  1.0015 -0.1743
  711SOL     OW 2328   1.921   0.316   2.749 -0.1829 -0.6121 -0.2898
  711SOL    HW1 2329   1.919   0.221   2.738 -0.1489 -0.7027  0.4682
  711SOL    HW2 2330   1.986   0.346   2.685  0.7778 -1.2309  0.3801
  712SOL     OW 2331   4.397   2.280   0.967 -0.0398 -0.3420 -0.5210
  712SOL    HW1 2332   4.468   2.334   0.932  1.2064 -0.6302  1.3980
  712SOL    HW2 2333   4.324   2.341   0.979  0.8221  0.6070  0.1175
  713SOL     OW 2334   4.473   2.091   1.262  0.2739  0.9487  0.2192
  713SOL    HW1 2335   4.549   2.147   1.248 -0.0097  1.8525  2.0468
  713SOL    HW2 2336   4.404   2.151   1.289 -1.0553  0.1114 -1.1534
  714SOL     OW 2337   3.810   0.484   1.292 -0.0372 -0.2936  0.6254
  714SOL    HW1 2338   3.758   0.512   1.216 -0.5995 -0.1930  1.0370
  714SOL    HW2 2339   3.898   0.469   1.257 -0.6471 -1.8366 -0.3724
  715SOL     OW 2340   1.260   2.342   0.580  1.0260  0.0682  0.3082
  715SOL    HW1 2341   1.349   2.367   0.604  1.5799 -0.3570 -1.1651
  715SOL    HW2 2342   1.271   2.262   0.528 -0.0575  0.8880 -1.2748
  716SOL     OW 2343   4.235   4.760   0.914  0.3937 -0.1419 -0.1972
  716SOL    HW1 2344   4.251   4.705   0.837 -0.6666 -1.0388  0.1908
  716SOL    HW2 2345   4.171   4.711   0.965 -1.0782  1.7529 -0.1259
  717SOL     OW 2346   0.005   0.018   0.927  0.0678  0.1286  0.0777
  717SOL    HW1 2347   0.007   0.027   0.832  0.0068  0.9528  0.1511
  717SOL    HW2 2348   0.055   0.092   0.960  1.4062 -0.9862  0.6569
  718SOL     OW 2349   4.707   3.810   4.165 -0.0633  0.5634 -0.6691
  718SOL    HW1 2350   4.735   3.840   4.079 -0.4153  3.0518 -0.0170
  718SOL    HW2 2351   4.613   3.796   4.156 -0.2360  1.5527 -0.5465
  719SOL     OW 2352   2.348   3.407   4.057  0.1181 -0.7843  0.4996
  719SOL    HW1 2353   2.411   3.344   4.024  1.1317  0.3577  0.1665
  719SOL    HW2 2354   2.265   3.359   4.063  1.3931 -2.8754  2.8163
  720SOL     OW 2355   1.358   2.588   2.930 -0.3291 -0.2333  0.1266
  720SOL    HW1 2356   1.346   2.646   3.005 -0.1994 -0.7596  0.5648
  720SOL    HW2 2357   1.401   2.511   2.967  0.9716  0.0582 -0.7243
  721SOL     OW 2358   1.724   2.734   2.505 -0.8172  0.4048 -0.5014
  721SOL    HW1 2359   1.752   2.777   2.586  0.2521  0.0413 -0.6577
  721SOL    HW2 2360   1.795   2.672   2.485 -1.1663  0.3287 -1.5934
  722SOL     OW 2361   2.878   1.750   2.534  0.1454 -0.2257 -0.2868
  722SOL    HW1 2362   2.827   1.753   2.615 -0.5530 -1.1695 -0.6711
  722SOL    HW2 2363   2.827   1.801   2.471  0.1826 -0.3262 -0.4001
  723SOL     OW 2364   0.631   0.090   2.280 -0.3126 -0.0646  0.1039
  723SOL    HW1 2365   0.625   0.035   2.202 -1.2709  0.8134 -0.4684
  723SOL    HW2 2366   0.679   0.168   2.251 -0.0171 -0.0589  0.5921
  724SOL     OW 2367   4.563   1.606   4.594  0.4309  0.4564 -0.1558
  724SOL    HW1 2368   4.650   1.579   4.562  0.0794 -0.9438  0.0061
  724SOL    HW2 2369   4.502   1.566   4.533 -0.1195  1.4738 -0.2879
  725SOL     OW 2370   4.213   0.261   4.903 -0.1370 -0.0236  0.1666
  725SOL    HW1 2371   4.207   0.167   4.920 -2.8619  0.1303  0.4763
  725SOL    HW2 2372   4.234   0.300   4.988  0.5456 -0.3136  0.1319
  726SOL     OW 2373   3.447   3.707   0.673 -0.7755 -0.2267 -0.1512
  726SOL    HW1 2374   3.437   3.802   0.667  3.1715  0.3359 -0.4574
  726SOL    HW2 2375   3.391   3.672   0.604 -2.5513  1.7751  0.1563
  727SOL     OW 2376   3.251   0.581   2.012 -0.0345 -0.0119  0.6091
  727SOL    HW1 2377   3.220   0.532   2.088 -0.4439 -2.2564 -0.9285
  727SOL    HW2 2378   3.227   0.528   1.936  0.0233  2.3051 -1.1706
  728SOL     OW 2379   2.120   4.545   4.575 -0.3823  0.2560 -0.4827
  728SOL    HW1 2380   2.185   4.486   4.537  1.7097  2.5300 -0.6981
  728SOL    HW2 2381   2.080   4.588   4.499  0.6189  1.5899 -0.2838
  729SOL     OW 2382   2.104   3.327   1.495 -0.3127 -0.0022 -0.1603
  729SOL    HW1 2383   2.111   3.321   1.590  2.1910  0.8587 -0.2169
  729SOL    HW2 2384   2.141   3.244   1.463 -0.5870 -0.0347 -0.3984
  730SOL     OW 2385   3.734   4.566   0.191 -0.6433  0.5042 -0.3586
  730SOL    HW1 2386   3.693   4.578   0.105 -1.2143 -1.0189 -0.3310
  730SOL    HW2 2387   3.755   4.473   0.194 -1.3839  0.3643  1.4852
  731SOL     OW 2388   1.767   4.294   1.486 -0.0361  0.2421 -0.1177
  731SOL    HW1 2389   1.815   4.304   1.568  0.1825 -1.6502  0.0237
  731SOL    HW2 2390   1.777   4.379   1.442  1.8726  0.5049  0.7157
  732SOL     OW 2391   0.349   3.934   1.540 -0.2664  0.6771 -0.2474
  732SOL    HW1 2392   0.310   3.856   1.501 -1.0328  0.3225  1.1748
  732SOL    HW2 2393   0.367   3.909   1.630  0.0352  1.9685  0.0641
  733SOL     OW 2394   3.596   1.667   3.539 -0.1221 -0.2830  0.0246
  733SOL    HW1 2395   3.513   1.676   3.490 -0.0760 -0.4876 -0.0929
  733SOL    HW2 2396   3.644   1.747   3.519 -0.8643  0.4857  1.1988
  734SOL     OW 2397   1.448   2.982   3.324  0.8466  0.7392  0.6776
  734SOL    HW1 2398   1.492   2.909   3.281  1.1590  1.3134 -0.0016
  734SOL    HW2 2399   1.382   2.941   3.380  1.4952 -0.0874  0.8594
  735SOL     OW 2400   0.673   1.957   4.233 -0.4742 -0.5051  0.1164
  735SOL    HW1 2401   0.611   1.967   4.161 -1.1412 -0.1046  0.7380
  735SOL    HW2 2402   0.754   1.997   4.200 -0.4660 -1.2249 -0.7752
  736SOL     OW 2403   2.144   2.457   4.713 -0.1214 -0.0658 -0.8393
  736SOL    HW1 2404   2.065   2.404   4.724 -0.4506  0.3614 -1.1343
  736SOL    HW2 2405   2.200   2.405   4.656 -0.1708 -0.3861 -0.5983
  737SOL     OW 2406   3.725   3.247   1.063  0.0808  0.5127  0.1296
  737SOL    HW1 2407   3.733   3.171   1.005 -0.0122 -0.4458  1.3233
  737SOL    HW2 2408   3.801   3.241   1.121  0.0001  1.2634  0.3176
  738SOL     OW 2409   2.991   3.963   2.864 -0.3712 -0.6249 -0.4611
  738SOL    HW1 2410   2.993   4.050   2.905  0.0027 -0.2646 -1.2323
  738SOL    HW2 2411   3.082   3.942   2.847 -0.4252 -1.3846  0.1534
  739SOL     OW 2412   0.108   1.718   0.543 -0.2068 -0.1386 -0.6191
  739SOL    HW1 2413   0.202   1.738   0.550 -0.0450 -1.2900  1.1893
  739SOL    HW2 2414   0.065   1.791   0.586  0.0783 -1.0223  1.2657
  740SOL     OW 2415   0.963   0.819   2.309  0.1934  0.0377 -0.0584
  740SOL    HW1 2416   0.909   0.898   2.323 -1.6116 -1.0807 -0.3485
  740SOL    HW2 2417   0.980   0.786   2.396 -2.0383 -1.1199  0.0051
  741SOL     OW 2418   3.592   3.561   3.783 -0.3884  0.2068 -0.2363
  741SOL    HW1 2419   3.673   3.605   3.757 -0.6285  0.2458 -0.9587
  741SOL    HW2 2420   3.525   3.600   3.727 -0.9828  0.4828  0.6539
  742SOL     OW 2421   2.388   3.512   0.629  0.3027  0.4549 -0.6404
  742SOL    HW1 2422   2.456   3.526   0.695  0.7802 -0.1232 -1.0097
  742SOL    HW2 2423   2.321   3.577   0.651  1.0538  1.1680 -0.3969
  743SOL     OW 2424   0.357   4.439   1.534 -0.5916  0.4830  0.1885
  743SOL    HW1 2425   0.363   4.488   1.616 -1.7243 -0.4657  0.8584
  743SOL    HW2 2426   0.267   4.453   1.504  0.0418  1.5406 -1.3792
  744SOL     OW 2427   4.577   0.236   1.604 -0.2380  0.0859 -0.3158
  744SOL    HW1 2428   4.643   0.305   1.612  1.7289 -1.7453  0.3115
  744SOL    HW2 2429   4.583   0.208   1.513 -0.0494 -0.1503 -0.2329
  745SOL     OW 2430   1.855   2.441   3.771  0.3447  0.1567 -0.2739
  745SOL    HW1 2431   1.816   2.358   3.796  2.9681 -1.3538 -0.8044
  745SOL    HW2 2432   1.832   2.501   3.843 -0.5150 -1.3759  0.7811
  746SOL     OW 2433   4.029   3.478   0.419  0.1096 -0.0527  0.4977
  746SOL    HW1 2434   4.019   3.434   0.335  0.5752 -1.8059  1.3279
  746SOL    HW2 2435   4.100   3.541   0.405  0.1453 -0.2961 -0.4250
  747SOL     OW 2436   2.958   3.167   2.896 -0.0064 -0.1365  0.0552
  747SOL    HW1 2437   2.947   3.229   2.968 -1.0919  0.0012 -0.2052
  747SOL    HW2 2438   3.023   3.104   2.928  1.0961  1.0967  0.3360
  748SOL     OW 2439   4.878   1.205   4.890 -0.0588 -1.1009  0.3646
  748SOL    HW1 2440   4.804   1.170   4.840  1.0543 -1.4306 -1.1400
  748SOL    HW2 2441   4.947   1.216   4.825  0.6842  0.8408  1.4039
  749SOL     OW 2442   2.060   4.312   0.299  0.0033  0.4094 -0.5237
  749SOL    HW1 2443   2.001   4.347   0.233 -1.2580 -0.0123  0.3477
  749SOL    HW2 2444   2.128   4.267   0.249  0.2147  1.8309 -1.5795
  750SOL     OW 2445   0.133   1.589   3.349  0.2606  0.4892 -0.0852
  750SOL    HW1 2446   0.161   1.503   3.381 -1.7944 -1.0355 -2.0413
  750SOL    HW2 2447   0.069   1.618   3.414  0.5159  0.2624  0.2740
  751SOL     OW 2448   4.057   1.699   0.316  0.5646  0.1451  0.2848
  751SOL    HW1 2449   4.065   1.788   0.349  0.7452  0.5646 -0.8519
  751SOL    HW2 2450   4.138   1.656   0.344  0.2641  0.1814  1.2483
  752SOL     OW 2451   0.032   2.875   0.561  0.3585 -0.5614 -0.0032
  752SOL    HW1 2452  -0.007   2.815   0.624 -2.5504  0.3938 -0.7300
  752SOL    HW2 2453   0.020   2.832   0.476  1.3718 -0.4184 -0.2387
  753SOL     OW 2454   3.387   2.374   1.484 -1.1699  0.4814  0.0174
  753SOL    HW1 2455   3.479   2.384   1.508 -0.6799 -0.3209 -1.3617
  753SOL    HW2 2456   3.350   2.462   1.490  0.7911  1.7392 -3.4850
  754SOL     OW 2457   1.283   1.665   3.038 -0.2082  0.2656 -0.0980
  754SOL    HW1 2458   1.273   1.660   2.943  1.0290 -1.8695 -0.1700
  754SOL    HW2 2459   1.375   1.645   3.054  0.0899  2.5003  1.4815
  755SOL     OW 2460   0.414   3.768   2.196 -0.3482 -0.7731  0.0894
  755SOL    HW1 2461   0.502   3.795   2.170 -0.0202 -1.3296  0.5871
  755SOL    HW2 2462   0.391   3.699   2.135 -0.7184 -0.1709 -0.4616
  756SOL     OW 2463   4.175   1.043   2.702 -0.0173  0.7298 -0.3760
  756SOL    HW1 2464   4.224   1.077   2.777  0.6491 -1.5682  0.3011
  756SOL    HW2 2465   4.084   1.045   2.729  0.1428  0.6595  0.1756
  757SOL     OW 2466   2.441   3.243   2.243  0.2809 -0.1576 -0.7062
  757SOL    HW1 2467   2.518   3.292   2.216  2.2140 -1.1061  2.5798
  757SOL    HW2 2468   2.447   3.238   2.338 -1.7100 -3.6689 -0.5682
  758SOL     OW 2469   4.410   2.350   0.097 -0.4452 -0.6787  0.0226
  758SOL    HW1 2470   4.376   2.364   0.008 -0.0300  0.4854  0.0370
  758SOL    HW2 2471   4.498   2.388   0.095 -0.6575 -0.0909  1.0987
  759SOL     OW 2472   3.271   4.288   0.762 -0.3966  0.4986  0.6020
  759SOL    HW1 2473   3.302   4.297   0.852  0.3727  1.6119  0.2431
  759SOL    HW2 2474   3.266   4.193   0.747  2.4470  0.2415  0.8378
  760SOL     OW 2475   3.406   4.536   3.486  0.2777  0.3683  0.4694
  760SOL    HW1 2476   3.420   4.624   3.520  1.2102  0.2984  0.2924
  760SOL    HW2 2477   3.321   4.541   3.442  0.2897  1.1601  0.5180
  761SOL     OW 2478   1.677   2.876   3.499 -0.1642 -0.3120  0.9687
  761SOL    HW1 2479   1.596   2.912   3.535 -0.5511  0.0801 -0.2501
  761SOL    HW2 2480   1.704   2.809   3.562 -1.5199 -0.5558  1.3093
  762SOL     OW 2481   1.082   3.936   3.396  0.0968  0.1060  0.4870
  762SOL    HW1 2482   1.160   3.916   3.448  0.2650 -1.9247 -0.4358
  762SOL    HW2 2483   1.094   4.027   3.368  3.3313 -0.7592 -1.5127
  763SOL     OW 2484   3.980   1.301   0.825  0.4089 -0.0265  0.1741
  763SOL    HW1 2485   3.971   1.326   0.917 -0.9028  2.4472 -0.5376
  763SOL    HW2 2486   3.917   1.229   0.814 -0.3301  0.4797  0.9601
  764SOL     OW 2487   3.362   4.630   2.149 -0.0059 -0.5492 -0.1066
  764SOL    HW1 2488   3.275   4.627   2.108 -2.5282  1.2395  4.3598
  764SOL    HW2 2489   3.379   4.540   2.175 -0.6822 -0.8816 -0.7700
  765SOL     OW 2490   0.751   4.367   0.380 -0.0111  0.3087  0.4363
  765SOL    HW1 2491   0.769   4.387   0.288 -2.0434 -0.5050 -0.2045
  765SOL    HW2 2492   0.683   4.430   0.404  0.3755  0.3890  1.3342
  766SOL     OW 2493   2.322   0.005   4.672  0.1483 -0.5959 -0.0850
  766SOL    HW1 2494   2.297   0.047   4.589  0.2244  1.5290  0.9020
  766SOL    HW2 2495   2.390   0.062   4.708 -1.2775 -0.3053  2.3735
  767SOL     OW 2496   0.606   4.487   0.961 -0.0033 -0.3420 -0.2135
  767SOL    HW1 2497   0.513   4.468   0.950  0.3927 -1.8196 -1.4538
  767SOL    HW2 2498   0.641   4.485   0.872  1.2872 -0.2205  0.2769
  768SOL     OW 2499   3.908   1.778   1.680 -0.2304 -0.5478  0.5316
  768SOL    HW1 2500   3.858   1.703   1.648 -1.2146  0.2308  0.1966
  768SOL    HW2 2501   3.989   1.777   1.629 -1.5549  0.3834 -1.6847
  769SOL     OW 2502   1.273   4.589   2.318 -0.5702  0.2347  0.2726
  769SOL    HW1 2503   1.288   4.681   2.299 -0.4050  0.2343  0.3997
  769SOL    HW2 2504   1.183   4.586   2.351 -1.4123  0.0265 -1.9041
  770SOL     OW 2505   2.981   0.725   1.947 -0.5449 -0.2317 -0.0582
  770SOL    HW1 2506   2.976   0.820   1.959 -0.1053 -0.1792 -0.2789
  770SOL    HW2 2507   3.038   0.695   2.017 -2.0253 -0.5532  1.0617
  771SOL     OW 2508   1.603   0.108   1.630  0.1174 -0.7076 -0.4580
  771SOL    HW1 2509   1.612   0.052   1.707  0.2003 -0.7245 -0.4795
  771SOL    HW2 2510   1.511   0.132   1.628  0.7369  2.4541  1.8362
  772SOL     OW 2511   1.848   2.060   3.201 -0.4288 -0.2083  0.0445
  772SOL    HW1 2512   1.892   2.133   3.244 -3.1504  1.0424  0.9016
  772SOL    HW2 2513   1.845   1.990   3.266 -0.9480  0.2202  0.4862
  773SOL     OW 2514   1.112   3.746   3.728  0.3522  0.1245 -0.7166
  773SOL    HW1 2515   1.070   3.662   3.750 -0.9783  0.0491 -3.1346
  773SOL    HW2 2516   1.203   3.723   3.711  0.2566 -0.6350 -0.2735
  774SOL     OW 2517   3.278   2.628   1.516  0.5057 -0.0354 -0.1496
  774SOL    HW1 2518   3.312   2.708   1.476  0.4408 -0.3705 -0.8769
  774SOL    HW2 2519   3.262   2.652   1.608  0.8025  0.6872 -0.2841
  775SOL     OW 2520   4.660   2.849   3.551  0.2360 -0.3320  0.8136
  775SOL    HW1 2521   4.586   2.886   3.503  1.7589 -0.8160 -2.1661
  775SOL    HW2 2522   4.645   2.754   3.548 -0.3028 -0.3368  2.5669
  776SOL     OW 2523   0.324   3.877   3.962 -0.4006  0.0064 -0.0772
  776SOL    HW1 2524   0.255   3.935   3.995 -0.1709  0.4400 -0.3567
  776SOL    HW2 2525   0.387   3.935   3.920 -0.4017 -0.4864 -0.7855
  777SOL     OW 2526   0.588   3.549   0.520  0.3135 -0.6778 -0.0848
  777SOL    HW1 2527   0.545   3.511   0.597  0.6749 -0.7176  0.0972
  777SOL    HW2 2528   0.579   3.643   0.531  0.8705 -0.6642  0.3004
  778SOL     OW 2529   1.931   1.593   3.060  0.7254 -0.6250 -0.1247
  778SOL    HW1 2530   1.968   1.602   2.972 -0.6759  1.1937 -0.6049
  778SOL    HW2 2531   2.003   1.616   3.119  0.9218  1.1073 -0.9563
  779SOL     OW 2532   0.527   2.499   2.866  0.0786  0.2467 -0.0802
  779SOL    HW1 2533   0.581   2.578   2.868 -0.2823  0.5500  3.2661
  779SOL    HW2 2534   0.437   2.531   2.863 -0.0825  0.0374  1.6819
  780SOL     OW 2535   2.314   2.123   1.583  0.3958  0.8037 -0.5352
  780SOL    HW1 2536   2.233   2.139   1.534  0.6969  0.3335 -1.1973
  780SOL    HW2 2537   2.329   2.029   1.573 -0.5708  0.2889  2.0914
  781SOL     OW 2538   1.824   1.173   3.374 -0.2247  0.4718 -0.4714
  781SOL    HW1 2539   1.822   1.265   3.347 -0.6309  0.3172 -0.9836
  781SOL    HW2 2540   1.869   1.174   3.458  0.3087  1.0733 -0.7503
  782SOL     OW 2541   3.965   1.372   3.645 -0.2739  0.4136 -0.2879
  782SOL    HW1 2542   3.922   1.417   3.571  1.9941 -0.3257 -2.1819
  782SOL    HW2 2543   4.011   1.441   3.692 -0.7588  0.7188 -0.2490
  783SOL     OW 2544   2.042   2.947   1.177 -0.0739 -0.2743 -0.0676
  783SOL    HW1 2545   1.953   2.972   1.150 -0.7579 -1.2544  1.1566
  783SOL    HW2 2546   2.078   2.902   1.100 -0.3637  0.7171 -0.8102
  784SOL     OW 2547   1.534   1.556   2.792  0.1679 -0.0851  0.2938
  784SOL    HW1 2548   1.478   1.492   2.835 -1.5647  0.4144 -1.0950
  784SOL    HW2 2549   1.604   1.504   2.752 -0.0691 -0.8726  0.8761
  785SOL     OW 2550   1.330   1.790   1.221  0.3350 -0.2162 -0.0323
  785SOL    HW1 2551   1.419   1.795   1.256  0.6147 -1.3538 -0.5511
  785SOL    HW2 2552   1.337   1.819   1.131  0.5116 -1.8956 -0.5928
  786SOL     OW 2553   0.651   4.727   4.351 -0.1795 -0.3124  0.2453
  786SOL    HW1 2554   0.613   4.684   4.427  1.7144  0.5935  1.8136
  786SOL    HW2 2555   0.592   4.800   4.333 -1.5369 -1.4868 -0.2486
  787SOL     OW 2556   0.595   4.865   4.749 -0.2536  0.2677  0.6744
  787SOL    HW1 2557   0.624   4.858   4.841  1.4290  1.7224  0.3060
  787SOL    HW2 2558   0.640   4.792   4.705  2.7097  2.2138  0.2084
  788SOL     OW 2559   0.844   2.694   0.306  0.3597  0.5835  0.4385
  788SOL    HW1 2560   0.882   2.657   0.227 -0.7069 -1.1030  0.6626
  788SOL    HW2 2561   0.877   2.784   0.309 -0.1055  0.9317 -2.2743
  789SOL     OW 2562   4.380   3.249   3.966  0.6305  0.0796  0.2108
  789SOL    HW1 2563   4.449   3.209   3.914  1.5484  1.0141  0.6665
  789SOL    HW2 2564   4.335   3.308   3.905  0.9839  0.3321  0.1921
  790SOL     OW 2565   2.820   4.823   0.951 -0.4227 -0.4187 -0.2503
  790SOL    HW1 2566   2.900   4.874   0.964 -1.1754  0.1626  2.7736
  790SOL    HW2 2567   2.811   4.818   0.856  2.6223  0.3669 -0.7016
  791SOL     OW 2568   2.314   3.033   2.947 -0.2652  0.0125  0.1776
  791SOL    HW1 2569   2.335   3.047   3.039 -1.1014 -1.8160  0.7070
  791SOL    HW2 2570   2.372   3.092   2.899  1.6440 -0.4629  1.7864
  792SOL     OW 2571   1.744   4.941   3.939  0.2107 -0.1316  0.1391
  792SOL    HW1 2572   1.700   4.857   3.953  1.1994 -1.0938 -2.0494
  792SOL    HW2 2573   1.830   4.930   3.980 -0.1335  0.3286  1.0113
  793SOL     OW 2574   3.817   3.357   3.058  0.0522  0.2684  0.0178
  793SOL    HW1 2575   3.866   3.275   3.059  0.2564  0.3648 -1.2119
  793SOL    HW2 2576   3.752   3.345   2.989 -0.6276  0.7481  0.5587
  794SOL     OW 2577   2.596   0.280   0.394  0.3762 -0.1072 -0.7455
  794SOL    HW1 2578   2.685   0.244   0.397  0.8807  1.0530  2.1529
  794SOL    HW2 2579   2.609   0.375   0.388 -0.7466 -0.0206 -2.1469
  795SOL     OW 2580   2.653   0.899   1.788 -0.0268  0.0519  0.7159
  795SOL    HW1 2581   2.583   0.867   1.845 -0.6127  1.5749  0.8816
  795SOL    HW2 2582   2.614   0.973   1.741  0.4750 -1.0452 -1.5900
  796SOL     OW 2583   4.894   3.604   3.130 -1.1621  0.6124  0.0244
  796SOL    HW1 2584   4.985   3.578   3.147 -1.1810  1.1483  1.0450
  796SOL    HW2 2585   4.897   3.699   3.128 -1.8891  0.6827  1.3185
  797SOL     OW 2586   3.529   2.379   2.593  0.3750  0.3434  0.0218
  797SOL    HW1 2587   3.592   2.404   2.526 -1.1881 -0.3621 -1.8146
  797SOL    HW2 2588   3.548   2.436   2.667  2.6923  0.6058 -0.7036
  798SOL     OW 2589   1.580   0.370   1.713 -0.0480 -0.2307  0.1909
  798SOL    HW1 2590   1.595   0.276   1.712  1.4496 -0.0488  1.1352
  798SOL    HW2 2591   1.668   0.409   1.715 -0.6263  1.1875 -0.1995
  799SOL     OW 2592   4.481   1.712   2.432 -0.4112 -0.1423 -0.2116
  799SOL    HW1 2593   4.503   1.621   2.414  0.8855  0.4178 -1.7993
  799SOL    HW2 2594   4.400   1.728   2.383 -1.1043 -0.6387  0.7501
  800SOL     OW 2595   4.275   0.331   0.243 -0.7158  0.2295  0.0711
  800SOL    HW1 2596   4.357   0.331   0.293 -0.7002  2.1891  0.1191
  800SOL    HW2 2597   4.206   0.332   0.310 -0.7779 -0.6513  0.0299
  801SOL     OW 2598   4.677   1.519   1.402  0.4906  0.0559  0.3698
  801SOL    HW1 2599   4.698   1.557   1.487 -0.3618  1.5102 -0.0438
  801SOL    HW2 2600   4.705   1.585   1.338  0.3767 -0.6676 -0.4510
  802SOL     OW 2601   4.904   1.929   4.499 -0.0640  0.4749 -0.0691
  802SOL    HW1 2602   4.863   1.975   4.572  0.2191 -1.7051  1.5723
  802SOL    HW2 2603   4.870   1.972   4.421 -2.7096  1.0107  1.2771
  803SOL     OW 2604   1.169   4.755   0.195 -0.2025  0.0074 -0.1273
  803SOL    HW1 2605   1.076   4.736   0.198 -0.3999  0.8616 -0.5494
  803SOL    HW2 2606   1.211   4.669   0.196 -1.0714 -0.5135 -2.4820
  804SOL     OW 2607   2.155   4.908   3.464  0.5297  0.0500  0.3443
  804SOL    HW1 2608   2.173   4.926   3.372  1.1371 -0.7937  0.2885
  804SOL    HW2 2609   2.237   4.874   3.499 -0.4359 -2.3589  0.4773
  805SOL     OW 2610   1.835   0.527   3.502 -0.0064 -0.2068 -0.0956
  805SOL    HW1 2611   1.741   0.514   3.485 -0.4782  2.1992  0.2650
  805SOL    HW2 2612   1.856   0.608   3.455  2.1060 -1.0885 -0.7704
  806SOL     OW 2613   0.490   4.885   3.282  0.0197  0.3584 -0.1899
  806SOL    HW1 2614   0.555   4.943   3.322 -0.8572  1.1409  0.1313
  806SOL    HW2 2615   0.542   4.814   3.245  1.0626  0.9633  0.0530
  807SOL     OW 2616   2.800   2.165   2.942  0.2911 -0.0511 -0.4418
  807SOL    HW1 2617   2.738   2.235   2.964  0.7452  0.2377 -0.0781
  807SOL    HW2 2618   2.885   2.198   2.970  0.3569 -1.2163  0.8651
  808SOL     OW 2619   4.367   2.821   2.022 -0.2043  0.0765  1.1784
  808SOL    HW1 2620   4.301   2.884   2.051 -2.2159 -1.9259  1.2291
  808SOL    HW2 2621   4.371   2.757   2.092  1.2419 -0.2889  0.7923
  809SOL     OW 2622   0.647   0.301   3.989  0.3279 -0.1909 -0.0091
  809SOL    HW1 2623   0.611   0.218   4.021 -0.7055  0.9903  2.1160
  809SOL    HW2 2624   0.722   0.319   4.047  0.3258  0.5140 -0.2160
  810SOL     OW 2625   4.532   4.925   3.764  0.2556 -0.0784 -0.4014
  810SOL    HW1 2626   4.471   4.922   3.690 -0.4767 -0.9947  0.2085
  810SOL    HW2 2627   4.609   4.877   3.734  1.0496  1.7130 -1.4448
  811SOL     OW 2628   4.161   4.575   1.559  0.1771 -0.2342 -0.8005
  811SOL    HW1 2629   4.184   4.537   1.644  0.2806  1.4930 -0.0108
  811SOL    HW2 2630   4.169   4.670   1.572 -3.6742  0.3737 -1.5400
  812SOL     OW 2631   1.887   3.374   0.206 -0.1858  0.0136  0.0281
  812SOL    HW1 2632   1.948   3.355   0.278 -0.9198  0.6154  0.8262
  812SOL    HW2 2633   1.881   3.291   0.158  0.9385 -0.1694  0.1785
  813SOL     OW 2634   3.890   1.130   0.237 -0.6962 -0.0522 -0.0653
  813SOL    HW1 2635   3.955   1.097   0.175 -0.4400  2.4279 -1.2319
  813SOL    HW2 2636   3.941   1.182   0.300 -1.2767 -0.2080  0.5508
  814SOL     OW 2637   4.377   2.987   4.358 -0.2898  0.0780 -0.3923
  814SOL    HW1 2638   4.297   3.038   4.368 -1.1437 -1.3645  0.4443
  814SOL    HW2 2639   4.448   3.049   4.375 -1.3022  0.8554  1.1532
  815SOL     OW 2640   2.957   2.642   1.393  0.4895  0.0608 -0.3978
  815SOL    HW1 2641   3.042   2.603   1.415  0.7843  0.8250 -0.1548
  815SOL    HW2 2642   2.955   2.724   1.442  1.4085  2.1817 -3.5757
  816SOL     OW 2643   2.982   1.036   3.405  0.4472 -0.6005 -0.3564
  816SOL    HW1 2644   3.068   1.061   3.371  0.5705 -2.6932 -1.7623
  816SOL    HW2 2645   2.930   1.019   3.327 -1.1060  0.0974  0.4936
  817SOL     OW 2646   2.629   2.843   2.002 -0.1446 -0.2988  0.6112
  817SOL    HW1 2647   2.628   2.889   2.085 -2.1477  0.1902  0.3837
  817SOL    HW2 2648   2.641   2.751   2.025  0.1449 -0.0778  1.3621
  818SOL     OW 2649   0.741   3.827   4.220 -0.4504  0.0050 -0.0143
  818SOL    HW1 2650   0.792   3.805   4.143  2.7848  0.1131  1.9162
  818SOL    HW2 2651   0.705   3.743   4.251 -0.6185 -0.2320 -0.8409
  819SOL     OW 2652   3.553   2.848   2.389  0.1320 -0.0668  0.1852
  819SOL    HW1 2653   3.639   2.883   2.369 -0.1853  0.0527 -1.0571
  819SOL    HW2 2654   3.493   2.900   2.335 -0.6175 -0.7247  0.3663
  820SOL     OW 2655   2.217   3.604   3.659 -0.8227  0.4793 -0.7470
  820SOL    HW1 2656   2.142   3.551   3.686  0.5011 -0.5561  1.2790
  820SOL    HW2 2657   2.265   3.620   3.741  0.9222  1.4703 -1.8900
  821SOL     OW 2658   3.036   4.862   0.257 -0.2793  0.2332 -0.2670
  821SOL    HW1 2659   3.091   4.888   0.330 -1.1417 -0.7510  0.7797
  821SOL    HW2 2660   3.049   4.929   0.191 -0.5272  1.9213  1.3293
  822SOL     OW 2661   0.475   0.117   1.259  0.1820 -0.9397  1.0122
  822SOL    HW1 2662   0.390   0.162   1.257  1.2011  1.2817  3.3188
  822SOL    HW2 2663   0.527   0.161   1.193 -0.3649 -2.2879 -0.3862
  823SOL     OW 2664   0.883   0.134   3.825  0.3264 -0.3216 -0.0165
  823SOL    HW1 2665   0.916   0.114   3.738  0.0141 -0.9304  0.0008
  823SOL    HW2 2666   0.960   0.130   3.882  0.8425  1.6697 -0.4834
  824SOL     OW 2667   4.351   0.815   3.922 -0.6086  0.5144 -0.0405
  824SOL    HW1 2668   4.330   0.724   3.903 -0.8816  0.5203  0.2244
  824SOL    HW2 2669   4.430   0.833   3.871 -1.0083  0.3635 -0.7238
  825SOL     OW 2670   1.224   1.885   3.196 -0.3071  0.2217 -0.1293
  825SOL    HW1 2671   1.281   1.941   3.143  1.9567  0.7383  2.6322
  825SOL    HW2 2672   1.247   1.796   3.169  2.1006  0.4013  1.0487
  826SOL     OW 2673   0.882   1.014   2.611  0.4405  0.1927  0.4422
  826SOL    HW1 2674   0.829   0.975   2.542  1.3844 -0.6347  0.1494
  826SOL    HW2 2675   0.837   0.990   2.692  0.4963 -0.7126  0.2142
  827SOL     OW 2676   2.536   0.701   1.405 -0.2592 -0.1146 -0.4538
  827SOL    HW1 2677   2.479   0.772   1.433 -1.6968  0.2900 -3.8563
  827SOL    HW2 2678   2.567   0.728   1.319  0.7420 -2.7512 -1.0123
  828SOL     OW 2679   3.007   3.600   1.119 -0.1989 -0.2373 -0.4671
  828SOL    HW1 2680   3.066   3.638   1.054  0.1988  0.2408  0.1586
  828SOL    HW2 2681   3.051   3.614   1.203  0.3856 -2.8791 -0.2676
  829SOL     OW 2682   4.597   3.112   4.168 -0.1157  0.2004 -0.1984
  829SOL    HW1 2683   4.627   3.112   4.259  0.1355  0.7211 -0.2800
  829SOL    HW2 2684   4.570   3.203   4.152 -2.2692 -0.3395  0.0545
  830SOL     OW 2685   0.563   2.668   3.460 -0.1695 -0.8627 -0.3501
  830SOL    HW1 2686   0.558   2.698   3.369  0.9182 -0.2358 -0.2251
  830SOL    HW2 2687   0.612   2.586   3.455  0.1952 -0.6505 -0.3013
  831SOL     OW 2688   0.419   2.223   4.021  0.5044  0.3535 -0.0132
  831SOL    HW1 2689   0.402   2.274   4.099 -1.1093 -1.7256  1.1107
  831SOL    HW2 2690   0.357   2.256   3.956  0.2285  0.5375  0.3436
  832SOL     OW 2691   4.354   1.687   0.353  0.3495  0.3573 -0.2037
  832SOL    HW1 2692   4.341   1.672   0.447  3.2666 -0.2765  0.1936
  832SOL    HW2 2693   4.408   1.767   0.349 -1.2235  1.4233 -1.4862
  833SOL     OW 2694   3.692   3.364   0.731 -0.3905  0.0275 -0.2677
  833SOL    HW1 2695   3.705   3.424   0.658 -0.6216 -0.3286 -0.6077
  833SOL    HW2 2696   3.741   3.403   0.803 -0.3601  0.5086 -0.5432
  834SOL     OW 2697   2.247   0.252   2.875  0.0868  0.5284  0.1152
  834SOL    HW1 2698   2.176   0.200   2.912  0.1721  0.4379  0.1531
  834SOL    HW2 2699   2.216   0.343   2.880  0.8966  0.7379  2.2621
  835SOL     OW 2700   4.144   1.615   4.249 -0.1463  0.0796 -0.0547
  835SOL    HW1 2701   4.170   1.670   4.323  0.7106  1.5717 -1.4149
  835SOL    HW2 2702   4.050   1.632   4.239  0.1962  1.7554 -0.7685
  836SOL     OW 2703   4.333   1.981   3.457 -0.3135 -0.2201  0.1594
  836SOL    HW1 2704   4.369   2.052   3.510 -0.2746  0.0472 -0.2248
  836SOL    HW2 2705   4.308   1.914   3.521 -0.8572  0.3619  0.5720
  837SOL     OW 2706   1.192   1.468   1.826 -0.2647  0.0767  0.5278
  837SOL    HW1 2707   1.141   1.488   1.748 -1.3085 -1.9886  0.6306
  837SOL    HW2 2708   1.138   1.499   1.899 -0.2842  0.0340  0.5315
  838SOL     OW 2709   1.705   3.507   4.284 -0.0118  0.2999  0.2501
  838SOL    HW1 2710   1.621   3.551   4.270 -0.9493 -1.6933 -1.0218
  838SOL    HW2 2711   1.691   3.451   4.360 -0.3693 -1.0742 -0.7711
  839SOL     OW 2712   4.276   0.817   0.195 -0.0947 -0.3474 -0.4974
  839SOL    HW1 2713   4.343   0.881   0.169  1.0102 -1.4830 -0.5768
  839SOL    HW2 2714   4.323   0.733   0.195 -0.8292 -0.8425  2.1272
  840SOL     OW 2715   1.147   1.006   2.194  0.1408  0.2002 -0.5511
  840SOL    HW1 2716   1.235   0.980   2.167 -0.1406 -2.6699  0.8916
  840SOL    HW2 2717   1.120   0.938   2.256 -1.1642  3.5562  2.9926
  841SOL     OW 2718   3.205   3.726   2.993 -0.6552 -0.4956 -0.2790
  841SOL    HW1 2719   3.234   3.731   2.902 -0.0858 -1.5108 -0.1587
  841SOL    HW2 2720   3.273   3.773   3.042 -0.3089 -1.0422 -0.2353
  842SOL     OW 2721   1.809   3.703   3.121  0.3217  0.1408  0.0275
  842SOL    HW1 2722   1.787   3.796   3.124 -0.8916 -0.1272 -0.1769
  842SOL    HW2 2723   1.821   3.684   3.028  0.4906  0.0722  0.0628
  843SOL     OW 2724   1.104   2.123   0.884  0.4121  0.5001 -0.1484
  843SOL    HW1 2725   1.162   2.193   0.913 -2.0551  4.4001 -3.4620
  843SOL    HW2 2726   1.053   2.100   0.962  0.1092  3.8693  0.8030
  844SOL     OW 2727   1.949   1.441   3.879  0.0109  1.1510 -0.4931
  844SOL    HW1 2728   2.037   1.406   3.893  0.2469  2.1686  0.7770
  844SOL    HW2 2729   1.892   1.379   3.924  0.2058  1.2029 -0.1730
  845SOL     OW 2730   3.845   3.536   1.789  0.2182  0.0752  0.5599
  845SOL    HW1 2731   3.846   3.631   1.795 -1.9153  0.1950 -0.1430
  845SOL    HW2 2732   3.845   3.518   1.695 -3.1722 -0.4035  0.5151
  846SOL     OW 2733   1.613   1.109   1.695  0.6994  0.2888  0.0458
  846SOL    HW1 2734   1.552   1.182   1.682  0.6584  0.5823  1.6576
  846SOL    HW2 2735   1.581   1.041   1.635  1.2546  1.8381 -2.1263
  847SOL     OW 2736   3.383   1.093   4.738 -0.1946 -0.0152  0.0134
  847SOL    HW1 2737   3.402   1.183   4.710 -1.8681  0.3273 -0.1010
  847SOL    HW2 2738   3.416   1.038   4.666  0.4937  0.5226 -0.0880
  848SOL     OW 2739   1.223   4.754   2.784 -0.2398  0.4348 -0.0480
  848SOL    HW1 2740   1.302   4.726   2.738  0.3914  1.0279  0.6583
  848SOL    HW2 2741   1.246   4.837   2.826 -1.4386  0.9574 -0.3671
  849SOL     OW 2742   0.518   2.045   1.830 -0.1690  0.7282 -0.0718
  849SOL    HW1 2743   0.451   1.979   1.811 -0.2497  0.9436 -0.5449
  849SOL    HW2 2744   0.590   1.995   1.868 -0.8669  0.5769  1.1399
  850SOL     OW 2745   4.248   3.541   2.339  0.4344 -0.7495  0.0997
  850SOL    HW1 2746   4.272   3.518   2.249 -2.0789 -1.6639 -0.4329
  850SOL    HW2 2747   4.216   3.459   2.377 -2.0030  0.3292  0.5482
  851SOL     OW 2748   0.097   3.689   1.670 -0.1936  0.6560  0.1328
  851SOL    HW1 2749   0.043   3.634   1.613 -1.0967  0.8678  0.7542
  851SOL    HW2 2750   0.071   3.779   1.648 -0.2055  0.7540  0.5474
  852SOL     OW 2751   2.888   0.899   1.358 -0.7373  0.7897  0.1288
  852SOL    HW1 2752   2.844   0.850   1.427 -1.3118 -0.2021 -0.9210
  852SOL    HW2 2753   2.835   0.885   1.280 -0.0388  1.8014 -0.5588
  853SOL     OW 2754   2.233   0.489   2.116 -0.1082  0.4128  0.6538
  853SOL    HW1 2755   2.220   0.582   2.138  1.8699  0.7994  0.3485
  853SOL    HW2 2756   2.322   0.470   2.144  0.3125 -0.7905 -1.3184
  854SOL     OW 2757   4.525   3.128   2.228  0.0762  0.0915 -0.7180
  854SOL    HW1 2758   4.576   3.074   2.289  0.9817  1.1128 -0.5545
  854SOL    HW2 2759   4.545   3.091   2.142  0.6779  0.1534 -0.6085
  855SOL     OW 2760   4.695   1.120   0.905  0.2702  0.0516 -0.3899
  855SOL    HW1 2761   4.777   1.152   0.867  0.4676  0.4813  0.3741
  855SOL    HW2 2762   4.721   1.085   0.990 -0.3156  0.0362 -0.2164
  856SOL     OW 2763   3.647   1.954   2.737  0.0215 -0.3430 -0.4427
  856SOL    HW1 2764   3.578   2.004   2.693 -0.6344  0.4565  1.4051
  856SOL    HW2 2765   3.717   2.017   2.752  0.2313 -0.6004 -0.3240
  857SOL     OW 2766   2.605   4.367   1.598 -0.2617  0.3091 -0.5107
  857SOL    HW1 2767   2.643   4.430   1.537  0.8168  1.1522  0.9464
  857SOL    HW2 2768   2.636   4.282   1.568  2.6054  0.9234  0.3602
  858SOL     OW 2769   1.743   4.876   0.138 -0.7172 -0.3644  0.2439
  858SOL    HW1 2770   1.779   4.827   0.212 -1.9820 -2.4682 -0.4307
  858SOL    HW2 2771   1.809   4.866   0.069 -0.8711 -1.0092  0.1772
  859SOL     OW 2772   1.630   1.559   4.735  0.0324 -0.0513 -0.5530
  859SOL    HW1 2773   1.550   1.517   4.768 -0.3890  1.7548  0.9407
  859SOL    HW2 2774   1.599   1.622   4.670  0.4605 -0.7242 -1.4185
  860SOL     OW 2775   4.024   0.774   1.138 -0.4748 -0.1551 -0.6569
  860SOL    HW1 2776   3.933   0.773   1.108 -1.4131  0.4882  1.9113
  860SOL    HW2 2777   4.039   0.864   1.167  0.0363 -0.8561  1.4593
  861SOL     OW 2778   2.068   0.258   2.244  0.4775  0.0906 -0.4747
  861SOL    HW1 2779   2.094   0.185   2.188  2.0295  0.4417 -0.2632
  861SOL    HW2 2780   2.141   0.320   2.237  0.0748  0.7465  0.8603
  862SOL     OW 2781   3.862   2.959   2.668  0.3384  0.3398 -0.4864
  862SOL    HW1 2782   3.848   2.910   2.749 -0.2893 -0.1231 -0.8629
  862SOL    HW2 2783   3.776   2.995   2.647  0.5280  0.5728 -0.8768
  863SOL     OW 2784   0.282   4.175   1.441 -0.0770 -0.0627 -0.1583
  863SOL    HW1 2785   0.336   4.244   1.479  0.3656 -0.0534 -0.7813
  863SOL    HW2 2786   0.322   4.093   1.471 -0.0002 -0.0507 -0.2259
  864SOL     OW 2787   4.750   2.101   4.683  0.2403 -0.0200  0.7014
  864SOL    HW1 2788   4.708   2.187   4.685 -1.0162 -0.5290 -0.9576
  864SOL    HW2 2789   4.802   2.098   4.763 -0.2392  1.9922  1.1634
  865SOL     OW 2790   4.085   4.160   3.922  0.1716  0.4390 -0.2150
  865SOL    HW1 2791   4.096   4.188   3.832 -0.0844 -1.5226 -0.9144
  865SOL    HW2 2792   4.054   4.069   3.915  0.6423  0.0688  1.8451
  866SOL     OW 2793   2.940   4.466   0.945 -0.2315  1.0474  0.0089
  866SOL    HW1 2794   2.851   4.501   0.946 -0.3918  0.6505  0.1668
  866SOL    HW2 2795   2.929   4.375   0.918  0.1987  1.1794 -0.6325
  867SOL     OW 2796   3.794   1.467   2.394  0.3218 -0.6888  0.0637
  867SOL    HW1 2797   3.739   1.518   2.336 -0.4709 -0.2415  1.1665
  867SOL    HW2 2798   3.761   1.377   2.387  0.0475 -0.5852  0.0481
  868SOL     OW 2799   3.859   4.297   4.726  0.3103  0.0818  0.1656
  868SOL    HW1 2800   3.796   4.345   4.674 -0.5232 -0.8687  0.2666
  868SOL    HW2 2801   3.935   4.286   4.668 -0.3603 -0.4191 -0.6351
  869SOL     OW 2802   0.190   0.385   3.879 -0.2483  0.2644  0.0770
  869SOL    HW1 2803   0.175   0.450   3.947 -0.8472  1.0042 -0.7270
  869SOL    HW2 2804   0.279   0.402   3.848 -0.7219  1.3822 -0.7816
  870SOL     OW 2805   1.265   1.626   2.756 -0.3278  0.2849 -0.4142
  870SOL    HW1 2806   1.237   1.587   2.673 -0.1987 -1.6851  0.4038
  870SOL    HW2 2807   1.359   1.641   2.745  0.0115 -1.4311 -0.1378
  871SOL     OW 2808   1.556   3.641   1.679  0.0416  0.4328 -0.3706
  871SOL    HW1 2809   1.574   3.734   1.665 -0.5230  0.4485 -1.0149
  871SOL    HW2 2810   1.630   3.611   1.732  0.3258  1.2037 -0.3105
  872SOL     OW 2811   0.822   2.722   4.440  0.0496  0.2432  0.1896
  872SOL    HW1 2812   0.788   2.633   4.430 -0.1581  0.1221  1.7544
  872SOL    HW2 2813   0.888   2.716   4.509  1.1552  1.0361 -0.7601
  873SOL     OW 2814   2.749   1.614   4.154  0.0895 -0.0568  0.2727
  873SOL    HW1 2815   2.704   1.589   4.074  1.4564 -2.2545  0.0975
  873SOL    HW2 2816   2.773   1.706   4.141 -1.3575  0.1734 -0.9871
  874SOL     OW 2817   0.493   3.846   3.445 -0.0606 -0.1718  0.2244
  874SOL    HW1 2818   0.416   3.791   3.431 -0.0300 -0.2557  0.3890
  874SOL    HW2 2819   0.557   3.788   3.486 -0.4089  0.2644  1.4348
  875SOL     OW 2820   0.229   0.978   0.516 -0.1945 -0.2551  0.6575
  875SOL    HW1 2821   0.165   1.044   0.543 -0.6287  0.0196 -0.9461
  875SOL    HW2 2822   0.314   1.020   0.529 -0.4543  0.5204 -0.0495
  876SOL     OW 2823   0.802   3.410   2.918  0.2392  0.3003 -0.4444
  876SOL    HW1 2824   0.756   3.475   2.865  2.3240  2.1746 -0.1263
  876SOL    HW2 2825   0.885   3.395   2.871 -0.2838 -2.4334 -0.6744
  877SOL     OW 2826   2.360   2.778   2.768  0.1442  0.1067  0.2382
  877SOL    HW1 2827   2.319   2.857   2.803 -0.1329  0.6340 -1.1881
  877SOL    HW2 2828   2.417   2.810   2.698 -0.2637 -0.9781 -0.6241
  878SOL     OW 2829   1.309   4.772   3.740  0.2976 -0.5110  0.0433
  878SOL    HW1 2830   1.300   4.763   3.645  2.2211 -2.9431 -0.0202
  878SOL    HW2 2831   1.340   4.686   3.769  1.6753  0.7415  2.6128
  879SOL     OW 2832   2.899   0.220   0.129 -0.4519  0.4819 -0.0628
  879SOL    HW1 2833   2.926   0.276   0.056  0.3719 -0.0994 -0.2172
  879SOL    HW2 2834   2.980   0.200   0.176 -1.0480  1.3809  1.4109
  880SOL     OW 2835   2.573   0.582   2.997 -0.1699 -0.6989 -0.1180
  880SOL    HW1 2836   2.624   0.619   2.924 -2.2144  0.5564 -1.0064
  880SOL    HW2 2837   2.529   0.506   2.959 -0.0055 -0.9892  0.2700
  881SOL     OW 2838   3.095   1.796   0.309  0.2344  0.4312  0.1154
  881SOL    HW1 2839   3.143   1.873   0.337 -0.2850  0.9440 -0.3603
  881SOL    HW2 2840   3.150   1.756   0.242  0.1773  0.8233 -0.1774
  882SOL     OW 2841   0.616   4.409   4.405 -0.2617  0.1171 -0.1184
  882SOL    HW1 2842   0.548   4.475   4.414  0.8981  1.4570 -0.9142
  882SOL    HW2 2843   0.657   4.428   4.321  1.7001 -0.0894  0.7582
  883SOL     OW 2844   2.982   1.021   4.171 -0.1057 -0.1658  0.3780
  883SOL    HW1 2845   3.028   0.937   4.174 -0.2717 -0.2309  2.2684
  883SOL    HW2 2846   2.927   1.021   4.250 -2.7243  0.2804 -1.3085
  884SOL     OW 2847   4.767   4.748   3.111 -0.7475 -0.2522  0.5221
  884SOL    HW1 2848   4.711   4.671   3.107 -0.4633 -0.4378 -0.0032
  884SOL    HW2 2849   4.820   4.743   3.032  0.7679 -0.6491  1.5393
  885SOL     OW 2850   3.693   0.536   1.042  0.3245  0.2441 -0.4304
  885SOL    HW1 2851   3.617   0.482   1.022  0.2579  0.0129  0.4313
  885SOL    HW2 2852   3.738   0.546   0.957  1.4227 -2.7955 -0.3433
  886SOL     OW 2853   3.580   3.647   1.199 -0.0589  0.1198  0.3668
  886SOL    HW1 2854   3.664   3.635   1.245 -1.6474 -1.2559  3.1755
  886SOL    HW2 2855   3.605   3.668   1.109  3.3100  1.7872  1.5051
  887SOL     OW 2856   4.116   0.654   2.578  0.5954  0.8006 -0.2179
  887SOL    HW1 2857   4.164   0.589   2.527  4.4630  0.7724  2.9378
  887SOL    HW2 2858   4.107   0.614   2.665 -1.7436  2.4945  0.4166
  888SOL     OW 2859   3.726   1.133   4.603  0.0696  0.2358 -0.6307
  888SOL    HW1 2860   3.770   1.207   4.645  1.1764  0.1512 -1.5925
  888SOL    HW2 2861   3.714   1.070   4.674  1.3755  0.3331 -0.2958
  889SOL     OW 2862   3.308   2.411   4.029  0.0899 -0.1607  0.5614
  889SOL    HW1 2863   3.254   2.400   4.108  1.6129 -1.4194  1.5011
  889SOL    HW2 2864   3.380   2.350   4.042  1.7959  1.5173 -0.6070
  890SOL     OW 2865   2.549   2.594   1.727  0.3938 -0.6111 -0.3121
  890SOL    HW1 2866   2.591   2.608   1.643 -0.7366 -0.0217 -0.8033
  890SOL    HW2 2867   2.459   2.570   1.706 -0.2087  0.5660  0.7108
  891SOL     OW 2868   3.530   1.539   0.791 -0.5282 -0.4326  0.6186
  891SOL    HW1 2869   3.533   1.507   0.881  1.2085  0.2947  0.8584
  891SOL    HW2 2870   3.439   1.529   0.765 -0.8504 -1.6865  2.0689
  892SOL     OW 2871   3.227   0.107   4.287 -0.1878  0.1527 -0.1124
  892SOL    HW1 2872   3.146   0.152   4.264 -0.7206  0.0774  1.5247
  892SOL    HW2 2873   3.293   0.176   4.291 -0.3909  0.3669 -0.3837
  893SOL     OW 2874   0.812   4.169   1.838 -0.7285  0.2756  0.1457
  893SOL    HW1 2875   0.737   4.112   1.822 -0.5530 -0.0155  0.3817
  893SOL    HW2 2876   0.877   4.114   1.880 -0.5180  0.6206  0.2808
  894SOL     OW 2877   1.188   2.758   3.563  0.4071  0.5921  0.7103
  894SOL    HW1 2878   1.110   2.812   3.572 -0.7188 -0.8045 -0.1325
  894SOL    HW2 2879   1.174   2.708   3.482  2.4157  0.6571  0.2445
  895SOL     OW 2880   1.804   1.442   1.177  0.0444  0.6107  0.4694
  895SOL    HW1 2881   1.732   1.392   1.139  0.5338  0.5794 -0.4397
  895SOL    HW2 2882   1.807   1.523   1.127  0.9799  0.3803  0.1253
  896SOL     OW 2883   0.184   4.277   2.938  0.2956  0.1886 -0.2536
  896SOL    HW1 2884   0.098   4.313   2.918 -0.4692 -1.0950  0.5639
  896SOL    HW2 2885   0.203   4.218   2.865  0.8793  1.0865 -0.8489
  897SOL     OW 2886   0.026   3.267   1.792 -0.2489 -0.3500 -0.2147
  897SOL    HW1 2887   0.083   3.197   1.825 -1.0206 -1.3642 -0.9490
  897SOL    HW2 2888   0.032   3.259   1.696 -0.7771  0.2512 -0.3023
  898SOL     OW 2889   1.137   2.822   1.093  0.1569  0.0108 -0.3792
  898SOL    HW1 2890   1.080   2.753   1.127 -0.1969  0.6176  0.2852
  898SOL    HW2 2891   1.119   2.897   1.149  1.3360  0.3310 -0.4227
  899SOL     OW 2892   0.580   3.230   1.489 -0.1516 -0.3312 -0.2517
  899SOL    HW1 2893   0.486   3.214   1.499  0.1858 -1.0607  2.2611
  899SOL    HW2 2894   0.620   3.143   1.490  0.6449  0.0281 -0.1606
  900SOL     OW 2895   2.473   4.201   1.151 -0.1977  0.4681 -0.1229
  900SOL    HW1 2896   2.404   4.252   1.194  2.4542  3.4454  1.0237
  900SOL    HW2 2897   2.478   4.238   1.062  1.6242  2.3042  0.6614
  901SOL     OW 2898   0.089   3.895   3.296  0.8661  0.1963  0.2657
  901SOL    HW1 2899   0.083   3.948   3.216  0.4856 -1.0565 -0.5593
  901SOL    HW2 2900   0.052   3.952   3.364 -0.7413  0.5451 -0.8251
  902SOL     OW 2901   1.507   2.717   1.437  0.2064 -0.5986  0.2501
  902SOL    HW1 2902   1.536   2.789   1.381  0.0529  0.4539  1.4635
  902SOL    HW2 2903   1.580   2.703   1.498 -0.3242 -0.4632  0.9388
  903SOL     OW 2904   1.374   1.254   3.385 -0.1053  0.0015  0.5931
  903SOL    HW1 2905   1.283   1.283   3.372  0.4669  1.1255 -1.3249
  903SOL    HW2 2906   1.375   1.220   3.474 -2.9676 -2.1686 -0.0271
  904SOL     OW 2907   2.103   2.462   3.655  0.2597  0.3606 -0.6823
  904SOL    HW1 2908   2.107   2.395   3.587 -0.9868  2.8280 -3.4400
  904SOL    HW2 2909   2.016   2.451   3.694  0.7983 -0.7737  0.2399
  905SOL     OW 2910   4.288   1.635   0.622 -0.2533  0.3898  0.3286
  905SOL    HW1 2911   4.372   1.676   0.644 -0.4814  0.9572  0.1498
  905SOL    HW2 2912   4.274   1.571   0.692  1.4148 -1.3577 -0.8400
  906SOL     OW 2913   0.975   4.009   1.962 -0.3439 -0.4225 -0.6802
  906SOL    HW1 2914   1.071   4.002   1.955 -0.4135 -0.8310 -1.3042
  906SOL    HW2 2915   0.955   3.978   2.050  0.2363  1.1619  0.0683
  907SOL     OW 2916   1.942   4.464   4.788 -0.2106  0.2603  0.0585
  907SOL    HW1 2917   1.879   4.416   4.733 -2.7912  2.0842  1.2422
  907SOL    HW2 2918   2.017   4.479   4.730 -0.6090 -2.3246 -1.3098
  908SOL     OW 2919   0.571   0.562   1.543  0.0499  0.5865 -0.0902
  908SOL    HW1 2920   0.558   0.565   1.638  0.3713 -0.9402  0.0369
  908SOL    HW2 2921   0.483   0.564   1.507 -0.0464  2.2508  0.1644
  909SOL     OW 2922   2.595   0.749   4.759  0.3480  0.5832 -0.3742
  909SOL    HW1 2923   2.681   0.786   4.738  0.0604  1.2441 -0.4241
  909SOL    HW2 2924   2.602   0.724   4.852  0.6057  0.6085 -0.3855
  910SOL     OW 2925   4.445   1.455   0.226 -0.7088 -0.5336 -0.7667
  910SOL    HW1 2926   4.393   1.530   0.255 -1.0166 -0.3205 -1.8569
  910SOL    HW2 2927   4.535   1.489   0.222 -0.8035 -0.3073 -0.9788
  911SOL     OW 2928   3.088   1.381   3.427 -0.2497  0.4821  0.0002
  911SOL    HW1 2929   3.045   1.441   3.488  0.3356 -1.3837  2.3978
  911SOL    HW2 2930   3.123   1.311   3.482  0.6680 -1.1579 -2.4706
  912SOL     OW 2931   2.243   2.843   2.363  0.6104 -0.6769  0.0080
  912SOL    HW1 2932   2.288   2.874   2.285 -0.4035 -2.0545 -1.1696
  912SOL    HW2 2933   2.244   2.918   2.423  2.0266  0.1747 -1.0260
  913SOL     OW 2934   1.013   3.155   4.945 -0.1185  0.5025 -0.1274
  913SOL    HW1 2935   0.965   3.084   4.902  0.2805  0.7264 -0.9614
  913SOL    HW2 2936   1.102   3.122   4.956 -0.1403  0.5636  0.2509
  914SOL     OW 2937   3.083   2.824   4.739  0.0123  0.1884 -0.2897
  914SOL    HW1 2938   3.103   2.850   4.829  0.9723  0.8093 -0.6733
  914SOL    HW2 2939   3.162   2.781   4.708 -0.6581 -0.9084 -0.5267
  915SOL     OW 2940   2.654   1.208   4.199  0.0686  0.0415 -0.1018
  915SOL    HW1 2941   2.590   1.233   4.132  1.2886  2.5888 -0.4427
  915SOL    HW2 2942   2.606   1.215   4.282 -1.4656 -3.1791 -0.5784
  916SOL     OW 2943   2.341   2.792   3.665 -0.4052 -0.0771 -0.6272
  916SOL    HW1 2944   2.252   2.787   3.698 -0.6415 -0.8804 -1.3521
  916SOL    HW2 2945   2.378   2.705   3.682 -0.0587 -0.0386 -1.1617
  917SOL     OW 2946   2.283   1.555   1.469  1.1694 -0.2186  0.2022
  917SOL    HW1 2947   2.221   1.543   1.397  0.7086  0.9350  0.3941
  917SOL    HW2 2948   2.309   1.646   1.464  1.5128 -0.2514  1.1976
  918SOL     OW 2949   4.273   3.863   2.360  0.3151  0.0185 -0.8545
  918SOL    HW1 2950   4.276   3.887   2.453 -0.7324 -0.9279 -0.5542
  918SOL    HW2 2951   4.246   3.771   2.360  1.6670 -0.4075 -2.0574
  919SOL     OW 2952   2.176   3.765   3.475  0.0414 -0.6212 -0.5053
  919SOL    HW1 2953   2.226   3.729   3.402 -0.1561 -1.6885 -0.1361
  919SOL    HW2 2954   2.188   3.701   3.545 -1.8643 -0.9315 -0.4150
  920SOL     OW 2955   1.262   2.729   3.962  0.5953  0.3364  0.4625
  920SOL    HW1 2956   1.277   2.684   3.878  0.0836  2.6608 -0.9723
  920SOL    HW2 2957   1.183   2.781   3.948  1.1386  1.6716  2.0017
  921SOL     OW 2958   4.852   0.132   3.381 -0.2478  0.2958 -0.1098
  921SOL    HW1 2959   4.836   0.039   3.402  0.4047 -0.0029 -0.8775
  921SOL    HW2 2960   4.772   0.176   3.408  0.2184 -0.1534  2.2688
  922SOL     OW 2961   0.572   2.056   2.200 -0.0855  0.2711 -0.2449
  922SOL    HW1 2962   0.541   1.974   2.161  0.0249 -0.1924  0.6219
  922SOL    HW2 2963   0.652   2.077   2.151 -0.1095 -0.1422 -0.4651
  923SOL     OW 2964   1.016   0.872   3.988 -0.6195  0.2849 -0.0413
  923SOL    HW1 2965   1.040   0.814   4.061 -0.1474  1.2591  0.5892
  923SOL    HW2 2966   0.952   0.821   3.938 -0.7999 -0.4838  0.9309
  924SOL     OW 2967   1.672   3.669   2.274 -0.1039  0.2419 -0.8381
  924SOL    HW1 2968   1.702   3.585   2.308 -0.2929  0.6862  0.4808
  924SOL    HW2 2969   1.615   3.704   2.343  0.3269  1.6506 -1.1575
  925SOL     OW 2970   0.577   3.660   3.883  0.0560  0.0032 -0.1788
  925SOL    HW1 2971   0.552   3.568   3.874  0.4628 -0.0159 -1.2354
  925SOL    HW2 2972   0.500   3.709   3.854  0.1679 -0.0159 -0.5078
  926SOL     OW 2973   3.177   3.711   4.002  0.2688  0.2461 -0.0731
  926SOL    HW1 2974   3.085   3.714   3.975 -0.0211  1.4829  0.9610
  926SOL    HW2 2975   3.224   3.762   3.936  0.1338  0.0663 -0.3079
  927SOL     OW 2976   0.817   0.809   4.833 -0.3135 -0.4051 -0.2279
  927SOL    HW1 2977   0.796   0.872   4.902 -0.0353 -0.1494 -0.3748
  927SOL    HW2 2978   0.860   0.862   4.765 -0.1545 -0.7398 -0.3870
  928SOL     OW 2979   1.319   4.097   3.690  0.1057 -0.3122 -0.1536
  928SOL    HW1 2980   1.321   4.054   3.604  0.4457  0.3572 -0.4890
  928SOL    HW2 2981   1.401   4.147   3.693 -0.4085  0.5259  0.1130
  929SOL     OW 2982   2.240   4.413   1.924 -0.2918 -0.1003 -0.2440
  929SOL    HW1 2983   2.272   4.416   2.014 -1.4462 -0.1454  0.1848
  929SOL    HW2 2984   2.216   4.321   1.909  0.3063 -0.1808 -0.7537
  930SOL     OW 2985   2.980   1.344   0.886  0.1737 -0.1316 -0.5038
  930SOL    HW1 2986   2.999   1.345   0.980  1.6735 -0.9299 -0.7754
  930SOL    HW2 2987   3.053   1.393   0.846 -1.1609  1.4232 -1.1677
  931SOL     OW 2988   4.177   3.775   3.433 -0.6825  0.2045 -0.1839
  931SOL    HW1 2989   4.271   3.780   3.451 -0.7658 -0.5820  0.5246
  931SOL    HW2 2990   4.171   3.717   3.357 -0.5422  0.9509 -0.7712
  932SOL     OW 2991   2.574   2.783   0.836 -0.0576  0.4644  0.0376
  932SOL    HW1 2992   2.483   2.758   0.822 -0.3765  1.3347  0.5171
  932SOL    HW2 2993   2.585   2.780   0.931  0.1020  1.4069  0.0594
  933SOL     OW 2994   3.872   4.719   2.525  0.2976  0.0666  0.2869
  933SOL    HW1 2995   3.780   4.728   2.553  0.2741  2.3865 -0.3464
  933SOL    HW2 2996   3.873   4.637   2.476 -0.6027 -1.8882  3.2308
  934SOL     OW 2997   3.614   3.396   2.179 -0.3287  0.4052 -0.3536
  934SOL    HW1 2998   3.670   3.388   2.102  2.9955 -0.7151  1.9909
  934SOL    HW2 2999   3.638   3.480   2.218 -0.4399  0.0460  0.5289
  935SOL     OW 3000   2.903   4.300   1.426  0.1242  0.5763 -0.2277
  935SOL    HW1 3001   2.861   4.272   1.345  1.6053 -0.5060 -0.6708
  935SOL    HW2 3002   2.915   4.219   1.477  3.3895  0.4365 -0.9991
  936SOL     OW 3003   3.242   4.560   2.798 -0.5870  0.2571  0.7779
  936SOL    HW1 3004   3.304   4.632   2.787 -0.8022  0.3271 -0.0433
  936SOL    HW2 3005   3.156   4.602   2.803 -0.6529  0.1024  0.9494
  937SOL     OW 3006   3.772   4.826   3.294 -0.2214  0.0139  0.0435
  937SOL    HW1 3007   3.757   4.878   3.373 -0.8941  0.1971 -0.1992
  937SOL    HW2 3008   3.851   4.864   3.255 -0.9350  1.1269 -0.3555
  938SOL     OW 3009   4.074   0.461   1.144  0.1144  0.0638 -0.3317
  938SOL    HW1 3010   4.133   0.442   1.071 -0.4834  2.0516 -1.4069
  938SOL    HW2 3011   4.100   0.549   1.173 -0.8568  0.0515  0.6435
  939SOL     OW 3012   2.979   2.616   0.125  0.2968  0.0533 -0.4193
  939SOL    HW1 3013   2.960   2.709   0.115  0.5679  0.1598  0.0203
  939SOL    HW2 3014   2.946   2.575   0.044 -2.4093  0.1070  0.5832
  940SOL     OW 3015   0.343   3.217   3.121 -0.2995 -0.0346 -0.4425
  940SOL    HW1 3016   0.423   3.234   3.071 -1.1238  2.0658 -1.1693
  940SOL    HW2 3017   0.321   3.126   3.099  0.2366  0.3063 -2.6899
  941SOL     OW 3018   0.525   1.634   2.539  0.1724 -0.5100  0.2975
  941SOL    HW1 3019   0.602   1.684   2.566 -0.8086 -0.1233  2.6580
  941SOL    HW2 3020   0.463   1.700   2.508  0.1081 -0.6320  0.1640
  942SOL     OW 3021   2.408   3.029   1.332  0.1387 -0.0085  0.6419
  942SOL    HW1 3022   2.339   3.050   1.394  1.2730  0.5793  1.7522
  942SOL    HW2 3023   2.363   3.017   1.248 -1.3404 -0.1395  1.4344
  943SOL     OW 3024   3.739   0.434   3.558  0.1160 -0.2632  0.1115
  943SOL    HW1 3025   3.703   0.444   3.470 -0.3458  0.2187  0.3517
  943SOL    HW2 3026   3.833   0.449   3.547  0.1365 -0.7411 -0.3864
  944SOL     OW 3027   4.193   4.335   4.097 -0.2861 -0.6194  0.3226
  944SOL    HW1 3028   4.256   4.268   4.123  2.2129  0.8054 -1.6008
  944SOL    HW2 3029   4.148   4.298   4.021 -1.8023 -1.6008  1.6402
  945SOL     OW 3030   2.389   1.217   3.158 -0.2393 -0.3244 -0.3406
  945SOL    HW1 3031   2.358   1.232   3.069 -1.1860 -2.3157 -0.4020
  945SOL    HW2 3032   2.474   1.261   3.161 -0.2647 -0.0527 -2.1709
  946SOL     OW 3033   3.940   2.269   3.371  0.4746  0.3452 -0.4060
  946SOL    HW1 3034   3.960   2.358   3.344  0.4032  0.5999  0.3709
  946SOL    HW2 3035   4.018   2.219   3.347  1.3327  0.9941  0.9234
  947SOL     OW 3036   3.526   4.617   1.127 -0.1098 -0.0112  0.0132
  947SOL    HW1 3037   3.485   4.592   1.045 -2.4557  2.6790  0.2008
  947SOL    HW2 3038   3.459   4.668   1.173  1.9419  0.6780  2.4909
  948SOL     OW 3039   4.012   0.656   4.272 -0.0262 -0.2556 -0.5291
  948SOL    HW1 3040   4.102   0.622   4.268 -0.1447 -0.5141 -1.1006
  948SOL    HW2 3041   3.972   0.627   4.190 -1.6771 -3.1021  1.1027
  949SOL     OW 3042   2.109   1.234   1.658  0.2806  0.2008  0.3868
  949SOL    HW1 3043   2.100   1.244   1.563 -1.9350 -0.4191  0.4560
  949SOL    HW2 3044   2.103   1.139   1.672  0.2195  0.3136  1.1578
  950SOL     OW 3045   4.339   3.382   0.505  0.2369 -0.2733 -0.4342
  950SOL    HW1 3046   4.311   3.467   0.472 -1.8774 -0.4207  0.7982
  950SOL    HW2 3047   4.271   3.321   0.475  0.1051 -0.9864  1.2237
  951SOL     OW 3048   0.982   0.377   2.029  0.1605  0.0517 -0.1502
  951SOL    HW1 3049   0.926   0.424   1.968 -0.8678 -0.3840  0.4263
  951SOL    HW2 3050   1.059   0.353   1.977 -0.6142 -0.1769 -1.2410
  952SOL     OW 3051   1.279   3.100   1.590 -0.3385  0.8337 -0.3944
  952SOL    HW1 3052   1.244   3.012   1.571 -0.3035  0.9996 -1.2711
  952SOL    HW2 3053   1.201   3.155   1.599 -0.3711  1.2291 -2.4747
  953SOL     OW 3054   4.610   0.769   3.459 -0.1452 -0.1094  0.3804
  953SOL    HW1 3055   4.608   0.863   3.438 -0.5496 -0.3104 -0.5165
  953SOL    HW2 3056   4.600   0.725   3.374  3.1606 -1.0209  0.3074
  954SOL     OW 3057   3.244   3.139   3.044  0.3513  0.3201  0.5165
  954SOL    HW1 3058   3.301   3.142   3.121  0.8598  1.1035  0.1170
  954SOL    HW2 3059   3.239   3.229   3.013  0.4059 -0.0273 -0.5525
  955SOL     OW 3060   4.072   4.220   4.370 -0.2144  0.3358  0.0732
  955SOL    HW1 3061   4.093   4.237   4.279  1.9345 -3.0037 -0.2296
  955SOL    HW2 3062   4.116   4.289   4.419  1.7109  0.1635 -1.2921
  956SOL     OW 3063   3.848   4.826   3.668  0.3896 -0.4139  0.0181
  956SOL    HW1 3064   3.794   4.894   3.629  0.6659  0.8336  1.7358
  956SOL    HW2 3065   3.789   4.751   3.677  0.1259 -0.5273 -2.0362
  957SOL     OW 3066   2.849   1.908   1.954 -0.2841 -0.1415  0.2006
  957SOL    HW1 3067   2.928   1.915   2.008  0.2315  2.1636 -0.7251
  957SOL    HW2 3068   2.882   1.906   1.864 -1.2316  2.5917 -0.3046
  958SOL     OW 3069   0.392   3.111   0.271  0.1462 -0.4831 -0.3469
  958SOL    HW1 3070   0.478   3.082   0.240  0.7035  0.4235  0.3124
  958SOL    HW2 3071   0.330   3.059   0.220  1.0668 -0.5624 -1.4311
  959SOL     OW 3072   4.316   1.270   1.310 -0.0211  0.2118 -0.0342
  959SOL    HW1 3073   4.328   1.364   1.323  2.2524 -0.2312  1.6328
  959SOL    HW2 3074   4.374   1.229   1.374 -1.2849 -2.3571 -0.4044
  960SOL     OW 3075   0.039   2.350   3.607 -0.0305  0.3563  0.2958
  960SOL    HW1 3076   0.121   2.399   3.600  0.6825 -0.4763  2.1871
  960SOL    HW2 3077  -0.026   2.416   3.629  0.8045  0.6091  2.2082
  961SOL     OW 3078   2.202   2.032   3.144  0.3057  0.1987  0.1268
  961SOL    HW1 3079   2.258   2.109   3.139  0.1157  0.2777 -1.8038
  961SOL    HW2 3080   2.132   2.049   3.081 -2.4603  0.4735  3.0783
  962SOL     OW 3081   1.985   0.845   1.484 -0.2190 -0.5377 -0.9182
  962SOL    HW1 3082   1.930   0.915   1.516  1.2218  0.7436 -1.1257
  962SOL    HW2 3083   1.952   0.826   1.396  0.6927  1.4228 -1.7379
  963SOL     OW 3084   2.354   3.479   2.645  0.4097  0.2033 -0.3256
  963SOL    HW1 3085   2.278   3.538   2.635 -0.8984 -1.6403 -1.9669
  963SOL    HW2 3086   2.418   3.511   2.582  0.2838  0.7183 -0.1965
  964SOL     OW 3087   2.085   2.192   4.289 -0.6040  0.3242  0.6081
  964SOL    HW1 3088   2.145   2.158   4.222 -0.9534  1.4012 -0.2791
  964SOL    HW2 3089   2.039   2.115   4.321 -1.3733 -0.0757 -1.3352
  965SOL     OW 3090   2.392   2.394   4.379  0.4831  0.2742  0.4638
  965SOL    HW1 3091   2.407   2.299   4.377  1.3103  0.4119 -0.3158
  965SOL    HW2 3092   2.460   2.428   4.436  0.2818  0.4214  0.6182
  966SOL     OW 3093   0.729   4.240   4.027 -0.0131  0.2147  0.1054
  966SOL    HW1 3094   0.751   4.332   4.020  0.6400  0.0485 -0.0888
  966SOL    HW2 3095   0.806   4.194   3.992  0.4013 -0.4537  1.8174
  967SOL     OW 3096   1.732   1.948   4.223 -0.8545  0.4416  0.5368
  967SOL    HW1 3097   1.691   2.005   4.288 -0.3251  0.5309  0.7981
  967SOL    HW2 3098   1.663   1.887   4.198 -1.4711  1.2674  0.1625
  968SOL     OW 3099   4.188   1.533   1.129  0.3807  0.3163  0.6837
  968SOL    HW1 3100   4.277   1.549   1.162  0.1314 -0.4700  1.7722
  968SOL    HW2 3101   4.164   1.615   1.086  2.2986 -0.0022 -1.2203
  969SOL     OW 3102   4.379   3.914   4.328  0.0443  0.1766  0.2256
  969SOL    HW1 3103   4.394   3.873   4.243 -0.7557 -0.3843  0.3509
  969SOL    HW2 3104   4.369   4.007   4.308  0.8905  0.1921 -0.1688
  970SOL     OW 3105   0.230   2.017   3.716 -0.4273 -0.1973  0.5659
  970SOL    HW1 3106   0.271   1.933   3.694  0.8672  0.7753 -0.8964
  970SOL    HW2 3107   0.239   2.023   3.811  1.9805 -0.5025  0.4299
  971SOL     OW 3108   1.641   0.380   2.049 -0.1627  0.3426 -0.5401
  971SOL    HW1 3109   1.547   0.364   2.054 -0.0012 -0.4128  0.2710
  971SOL    HW2 3110   1.674   0.311   1.991  0.1530 -0.6009  0.7414
  972SOL     OW 3111   1.991   1.951   4.373 -1.0707 -0.5379  0.4306
  972SOL    HW1 3112   2.056   1.883   4.355 -1.3306 -1.0815  1.4378
  972SOL    HW2 3113   1.908   1.912   4.344 -1.0766 -0.2178  0.0125
  973SOL     OW 3114   0.017   3.367   2.833 -0.6825 -0.0482 -0.6241
  973SOL    HW1 3115   0.020   3.421   2.754 -0.0742 -0.6128 -1.0030
  973SOL    HW2 3116   0.095   3.393   2.882 -0.0343 -1.0085 -1.1126
  974SOL     OW 3117   2.436   0.266   0.623 -0.5741  0.2579  0.4017
  974SOL    HW1 3118   2.495   0.281   0.550 -0.7730 -0.4624  0.0791
  974SOL    HW2 3119   2.392   0.350   0.637 -1.6153  0.0504 -1.2918
  975SOL     OW 3120   3.620   3.751   2.525  0.7342  0.0167 -0.4671
  975SOL    HW1 3121   3.621   3.838   2.565 -1.6636  0.0609 -0.3724
  975SOL    HW2 3122   3.710   3.738   2.494  1.3518  2.1678  0.2487
  976SOL     OW 3123   1.337   2.505   4.110 -0.0610 -0.1104 -0.1812
  976SOL    HW1 3124   1.348   2.574   4.045  0.0754  0.5992  0.5763
  976SOL    HW2 3125   1.268   2.449   4.074  0.9762 -0.5436 -1.5928
  977SOL     OW 3126   3.594   3.792   1.583 -0.4064 -0.1637 -0.1797
  977SOL    HW1 3127   3.567   3.716   1.634  1.5799 -0.0941  1.0568
  977SOL    HW2 3128   3.684   3.809   1.610 -0.8234  2.7152 -0.3194
  978SOL     OW 3129   2.981   0.022   3.596  0.4015  1.0927 -0.1515
  978SOL    HW1 3130   2.962   0.047   3.505 -1.2193  0.9717  0.1144
  978SOL    HW2 3131   3.075   0.006   3.597  0.7083  2.4835 -1.4729
  979SOL     OW 3132   4.659   0.749   2.596 -0.6816 -0.0375 -0.3406
  979SOL    HW1 3133   4.566   0.736   2.578 -0.2668 -2.8468 -0.9003
  979SOL    HW2 3134   4.683   0.824   2.541 -2.7050  1.1988  0.3348
  980SOL     OW 3135   0.138   1.250   1.790 -0.0431 -0.6456  0.2100
  980SOL    HW1 3136   0.112   1.188   1.858 -0.9539 -1.3543 -0.7434
  980SOL    HW2 3137   0.119   1.336   1.828 -1.8953 -1.0736  0.3563
  981SOL     OW 3138   1.738   1.381   2.676 -0.1485 -0.0752 -0.5540
  981SOL    HW1 3139   1.752   1.406   2.584 -1.0467 -0.8289 -0.9134
  981SOL    HW2 3140   1.718   1.287   2.672  1.4216 -0.5016  0.5759
  982SOL     OW 3141   0.744   0.710   4.121 -0.1728  0.3856 -0.2102
  982SOL    HW1 3142   0.769   0.793   4.161  0.8500 -0.1783  0.3617
  982SOL    HW2 3143   0.770   0.644   4.184  0.1185 -0.4447 -1.1682
  983SOL     OW 3144   0.199   0.185   3.667 -0.3268 -0.1565 -0.1179
  983SOL    HW1 3145   0.282   0.143   3.646 -0.0891  0.6845 -0.9231
  983SOL    HW2 3146   0.215   0.228   3.751  0.2973  0.6154 -0.6170
  984SOL     OW 3147   1.823   0.823   1.771  0.2398  0.4562  0.0774
  984SOL    HW1 3148   1.886   0.863   1.711  0.2420  1.4021  0.6936
  984SOL    HW2 3149   1.738   0.842   1.732  0.1859  1.9860  0.8904
  985SOL     OW 3150   4.475   1.844   1.370 -0.0497 -0.0831  0.3034
  985SOL    HW1 3151   4.448   1.926   1.329  0.4728 -0.1724 -0.2381
  985SOL    HW2 3152   4.521   1.870   1.449 -0.4934  0.1159  0.5015
  986SOL     OW 3153   0.614   1.546   2.016 -0.2044  0.1148  0.5378
  986SOL    HW1 3154   0.624   1.534   2.110 -0.6266 -0.2707  0.5407
  986SOL    HW2 3155   0.524   1.518   1.998  0.2789 -1.0712 -0.1757
  987SOL     OW 3156   2.664   3.640   3.386  0.0514 -0.3925 -0.4167
  987SOL    HW1 3157   2.593   3.584   3.355 -0.6065  0.0252  0.2796
  987SOL    HW2 3158   2.626   3.686   3.461 -0.0420  2.2798 -1.9596
  988SOL     OW 3159   0.801   2.727   1.451 -0.1820  0.2259 -0.2965
  988SOL    HW1 3160   0.868   2.660   1.466 -0.0346  0.3081 -0.5724
  988SOL    HW2 3161   0.718   2.681   1.467 -0.1581 -0.4213 -1.7763
  989SOL     OW 3162   0.734   0.965   3.926 -0.1879  0.5086 -0.1388
  989SOL    HW1 3163   0.808   0.991   3.982 -0.3577 -0.5689  0.6208
  989SOL    HW2 3164   0.670   1.036   3.936  0.5621  1.2574 -0.4848
  990SOL     OW 3165   4.213   3.550   4.040 -0.6596  0.3521 -0.4754
  990SOL    HW1 3166   4.240   3.566   3.950 -0.9450 -1.4333 -0.9090
  990SOL    HW2 3167   4.202   3.455   4.046 -2.1977  0.5664  0.9878
  991SOL     OW 3168   1.492   3.293   1.450  0.6243 -0.2786  0.1704
  991SOL    HW1 3169   1.565   3.270   1.393  0.1510 -0.3253 -0.4259
  991SOL    HW2 3170   1.433   3.217   1.445  1.4753 -1.1741  2.2734
  992SOL     OW 3171   3.970   2.910   2.427 -1.0211 -0.2772  0.5552
  992SOL    HW1 3172   3.930   2.966   2.494  0.1383  1.3963 -0.1142
  992SOL    HW2 3173   4.062   2.937   2.425  0.0468 -3.4204  1.4202
  993SOL     OW 3174   4.582   0.690   4.129  0.4184  0.2000  0.2381
  993SOL    HW1 3175   4.532   0.615   4.161  0.1981 -0.7094 -2.0948
  993SOL    HW2 3176   4.668   0.681   4.171 -0.1855 -0.2869  1.4213
  994SOL     OW 3177   2.049   0.588   1.141 -0.2038  0.0045 -0.4875
  994SOL    HW1 3178   1.995   0.508   1.145  0.7333 -0.6667 -0.7792
  994SOL    HW2 3179   2.075   0.593   1.049  2.0746 -0.9780  0.0272
  995SOL     OW 3180   0.068   0.814   4.812 -0.1667  0.6818  0.2793
  995SOL    HW1 3181   0.027   0.734   4.847  0.8974 -0.0961 -0.1892
  995SOL    HW2 3182   0.080   0.796   4.719 -0.3218  1.5753  0.0828
  996SOL     OW 3183   4.827   4.619   0.150  0.1493 -0.2803 -0.0946
  996SOL    HW1 3184   4.842   4.613   0.244  0.5196 -1.1742 -0.2058
  996SOL    HW2 3185   4.826   4.713   0.132  1.6714 -0.1143  0.5534
  997SOL     OW 3186   4.707   4.875   1.611 -0.2455 -0.1784  0.9430
  997SOL    HW1 3187   4.685   4.881   1.518  1.6272 -0.1319  0.4510
  997SOL    HW2 3188   4.639   4.819   1.649  0.2284 -2.2193 -0.9716
  998SOL     OW 3189   0.305   2.248   1.890 -0.0660  0.0018  0.0702
  998SOL    HW1 3190   0.372   2.184   1.865  2.1555  1.6030  1.4786
  998SOL    HW2 3191   0.343   2.332   1.865 -1.5512  0.9930  1.0132
  999SOL     OW 3192   4.637   0.320   3.343  0.3328 -0.0820 -0.3625
  999SOL    HW1 3193   4.563   0.300   3.286  0.0916  0.4564 -0.2397
  999SOL    HW2 3194   4.598   0.353   3.423  0.7201  0.8825 -0.5594
 1000SOL     OW 3195   0.650   0.784   4.500  0.0119  0.3682 -0.2563
 1000SOL    HW1 3196   0.589   0.793   4.573 -0.4379  3.5164 -0.8734
 1000SOL    HW2 3197   0.734   0.813   4.535  0.6174 -1.4505 -0.1139
 1001SOL     OW 3198   4.417   4.109   4.134  0.7125 -0.0090 -0.1443
 1001SOL    HW1 3199   4.457   4.071   4.055  1.9412  0.1025  0.4107
 1001SOL    HW2 3200   4.471   4.184   4.155 -0.8828  1.2722 -0.4164
 1002SOL     OW 3201   1.991   4.736   1.323 -0.2961  0.1157 -0.5083
 1002SOL    HW1 3202   2.054   4.699   1.261  0.4192  1.2013 -0.4512
 1002SOL    HW2 3203   1.986   4.829   1.300  0.0285  0.5609  1.0715
 1003SOL     OW 3204   4.050   2.636   4.054 -0.7648  0.2159 -0.6259
 1003SOL    HW1 3205   4.008   2.580   3.988  0.1663  2.9074 -3.8148
 1003SOL    HW2 3206   4.116   2.685   4.004  0.7819  1.7034  2.6240
 1004SOL     OW 3207   4.280   1.340   3.793 -0.8365  0.0459 -0.0847
 1004SOL    HW1 3208   4.274   1.351   3.699 -1.7580 -0.7310 -0.1336
 1004SOL    HW2 3209   4.243   1.254   3.810 -0.0781 -0.1072  0.9285
 1005SOL     OW 3210   0.808   2.500   1.037 -0.4719  0.0246  0.0046
 1005SOL    HW1 3211   0.820   2.411   1.003  1.3463  0.7550 -1.3546
 1005SOL    HW2 3212   0.788   2.553   0.960  2.7502  1.5375  0.0876
 1006SOL     OW 3213   4.321   4.867   3.578  0.2632  0.4039  0.3616
 1006SOL    HW1 3214   4.247   4.808   3.564  1.6898 -1.4231  0.0721
 1006SOL    HW2 3215   4.341   4.901   3.491 -0.2422  0.9250  0.4452
 1007SOL     OW 3216   4.663   0.971   0.589  0.3317  0.6433  0.2804
 1007SOL    HW1 3217   4.632   1.049   0.543 -2.3531  0.9319  2.2777
 1007SOL    HW2 3218   4.688   0.910   0.520 -0.3278  2.2024 -1.4143
 1008SOL     OW 3219   3.548   3.824   0.315 -0.4886  0.3150  0.1143
 1008SOL    HW1 3220   3.466   3.874   0.317 -1.0704 -0.5793 -0.6963
 1008SOL    HW2 3221   3.601   3.863   0.385 -0.3858  2.9537 -1.2963
 1009SOL     OW 3222   4.517   2.321   3.003 -0.7305  0.0207 -0.0641
 1009SOL    HW1 3223   4.452   2.314   2.933  0.4482 -0.7546 -1.1365
 1009SOL    HW2 3224   4.466   2.318   3.083 -2.3179  2.8114 -0.8309
 1010SOL     OW 3225   3.259   3.113   0.713  0.3319 -0.3403  0.1456
 1010SOL    HW1 3226   3.350   3.134   0.731  0.2610 -1.0064  1.4211
 1010SOL    HW2 3227   3.232   3.057   0.786 -1.3332  0.5407  0.2638
 1011SOL     OW 3228   0.566   2.575   1.520  0.1026 -0.5303  0.4141
 1011SOL    HW1 3229   0.544   2.555   1.429 -1.6834 -0.5115  0.8175
 1011SOL    HW2 3230   0.572   2.490   1.563  2.0754 -0.6128  0.0848
 1012SOL     OW 3231   2.997   2.966   1.022  0.7655  0.1427 -0.0329
 1012SOL    HW1 3232   3.006   2.883   1.069  0.8756  0.9308  1.4107
 1012SOL    HW2 3233   2.917   2.956   0.970  0.9862 -0.9873 -0.1790
 1013SOL     OW 3234   1.762   0.065   3.161 -0.2635 -0.1046  0.2448
 1013SOL    HW1 3235   1.724   0.152   3.153  2.2495  0.9677 -1.3544
 1013SOL    HW2 3236   1.795   0.061   3.251  2.2954  1.9199 -0.4884
 1014SOL     OW 3237   0.116   0.866   2.048 -0.6835 -0.7434  0.6326
 1014SOL    HW1 3238   0.021   0.859   2.038 -0.4790 -0.3508 -2.6854
 1014SOL    HW2 3239   0.148   0.776   2.035 -0.5227 -0.5520 -0.4090
 1015SOL     OW 3240   0.690   1.825   1.924  0.6040  0.4720 -0.1193
 1015SOL    HW1 3241   0.754   1.755   1.934  0.9452  0.6684 -0.8419
 1015SOL    HW2 3242   0.621   1.804   1.987  0.7568 -0.4353 -0.2433
 1016SOL     OW 3243   0.620   3.729   1.615  0.2970 -0.1653  0.4114
 1016SOL    HW1 3244   0.562   3.702   1.686  0.6135 -0.5909  0.5160
 1016SOL    HW2 3245   0.689   3.779   1.658  0.3856 -0.2612  0.3828
 1017SOL     OW 3246   2.614   4.074   0.884  0.5975  0.7085  0.1174
 1017SOL    HW1 3247   2.560   4.148   0.912  0.5908 -0.2124  2.7483
 1017SOL    HW2 3248   2.593   4.004   0.945  1.8285 -0.9726 -1.2877
 1018SOL     OW 3249   1.620   1.536   2.170 -0.0169 -0.1162  0.1403
 1018SOL    HW1 3250   1.651   1.579   2.090 -0.2951 -1.4406 -0.6940
 1018SOL    HW2 3251   1.693   1.545   2.231  1.3757 -1.6276 -1.2175
 1019SOL     OW 3252   0.878   1.934   0.788 -0.1323  0.4748 -0.2380
 1019SOL    HW1 3253   0.940   1.943   0.860  1.3328 -0.4029 -1.3308
 1019SOL    HW2 3254   0.813   2.003   0.803  1.6484  2.0758  0.4182
 1020SOL     OW 3255   2.574   4.712   3.337  0.0917 -0.4287 -0.3821
 1020SOL    HW1 3256   2.554   4.787   3.392 -0.6598 -1.1619  0.3814
 1020SOL    HW2 3257   2.669   4.712   3.331  0.0654  1.6105 -1.9147
 1021SOL     OW 3258   3.836   2.684   2.514 -0.1275 -0.0258 -0.3010
 1021SOL    HW1 3259   3.750   2.713   2.543  0.2471  0.9342 -0.0981
 1021SOL    HW2 3260   3.883   2.766   2.494  0.8296 -0.5197 -0.1265
 1022SOL     OW 3261   0.899   3.128   2.738 -0.1359  0.1966  0.8525
 1022SOL    HW1 3262   0.934   3.197   2.682 -0.9959 -0.5183 -0.6124
 1022SOL    HW2 3263   0.805   3.144   2.740 -0.5884 -1.8216 -0.8770
 1023SOL     OW 3264   0.466   1.631   0.446  0.2246  0.0543  0.5111
 1023SOL    HW1 3265   0.557   1.658   0.430  0.8628 -1.1337  1.8408
 1023SOL    HW2 3266   0.441   1.676   0.526 -0.4461  0.5300  0.0435
 1024SOL     OW 3267   3.285   2.124   1.850  0.5177  0.2148 -0.6389
 1024SOL    HW1 3268   3.376   2.153   1.863  0.3292  0.6544 -0.2830
 1024SOL    HW2 3269   3.238   2.204   1.828 -0.1086  0.2878  0.8646
 1025SOL     OW 3270   2.873   2.159   4.677  0.0570  0.0018 -0.5546
 1025SOL    HW1 3271   2.857   2.240   4.628 -0.2095 -0.2208 -0.8425
 1025SOL    HW2 3272   2.969   2.155   4.685  0.0446  2.4724  3.0954
 1026SOL     OW 3273   2.187   4.010   3.130 -1.2906  0.8045  0.2727
 1026SOL    HW1 3274   2.268   4.060   3.129  0.5245 -1.9410 -0.4468
 1026SOL    HW2 3275   2.154   4.016   3.040 -1.3470  1.0853  0.3109
 1027SOL     OW 3276   1.039   0.527   4.472  0.2384 -0.1609  0.0599
 1027SOL    HW1 3277   1.023   0.448   4.525  0.5480 -0.2809 -0.0235
 1027SOL    HW2 3278   1.134   0.533   4.466  0.2295  0.4730  0.4408
 1028SOL     OW 3279   2.357   0.522   0.700  0.6724 -0.0989 -0.5861
 1028SOL    HW1 3280   2.426   0.588   0.702 -0.1467  0.8019  1.6659
 1028SOL    HW2 3281   2.340   0.503   0.792 -2.1266 -0.1883 -1.0291
 1029SOL     OW 3282   4.430   4.128   3.466 -0.3579  0.0484  0.4119
 1029SOL    HW1 3283   4.343   4.147   3.430 -0.4427 -2.5470 -1.0406
 1029SOL    HW2 3284   4.482   4.205   3.445 -1.3041  0.0240 -2.4609
 1030SOL     OW 3285   0.334   2.477   0.331  0.1357  0.2627 -0.0151
 1030SOL    HW1 3286   0.308   2.450   0.420 -0.6598 -1.2111 -0.6516
 1030SOL    HW2 3287   0.298   2.565   0.322 -2.0239 -0.5285  0.2632
 1031SOL     OW 3288   0.533   1.174   0.984 -0.2041  0.5004  0.0021
 1031SOL    HW1 3289   0.620   1.208   0.964  0.3852  0.2829  1.9840
 1031SOL    HW2 3290   0.497   1.235   1.048 -0.5707 -0.6412  0.9296
 1032SOL     OW 3291   1.697   3.081   0.363 -0.1770  0.0169 -0.2419
 1032SOL    HW1 3292   1.765   3.128   0.411  1.0015 -0.0793 -1.7572
 1032SOL    HW2 3293   1.742   3.006   0.325 -1.1971 -0.2120 -1.0389
 1033SOL     OW 3294   3.148   0.405   1.848 -0.1890  0.5573  0.1637
 1033SOL    HW1 3295   3.057   0.415   1.822 -0.3771 -0.5658  0.3621
 1033SOL    HW2 3296   3.162   0.310   1.852  0.5544  0.7102  1.6451
 1034SOL     OW 3297   1.386   1.049   4.597  0.5176 -0.3277 -0.2369
 1034SOL    HW1 3298   1.369   1.019   4.508  1.6032  0.1932 -0.6331
 1034SOL    HW2 3299   1.357   1.140   4.598  0.9018 -0.2049 -0.1834
 1035SOL     OW 3300   0.684   0.252   2.587 -0.4881 -0.6903 -0.0356
 1035SOL    HW1 3301   0.618   0.257   2.518  0.7201  1.2865 -1.1379
 1035SOL    HW2 3302   0.674   0.164   2.624 -2.5558 -1.0438 -1.3194
 1036SOL     OW 3303   3.177   4.467   1.395  0.2900  0.6129 -0.3789
 1036SOL    HW1 3304   3.133   4.428   1.320 -0.6528  0.9015  0.0130
 1036SOL    HW2 3305   3.222   4.543   1.359  2.9329 -1.2417 -1.3389
 1037SOL     OW 3306   1.542   4.896   2.219 -0.2142 -0.4200  0.2716
 1037SOL    HW1 3307   1.469   4.937   2.174 -0.3665 -1.0860 -0.0923
 1037SOL    HW2 3308   1.503   4.856   2.297  0.1708  1.4596  1.5122
 1038SOL     OW 3309   2.999   4.011   1.995  0.5170  0.4476  0.2538
 1038SOL    HW1 3310   3.050   3.976   1.922  2.4716  0.9328  1.3151
 1038SOL    HW2 3311   2.987   4.104   1.973 -0.1558  0.2862 -0.1016
 1039SOL     OW 3312   2.911   4.632   0.117 -0.0087 -0.0472  0.5146
 1039SOL    HW1 3313   3.003   4.614   0.097  0.1825  1.0572  0.3739
 1039SOL    HW2 3314   2.903   4.727   0.114 -0.8456 -0.0430  1.8692
 1040SOL     OW 3315   3.231   2.853   1.339  0.0393  0.1825  0.2379
 1040SOL    HW1 3316   3.143   2.855   1.302 -0.5211 -0.5324  1.4818
 1040SOL    HW2 3317   3.289   2.847   1.263 -1.0297 -0.4358 -0.5504
 1041SOL     OW 3318   1.900   3.343   2.095  0.0316  0.0883  0.5297
 1041SOL    HW1 3319   1.896   3.352   1.999  2.7291  0.1946  0.3483
 1041SOL    HW2 3320   1.833   3.279   2.116  1.4491 -2.4128 -1.8664
 1042SOL     OW 3321   4.333   3.603   0.958 -0.2754  0.0992 -0.4993
 1042SOL    HW1 3322   4.285   3.545   1.018 -0.9408  1.2962  0.1656
 1042SOL    HW2 3323   4.270   3.624   0.889  0.5901 -1.5463 -1.8764
 1043SOL     OW 3324   1.341   1.674   4.640 -0.1719 -0.2257 -0.3849
 1043SOL    HW1 3325   1.364   1.731   4.714  0.2394 -0.6035 -0.2146
 1043SOL    HW2 3326   1.344   1.586   4.677 -0.0599 -0.4091 -0.8294
 1044SOL     OW 3327   4.840   4.316   1.728  0.0889  0.5273  0.1702
 1044SOL    HW1 3328   4.929   4.281   1.729 -1.0631 -2.7402  1.2137
 1044SOL    HW2 3329   4.814   4.314   1.635  0.8728  0.9081 -0.0634
 1045SOL     OW 3330   3.358   2.735   4.281  0.6049  0.0036 -0.8018
 1045SOL    HW1 3331   3.319   2.791   4.213  1.3208  2.2195  0.5115
 1045SOL    HW2 3332   3.429   2.689   4.236  0.4972  0.7463 -1.7693
 1046SOL     OW 3333   2.846   2.152   0.575  0.2610  0.5085 -0.3954
 1046SOL    HW1 3334   2.779   2.105   0.525  0.4843  0.7502 -0.9199
 1046SOL    HW2 3335   2.929   2.123   0.538  0.4028  1.3014 -0.7154
 1047SOL     OW 3336   4.842   2.114   3.089 -0.0608 -0.5845  0.1356
 1047SOL    HW1 3337   4.823   2.207   3.078 -0.8382 -0.6844  0.5288
 1047SOL    HW2 3338   4.937   2.109   3.098 -0.0620  0.2387  0.6978
 1048SOL     OW 3339   1.547   4.119   1.406  0.1368  0.3527  0.0016
 1048SOL    HW1 3340   1.608   4.180   1.448 -0.8085  1.3827 -0.0811
 1048SOL    HW2 3341   1.474   4.112   1.468 -0.0233 -0.2679 -0.2484
 1049SOL     OW 3342   3.315   3.586   1.016 -0.5001 -0.1650  0.1304
 1049SOL    HW1 3343   3.260   3.508   1.016 -1.5536  0.5429 -0.8605
 1049SOL    HW2 3344   3.399   3.556   1.050  0.0526 -2.4123 -2.7622
 1050SOL     OW 3345   2.747   1.359   1.566  0.2034 -0.0482 -0.5199
 1050SOL    HW1 3346   2.653   1.374   1.571  0.2651  0.3586  3.7318
 1050SOL    HW2 3347   2.757   1.264   1.577  0.3027 -0.1188 -1.1885
 1051SOL     OW 3348   4.668   2.255   3.818  0.1668  0.3342 -0.6344
 1051SOL    HW1 3349   4.681   2.324   3.752 -1.3260  0.5207 -0.7726
 1051SOL    HW2 3350   4.729   2.186   3.793  1.0295  1.2182 -1.0466
 1052SOL     OW 3351   4.598   4.753   3.961 -0.4677 -0.1394 -0.5304
 1052SOL    HW1 3352   4.664   4.739   3.894 -1.3443 -0.8446 -1.2800
 1052SOL    HW2 3353   4.524   4.791   3.914 -0.9699 -0.3180  0.0985
 1053SOL     OW 3354   4.768   3.789   4.422  0.0883 -0.3192  0.2933
 1053SOL    HW1 3355   4.692   3.741   4.453  1.0524 -3.5870 -1.9078
 1053SOL    HW2 3356   4.752   3.803   4.329  1.7527 -0.2646 -0.0157
 1054SOL     OW 3357   4.161   3.968   1.913  0.1121  0.2134 -0.2036
 1054SOL    HW1 3358   4.209   3.897   1.955 -0.7917 -0.6844 -0.6175
 1054SOL    HW2 3359   4.094   3.993   1.977 -0.9895 -0.8593 -0.8989
 1055SOL     OW 3360   0.514   0.722   3.971  0.7866 -0.5068  0.0128
 1055SOL    HW1 3361   0.473   0.800   3.933 -1.3109 -2.1240 -1.2816
 1055SOL    HW2 3362   0.592   0.755   4.016 -0.0737  2.3232 -0.3833
 1056SOL     OW 3363   4.307   2.648   1.692 -0.0345  0.4750  0.1368
 1056SOL    HW1 3364   4.381   2.621   1.637  0.9888  0.2482  1.5774
 1056SOL    HW2 3365   4.327   2.739   1.716 -0.4291  0.5434  0.2077
 1057SOL     OW 3366   3.762   3.868   0.565 -0.0781  0.4114  0.1565
 1057SOL    HW1 3367   3.854   3.873   0.593 -0.0714 -0.8160  0.4078
 1057SOL    HW2 3368   3.745   3.775   0.557 -0.6677  0.6589 -2.0461
 1058SOL     OW 3369   0.574   1.794   3.267 -0.1546 -0.3568  0.4696
 1058SOL    HW1 3370   0.552   1.767   3.177  2.3908  0.1013 -0.3643
 1058SOL    HW2 3371   0.557   1.888   3.268 -1.6734 -0.6019  1.0099
 1059SOL     OW 3372   1.815   4.372   3.510 -0.6514 -0.1700 -0.2893
 1059SOL    HW1 3373   1.858   4.434   3.568 -0.9912 -0.6473  0.4951
 1059SOL    HW2 3374   1.766   4.426   3.448 -1.1913  0.3477  0.5722
 1060SOL     OW 3375   1.088   0.304   4.595 -0.9947  0.3490  0.3309
 1060SOL    HW1 3376   1.163   0.289   4.538  0.2838  0.4369  1.9236
 1060SOL    HW2 3377   1.101   0.243   4.668 -1.8194  1.1947  1.2202
 1061SOL     OW 3378   3.201   1.675   3.645  0.3804 -0.3263 -0.4221
 1061SOL    HW1 3379   3.216   1.583   3.665 -2.3498 -0.4334  1.8719
 1061SOL    HW2 3380   3.105   1.683   3.640  0.5890  2.0088 -2.7732
 1062SOL     OW 3381   4.928   2.339   0.452  0.4642 -0.4959 -0.1968
 1062SOL    HW1 3382   4.842   2.300   0.466  0.0519  0.1870 -0.8027
 1062SOL    HW2 3383   4.963   2.293   0.375  0.0975  0.1271 -0.7377
 1063SOL     OW 3384   3.384   4.438   3.743  0.1962 -0.5026  0.3091
 1063SOL    HW1 3385   3.333   4.359   3.725 -1.4041  0.6489 -0.5345
 1063SOL    HW2 3386   3.404   4.473   3.656 -0.7480  0.9675  0.6355
 1064SOL     OW 3387   0.431   4.200   0.589  0.2916 -0.3867 -0.1133
 1064SOL    HW1 3388   0.364   4.160   0.644  1.3076 -1.6808  0.2324
 1064SOL    HW2 3389   0.428   4.151   0.507 -1.8213  2.0919 -1.6798
 1065SOL     OW 3390   3.445   4.556   0.303  0.1399 -0.0008  0.4597
 1065SOL    HW1 3391   3.530   4.541   0.346 -0.8542  0.7175  2.8186
 1065SOL    HW2 3392   3.467   4.602   0.222  1.9285  2.0487  1.9913
 1066SOL     OW 3393   3.324   3.150   3.537 -0.0336 -0.1365 -0.7000
 1066SOL    HW1 3394   3.353   3.099   3.461  0.4104 -1.2631  0.2016
 1066SOL    HW2 3395   3.398   3.209   3.555 -0.3327  0.4812 -1.4112
 1067SOL     OW 3396   2.691   0.606   2.354  0.0434 -0.0979  0.1113
 1067SOL    HW1 3397   2.636   0.674   2.394 -1.1450 -0.4375 -0.9123
 1067SOL    HW2 3398   2.690   0.626   2.261  3.7359  1.3844  0.1889
 1068SOL     OW 3399   4.803   2.135   1.938 -0.1718 -0.0430  0.3692
 1068SOL    HW1 3400   4.870   2.196   1.967  1.7907 -1.8695 -0.1135
 1068SOL    HW2 3401   4.748   2.186   1.878  1.9102  1.0800 -0.7026
 1069SOL     OW 3402   1.873   0.438   2.992 -0.4916  0.3341  0.2779
 1069SOL    HW1 3403   1.914   0.396   2.916 -0.0541  0.1082  0.6359
 1069SOL    HW2 3404   1.794   0.387   3.008  0.3058 -0.6969  1.0355
 1070SOL     OW 3405   1.186   1.452   0.483  0.1316 -0.1582 -0.1296
 1070SOL    HW1 3406   1.130   1.523   0.452  0.3177  0.5576  1.1420
 1070SOL    HW2 3407   1.150   1.373   0.441 -0.8512  0.5038 -0.5607
 1071SOL     OW 3408   0.911   3.711   0.456  0.1369  0.1625  0.0297
 1071SOL    HW1 3409   0.879   3.691   0.368 -0.2769 -0.0738  0.2322
 1071SOL    HW2 3410   0.922   3.806   0.456 -0.7378  0.2748  0.0038
 1072SOL     OW 3411   3.102   3.949   0.006  0.1349 -0.1033  0.1281
 1072SOL    HW1 3412   3.037   3.932  -0.061  0.9470  0.7760 -0.9222
 1072SOL    HW2 3413   3.186   3.925  -0.034  0.9916  3.2129 -0.3758
 1073SOL     OW 3414   1.721   1.804   0.109  0.1332 -0.2393  0.5948
 1073SOL    HW1 3415   1.681   1.883   0.143 -0.0811  0.1078 -0.4353
 1073SOL    HW2 3416   1.815   1.824   0.107  0.1259 -0.1872  0.7894
 1074SOL     OW 3417   0.197   4.159   3.806 -0.0421  0.6579  0.4180
 1074SOL    HW1 3418   0.273   4.217   3.805  0.7432 -0.2049  3.1107
 1074SOL    HW2 3419   0.179   4.142   3.713  0.8298  3.6400 -0.4245
 1075SOL     OW 3420   2.834   2.361   4.537 -0.3601 -0.2001 -0.1167
 1075SOL    HW1 3421   2.875   2.376   4.451 -0.7063 -0.0566 -0.2586
 1075SOL    HW2 3422   2.740   2.370   4.520 -0.7018 -3.2328 -0.3787
 1076SOL     OW 3423   2.591   2.341   2.676 -0.3202  0.0442 -0.1249
 1076SOL    HW1 3424   2.503   2.317   2.648 -0.2200 -0.4633 -0.0135
 1076SOL    HW2 3425   2.579   2.385   2.760 -0.5392  0.7293 -0.5092
 1077SOL     OW 3426   2.511   3.862   0.335  0.2130 -0.0651 -0.4304
 1077SOL    HW1 3427   2.482   3.803   0.404 -0.2951  0.2139 -0.3981
 1077SOL    HW2 3428   2.470   3.828   0.256  2.0277 -1.3108 -0.9106
 1078SOL     OW 3429   1.577   1.828   1.326  0.4122  0.6549 -0.3406
 1078SOL    HW1 3430   1.569   1.919   1.355  0.9367  0.3209  0.9444
 1078SOL    HW2 3431   1.671   1.809   1.336  0.6284  0.4886 -2.2821
 1079SOL     OW 3432   1.853   1.743   2.325 -0.2304  0.0532  0.5683
 1079SOL    HW1 3433   1.929   1.733   2.268  0.0104 -1.2152  1.0720
 1079SOL    HW2 3434   1.833   1.836   2.323 -0.3876  0.0262 -1.7516
 1080SOL     OW 3435   0.758   3.179   4.604 -0.0638  0.1313  0.1209
 1080SOL    HW1 3436   0.720   3.191   4.517  1.2287  1.0158 -0.3543
 1080SOL    HW2 3437   0.766   3.268   4.639  3.3803  0.2464 -0.6457
 1081SOL     OW 3438   2.728   1.810   2.778 -0.5265  0.0528 -0.3319
 1081SOL    HW1 3439   2.689   1.731   2.814  0.0125  0.0033  0.1549
 1081SOL    HW2 3440   2.788   1.841   2.846  1.4034 -0.6801 -1.6109
 1082SOL     OW 3441   1.716   4.496   2.674 -0.6555 -0.0134  0.6737
 1082SOL    HW1 3442   1.679   4.537   2.595 -1.4171  0.4764  1.2639
 1082SOL    HW2 3443   1.784   4.438   2.641 -2.0271 -1.0410 -0.4894
 1083SOL     OW 3444   2.061   3.639   0.120 -0.7658  0.3682 -0.3985
 1083SOL    HW1 3445   2.034   3.577   0.187 -0.3338 -0.1142 -0.6667
 1083SOL    HW2 3446   2.046   3.594   0.037 -0.0609  0.4584 -0.5814
 1084SOL     OW 3447   3.452   4.328   4.211 -0.5981 -0.0505 -0.9064
 1084SOL    HW1 3448   3.458   4.235   4.192  2.4888 -0.2280  0.3528
 1084SOL    HW2 3449   3.507   4.341   4.288 -4.0064  2.2716  1.4737
 1085SOL     OW 3450   4.406   4.228   3.180  0.2278 -0.0657  0.2730
 1085SOL    HW1 3451   4.371   4.251   3.094 -1.3806 -0.5563  0.7627
 1085SOL    HW2 3452   4.390   4.134   3.187  0.3515 -0.0270  1.1175
 1086SOL     OW 3453   2.471   2.119   1.851 -0.0593  0.5508 -0.3555
 1086SOL    HW1 3454   2.432   2.171   1.781  0.5351 -0.0231 -1.1217
 1086SOL    HW2 3455   2.449   2.029   1.828 -1.2665  0.4402  1.0724
 1087SOL     OW 3456   4.227   0.843   4.422 -0.2093  0.2509 -0.3717
 1087SOL    HW1 3457   4.153   0.783   4.416 -1.0002  1.2091 -0.3785
 1087SOL    HW2 3458   4.220   0.882   4.509  1.7535 -1.4797  0.6389
 1088SOL     OW 3459   1.967   0.952   3.881 -0.0574 -0.3213 -0.1794
 1088SOL    HW1 3460   2.027   1.019   3.913 -0.0472 -0.5794  0.3631
 1088SOL    HW2 3461   1.883   0.998   3.874 -0.4631 -0.6293  1.8732
 1089SOL     OW 3462   0.500   0.478   4.314  0.4195 -0.1306 -0.1571
 1089SOL    HW1 3463   0.590   0.501   4.338  0.0544  0.9805  0.1934
 1089SOL    HW2 3464   0.499   0.383   4.315  1.6222 -0.1656 -0.2664
 1090SOL     OW 3465   1.045   2.710   2.153  0.4266  0.2661  0.6154
 1090SOL    HW1 3466   1.025   2.640   2.090  0.6780  0.5702  0.1890
 1090SOL    HW2 3467   1.136   2.735   2.133  0.3622  0.6642  0.8123
 1091SOL     OW 3468   2.141   1.790   1.020  0.1720  0.6247  0.2272
 1091SOL    HW1 3469   2.226   1.765   0.984 -0.4342 -0.0944 -0.7654
 1091SOL    HW2 3470   2.132   1.882   0.998 -0.2265  0.1925 -1.6552
 1092SOL     OW 3471   3.301   2.990   3.311 -0.3715  0.0435 -0.1701
 1092SOL    HW1 3472   3.227   3.036   3.272  0.2809  1.4852  0.2236
 1092SOL    HW2 3473   3.297   2.902   3.274 -1.5876  0.4494 -1.0558
 1093SOL     OW 3474   3.681   1.412   3.460 -0.2660  0.2292  0.4428
 1093SOL    HW1 3475   3.606   1.360   3.489  0.5667 -1.4130 -0.2112
 1093SOL    HW2 3476   3.654   1.502   3.475 -2.8527 -0.2296 -0.8605
 1094SOL     OW 3477   4.371   1.152   4.772 -0.4118  0.2072 -0.1764
 1094SOL    HW1 3478   4.323   1.234   4.769  0.0309  0.4736 -0.1229
 1094SOL    HW2 3479   4.448   1.171   4.826  0.0266 -0.0617 -0.6932
 1095SOL     OW 3480   4.266   2.601   2.508 -0.5327 -0.3185  0.5782
 1095SOL    HW1 3481   4.240   2.674   2.564  2.1386  3.2233 -2.2511
 1095SOL    HW2 3482   4.244   2.631   2.419  2.6174 -1.8940 -0.9074
 1096SOL     OW 3483   2.938   4.112   0.578  0.0101  0.1023 -0.3093
 1096SOL    HW1 3484   2.978   4.199   0.578  0.2602 -0.0078  0.2785
 1096SOL    HW2 3485   3.011   4.052   0.595 -0.3936 -0.1054  0.7296
 1097SOL     OW 3486   2.697   4.398   3.006 -0.2032 -0.4584 -0.3005
 1097SOL    HW1 3487   2.689   4.323   2.946 -2.7399  0.6492 -1.5129
 1097SOL    HW2 3488   2.609   4.408   3.043 -0.3618  2.7503 -1.2961
 1098SOL     OW 3489   0.943   4.000   0.402 -0.3365 -0.6218  0.1718
 1098SOL    HW1 3490   0.924   4.058   0.476  1.4400  0.6218 -0.2957
 1098SOL    HW2 3491   0.948   4.058   0.326  3.2999 -0.9515 -0.0396
 1099SOL     OW 3492   2.328   2.548   1.565 -0.1649  0.1497 -0.0981
 1099SOL    HW1 3493   2.276   2.485   1.514  0.5347  0.5506 -1.3575
 1099SOL    HW2 3494   2.356   2.613   1.501  0.8836  0.6031  0.7914
 1100SOL     OW 3495   2.485   0.169   2.342 -0.1031  0.4974  0.0870
 1100SOL    HW1 3496   2.539   0.247   2.337 -0.3186  0.6084 -0.5359
 1100SOL    HW2 3497   2.456   0.153   2.252 -1.7426  0.8870  0.5080
 1101SOL     OW 3498   0.952   4.539   1.801  0.0406  0.3390  0.0932
 1101SOL    HW1 3499   0.950   4.634   1.785  1.2084  0.6697  1.6631
 1101SOL    HW2 3500   0.860   4.516   1.816 -0.1547  1.4664  0.8523
 1102SOL     OW 3501   1.419   1.674   4.349 -0.0282  0.4409  0.1036
 1102SOL    HW1 3502   1.339   1.696   4.301 -0.6239 -1.9660 -0.1559
 1102SOL    HW2 3503   1.390   1.657   4.438  0.1217 -0.6507 -0.0383
 1103SOL     OW 3504   0.806   0.585   1.171 -0.1450 -0.2313 -0.2009
 1103SOL    HW1 3505   0.862   0.634   1.110  0.3054 -0.2108  0.2251
 1103SOL    HW2 3506   0.764   0.653   1.223 -0.8975 -0.2266 -0.7936
 1104SOL     OW 3507   1.684   4.652   2.434  0.9709  0.4921 -0.0631
 1104SOL    HW1 3508   1.700   4.741   2.467 -0.0470  1.2828 -1.5986
 1104SOL    HW2 3509   1.696   4.659   2.339  0.0332 -0.8190 -0.3036
 1105SOL     OW 3510   4.320   4.781   4.717  0.2588 -0.8458 -0.1060
 1105SOL    HW1 3511   4.282   4.739   4.640  1.0938 -0.7277 -0.5866
 1105SOL    HW2 3512   4.365   4.858   4.683 -1.1437  0.4143  0.7457
 1106SOL     OW 3513   0.705   1.605   0.699  0.2320 -0.0516  0.5981
 1106SOL    HW1 3514   0.636   1.545   0.727  0.9188 -0.7604  0.8086
 1106SOL    HW2 3515   0.787   1.558   0.717  0.7763  0.8360  0.5033
 1107SOL     OW 3516   2.524   0.472   4.675  0.4537 -0.5732 -0.3775
 1107SOL    HW1 3517   2.550   0.562   4.693 -0.6203 -0.5122  1.1226
 1107SOL    HW2 3518   2.587   0.418   4.723 -0.6196 -0.4993  1.1828
 1108SOL     OW 3519   3.479   1.045   4.121 -0.4024 -0.4890  0.0427
 1108SOL    HW1 3520   3.532   1.009   4.192 -0.7469  0.8506  1.0352
 1108SOL    HW2 3521   3.447   0.968   4.074 -0.4684 -1.4639  1.5809
 1109SOL     OW 3522   0.152   0.857   4.206  0.8425  0.6404  0.0277
 1109SOL    HW1 3523   0.210   0.781   4.212  0.9719  0.8232  1.4244
 1109SOL    HW2 3524   0.177   0.911   4.281 -0.9033  0.8802  0.4665
 1110SOL     OW 3525   2.027   4.003   0.447 -0.3332  0.2053  0.0420
 1110SOL    HW1 3526   1.968   4.075   0.470  0.2249  0.2524  1.4182
 1110SOL    HW2 3527   1.971   3.939   0.403 -1.1808  0.7340  0.3257
 1111SOL     OW 3528   0.138   4.816   3.399 -0.1198  0.5542  1.0314
 1111SOL    HW1 3529   0.176   4.887   3.347 -0.9191 -0.2739 -0.7759
 1111SOL    HW2 3530   0.050   4.804   3.363  0.4430 -2.2236  0.3630
 1112SOL     OW 3531   0.955   0.727   2.856 -0.2406 -0.3356  0.2749
 1112SOL    HW1 3532   1.046   0.705   2.834 -0.9363 -1.8258 -1.3214
 1112SOL    HW2 3533   0.936   0.675   2.933 -0.2752 -1.4631 -0.4718
 1113SOL     OW 3534   1.836   3.533   1.080  0.0016  0.7230 -0.1444
 1113SOL    HW1 3535   1.776   3.561   1.150  0.4509  0.7128  0.2463
 1113SOL    HW2 3536   1.920   3.519   1.124  0.7828  2.5028 -0.9975
 1114SOL     OW 3537   1.058   2.662   2.886  0.1947 -0.2220 -0.3005
 1114SOL    HW1 3538   1.146   2.626   2.893 -0.0644 -0.8882 -0.4288
 1114SOL    HW2 3539   1.038   2.695   2.974  1.1622  1.3599 -0.6329
 1115SOL     OW 3540   3.769   0.852   1.058 -0.5946  0.2048  0.0481
 1115SOL    HW1 3541   3.752   0.889   0.971  1.5981 -1.8541 -1.4029
 1115SOL    HW2 3542   3.705   0.782   1.067 -0.2599 -0.1609 -0.3442
 1116SOL     OW 3543   4.133   2.859   0.563 -0.2355  0.0758  0.1035
 1116SOL    HW1 3544   4.199   2.860   0.632 -1.7315  0.5888  1.6217
 1116SOL    HW2 3545   4.068   2.924   0.592 -1.6771 -0.8051 -1.0138
 1117SOL     OW 3546   2.173   1.145   2.482  0.6174  0.3586  0.8646
 1117SOL    HW1 3547   2.144   1.170   2.394  1.1163 -2.0573 -0.0748
 1117SOL    HW2 3548   2.093   1.120   2.527  0.4518  0.7803  0.8088
 1118SOL     OW 3549   2.655   3.497   0.798 -0.0660  0.7059  0.1507
 1118SOL    HW1 3550   2.662   3.456   0.884 -1.3480  1.1989  0.5072
 1118SOL    HW2 3551   2.673   3.590   0.814 -0.2312  0.7853 -0.1249
 1119SOL     OW 3552   1.244   4.359   2.166 -0.1504 -0.2553  0.0259
 1119SOL    HW1 3553   1.243   4.423   2.237 -2.1345 -1.2521  0.9735
 1119SOL    HW2 3554   1.231   4.412   2.087  5.3202  1.3242 -0.2607
 1120SOL     OW 3555   2.720   1.337   2.848  0.1187 -0.3293  0.0984
 1120SOL    HW1 3556   2.656   1.408   2.842 -1.2320 -1.6100 -1.8932
 1120SOL    HW2 3557   2.713   1.306   2.938 -0.8540  0.6440  0.3837
 1121SOL     OW 3558   3.505   1.165   3.297  0.6080  0.5543  0.2219
 1121SOL    HW1 3559   3.477   1.232   3.359 -0.2458  1.2847 -0.9099
 1121SOL    HW2 3560   3.537   1.214   3.222 -0.1470 -0.2891 -0.6840
 1122SOL     OW 3561   3.601   1.391   3.119  0.0490  0.5284  0.2921
 1122SOL    HW1 3562   3.537   1.361   3.054 -1.0461  0.5724  1.3042
 1122SOL    HW2 3563   3.565   1.474   3.150  1.0881  1.0143  0.2387
 1123SOL     OW 3564   1.357   3.205   1.941 -0.4149 -0.7328  0.0588
 1123SOL    HW1 3565   1.422   3.196   1.871  0.9529  1.8017  0.8764
 1123SOL    HW2 3566   1.291   3.264   1.904  0.4269  0.7947  0.9071
 1124SOL     OW 3567   1.609   0.197   2.761 -0.1055  0.2193  0.1206
 1124SOL    HW1 3568   1.601   0.202   2.666 -0.8281  0.2591  0.1794
 1124SOL    HW2 3569   1.576   0.110   2.784  0.0036  0.2358  0.3449
 1125SOL     OW 3570   4.103   2.009   0.814  0.2882  0.1965  0.3656
 1125SOL    HW1 3571   4.182   2.039   0.861  1.1489  0.5035 -1.2149
 1125SOL    HW2 3572   4.133   1.993   0.725 -1.3815 -0.0369 -0.1817
 1126SOL     OW 3573   2.663   0.617   2.081 -0.5449  0.6346  0.4077
 1126SOL    HW1 3574   2.612   0.543   2.049  0.7494 -0.1776  0.1415
 1126SOL    HW2 3575   2.636   0.690   2.025 -1.4040  0.2263  0.2785
 1127SOL     OW 3576   4.717   3.868   2.988  0.5992  0.2259 -0.8097
 1127SOL    HW1 3577   4.678   3.793   2.942  0.5300 -1.2289  1.4599
 1127SOL    HW2 3578   4.806   3.874   2.954  0.2216 -0.0813 -1.9030
 1128SOL     OW 3579   2.285   0.857   4.330 -0.0277 -0.5090  0.1871
 1128SOL    HW1 3580   2.193   0.830   4.340 -0.0766 -0.6792 -0.5884
 1128SOL    HW2 3581   2.296   0.868   4.235  0.7122 -0.3347  0.2860
 1129SOL     OW 3582   0.156   1.798   0.051 -0.0219 -0.3138 -0.1160
 1129SOL    HW1 3583   0.077   1.746   0.040  0.4240 -0.7500 -1.4296
 1129SOL    HW2 3584   0.154   1.861  -0.021  1.3498 -1.0466 -0.8375
 1130SOL     OW 3585   0.059   1.624   0.295  0.3687 -0.1935 -0.4587
 1130SOL    HW1 3586   0.052   1.654   0.386 -1.7773 -1.8020 -0.0248
 1130SOL    HW2 3587   0.049   1.704   0.243 -2.8543  0.2984  0.6967
 1131SOL     OW 3588   3.824   4.154   4.315 -0.2623  0.3293  0.1786
 1131SOL    HW1 3589   3.769   4.212   4.367  1.5695 -1.2640  4.3018
 1131SOL    HW2 3590   3.914   4.176   4.341  0.6588 -2.1306 -0.5777
 1132SOL     OW 3591   2.905   0.541   4.625 -0.1233 -0.3733 -0.3290
 1132SOL    HW1 3592   2.913   0.517   4.533 -0.9967  0.8795 -0.7615
 1132SOL    HW2 3593   2.842   0.478   4.660  0.2168 -0.8599 -0.5732
 1133SOL     OW 3594   4.499   0.144   0.049  0.0072  0.7225 -0.0976
 1133SOL    HW1 3595   4.417   0.100   0.026  0.5038  0.1463 -0.8022
 1133SOL    HW2 3596   4.521   0.110   0.136 -0.0830  0.2476 -0.2563
 1134SOL     OW 3597   1.961   2.580   2.828 -0.3914  0.0472  0.2112
 1134SOL    HW1 3598   1.867   2.600   2.835 -0.7497 -1.9250  1.9175
 1134SOL    HW2 3599   2.002   2.632   2.897 -0.7913 -1.8744  1.9827
 1135SOL     OW 3600   3.054   3.327   2.479  0.0830  0.1270  0.1812
 1135SOL    HW1 3601   3.132   3.335   2.424  0.8838 -1.9792  0.8854
 1135SOL    HW2 3602   3.033   3.234   2.477 -1.2050  0.3443  1.6390
 1136SOL     OW 3603   0.222   3.411   1.449  0.4788 -0.1288 -0.0574
 1136SOL    HW1 3604   0.165   3.339   1.476  1.5251 -0.9199  0.0973
 1136SOL    HW2 3605   0.261   3.382   1.367  0.1123  0.7212 -0.5447
 1137SOL     OW 3606   4.261   1.406   4.669 -0.3458 -0.1977  0.0743
 1137SOL    HW1 3607   4.172   1.388   4.639 -0.6046  0.7076  0.2444
 1137SOL    HW2 3608   4.312   1.417   4.589 -0.4125 -0.5779 -0.0229
 1138SOL     OW 3609   1.573   1.979   0.274 -0.2855 -0.1498 -0.3823
 1138SOL    HW1 3610   1.527   1.937   0.346 -0.1296 -0.2403 -0.3333
 1138SOL    HW2 3611   1.504   2.016   0.219 -0.4862 -1.2324 -0.9017
 1139SOL     OW 3612   1.533   3.495   2.993 -0.4292 -0.2581  0.0549
 1139SOL    HW1 3613   1.472   3.459   3.057  0.3927  0.9842  1.5975
 1139SOL    HW2 3614   1.480   3.557   2.942 -0.2742  1.7688  2.2031
 1140SOL     OW 3615   0.955   0.195   3.351  0.3271 -1.0438 -0.5206
 1140SOL    HW1 3616   0.930   0.276   3.306 -0.5732 -1.3720 -0.6413
 1140SOL    HW2 3617   1.050   0.197   3.353  0.3195  0.8615  1.0406
 1141SOL     OW 3618   4.623   3.084   3.903  0.1857 -0.0765 -0.5377
 1141SOL    HW1 3619   4.616   3.085   3.998  1.1046 -0.8666 -0.4492
 1141SOL    HW2 3620   4.712   3.117   3.885  0.2060 -0.4218 -1.0921
 1142SOL     OW 3621   3.619   4.940   2.885 -0.0750 -0.1610  0.0535
 1142SOL    HW1 3622   3.591   4.867   2.941 -0.5374  0.9500  1.3233
 1142SOL    HW2 3623   3.542   4.997   2.879  0.5878  0.7407 -0.0607
 1143SOL     OW 3624   0.595   3.206   3.008 -0.7135  0.1208 -0.0536
 1143SOL    HW1 3625   0.571   3.194   2.916 -0.7284 -1.0736  0.0916
 1143SOL    HW2 3626   0.658   3.278   3.007 -0.5851  0.0100 -1.0228
 1144SOL     OW 3627   0.444   4.599   1.769 -0.3498  0.4156 -0.5890
 1144SOL    HW1 3628   0.497   4.652   1.710 -0.6785  0.3177 -0.9786
 1144SOL    HW2 3629   0.448   4.645   1.853  1.0371 -0.0347 -0.3849
 1145SOL     OW 3630   1.184   1.850   0.885  0.2481 -0.5790  0.0894
 1145SOL    HW1 3631   1.279   1.839   0.881  0.5227  1.4291  0.1662
 1145SOL    HW2 3632   1.170   1.945   0.880 -1.8508 -0.9072 -1.5896
 1146SOL     OW 3633   4.919   1.790   2.654 -0.1023 -0.2949 -0.0167
 1146SOL    HW1 3634   4.862   1.833   2.717 -1.9110 -2.3012 -0.1572
 1146SOL    HW2 3635   4.883   1.814   2.568  1.0917  0.7602 -0.2580
 1147SOL     OW 3636   1.294   0.741   1.986  0.2336  0.3295  0.2663
 1147SOL    HW1 3637   1.203   0.715   1.978  0.5149 -0.7834  0.5154
 1147SOL    HW2 3638   1.344   0.666   1.954  1.0769  0.5721  0.9596
 1148SOL     OW 3639   0.176   3.699   1.960  0.1345  0.5871 -0.6390
 1148SOL    HW1 3640   0.143   3.669   1.876  1.6812  1.1166 -1.4857
 1148SOL    HW2 3641   0.103   3.746   1.999 -0.8251 -0.2630 -1.3671
 1149SOL     OW 3642   4.265   3.210   2.225 -0.3156  0.0142  0.3932
 1149SOL    HW1 3643   4.244   3.244   2.312  0.0734  1.1657  0.0598
 1149SOL    HW2 3644   4.360   3.198   2.225 -0.0489  1.8063 -0.4455
 1150SOL     OW 3645   2.594   2.939   2.252  0.6862  0.2780  0.0344
 1150SOL    HW1 3646   2.627   3.009   2.308  1.5353  0.0426 -0.1583
 1150SOL    HW2 3647   2.593   2.862   2.309 -1.3565  0.6486  0.5919
 1151SOL     OW 3648   3.630   3.673   3.097  0.0169  0.3185  0.1360
 1151SOL    HW1 3649   3.603   3.642   3.184 -1.6224  2.5398  0.5000
 1151SOL    HW2 3650   3.594   3.608   3.036 -1.7570  0.4900  0.9565
 1152SOL     OW 3651   4.018   2.245   4.067  0.2815  0.0227  0.0245
 1152SOL    HW1 3652   3.943   2.305   4.064  0.2709  0.1678  1.7906
 1152SOL    HW2 3653   4.093   2.301   4.086  0.1925 -0.4915  2.2497
 1153SOL     OW 3654   1.810   1.601   4.413 -0.6223 -0.3872  0.5645
 1153SOL    HW1 3655   1.797   1.615   4.319  0.7993  1.1533  0.5657
 1153SOL    HW2 3656   1.777   1.681   4.454 -0.1693 -0.5684  1.2923
 1154SOL     OW 3657   1.799   3.375   2.978  0.2387 -0.2657 -0.1530
 1154SOL    HW1 3658   1.832   3.318   3.047 -0.6544 -2.1630 -1.2150
 1154SOL    HW2 3659   1.706   3.388   3.000 -0.2541 -1.5481 -1.3808
 1155SOL     OW 3660   0.154   1.229   4.724  0.2621  0.4541 -0.4949
 1155SOL    HW1 3661   0.249   1.219   4.727  0.0784 -1.4023  0.2228
 1155SOL    HW2 3662   0.121   1.142   4.703 -1.3181  0.8314  0.2908
 1156SOL     OW 3663   4.768   0.139   1.081  0.6427 -0.2626  0.0735
 1156SOL    HW1 3664   4.838   0.130   1.017  0.7440 -1.5863  0.3301
 1156SOL    HW2 3665   4.779   0.064   1.140 -0.6460 -0.1927  0.4504
 1157SOL     OW 3666   1.840   3.178   0.580  0.3781 -0.3853 -0.4962
 1157SOL    HW1 3667   1.903   3.250   0.594  0.7775 -0.5294 -1.4787
 1157SOL    HW2 3668   1.774   3.191   0.648  1.5920 -0.3803  0.7490
 1158SOL     OW 3669   2.734   0.355   4.794  0.3366 -0.3402 -0.0429
 1158SOL    HW1 3670   2.820   0.355   4.838  0.0290 -0.5472  0.5681
 1158SOL    HW2 3671   2.740   0.284   4.730  0.2379 -1.1047  0.7749
 1159SOL     OW 3672   3.371   1.799   0.554 -0.5829  1.0427  0.1003
 1159SOL    HW1 3673   3.442   1.862   0.568  0.8560 -0.6659  0.9402
 1159SOL    HW2 3674   3.387   1.765   0.466 -0.1404  0.4603  0.3912
 1160SOL     OW 3675   2.197   1.109   4.366  0.2168  0.4069  0.4430
 1160SOL    HW1 3676   2.242   1.026   4.378 -1.4785 -0.6513 -0.1940
 1160SOL    HW2 3677   2.144   1.120   4.446  0.4410  0.8820  0.5289
 1161SOL     OW 3678   0.302   3.102   2.602 -0.4901 -0.0136 -0.1697
 1161SOL    HW1 3679   0.279   3.192   2.583 -0.4899 -0.1035 -0.6212
 1161SOL    HW2 3680   0.239   3.073   2.667 -1.2812 -0.0735 -0.9478
 1162SOL     OW 3681   0.145   0.484   0.845  0.1352  0.2352 -0.6543
 1162SOL    HW1 3682   0.155   0.574   0.816 -2.0023  0.7256 -0.0585
 1162SOL    HW2 3683   0.211   0.473   0.914  0.8332  1.1227 -1.1660
 1163SOL     OW 3684   3.645   3.154   3.603  0.2060 -0.2878 -0.4680
 1163SOL    HW1 3685   3.623   3.061   3.603 -1.6020  0.0969 -0.0272
 1163SOL    HW2 3686   3.671   3.173   3.513 -0.7492 -0.9538 -0.8991
 1164SOL     OW 3687   1.774   3.848   0.296 -0.3168  0.8279  0.0811
 1164SOL    HW1 3688   1.788   3.754   0.299 -0.4579  0.7753 -0.6496
 1164SOL    HW2 3689   1.794   3.873   0.206 -0.8719  1.3989  0.0992
 1165SOL     OW 3690   1.648   0.293   3.010 -1.1173  0.4246 -0.6402
 1165SOL    HW1 3691   1.561   0.288   3.051 -1.0233  0.3034 -0.4524
 1165SOL    HW2 3692   1.634   0.259   2.921 -1.0231 -0.7771 -0.2126
 1166SOL     OW 3693   0.951   3.647   4.661  0.1346 -0.6620  0.2891
 1166SOL    HW1 3694   0.961   3.559   4.698 -1.9547  0.1819  3.3109
 1166SOL    HW2 3695   1.040   3.673   4.638  1.5661 -1.8890  3.7080
 1167SOL     OW 3696   2.895   1.838   3.006  0.0191 -0.0481  0.2768
 1167SOL    HW1 3697   2.924   1.749   3.023  0.4341  0.1953  0.8822
 1167SOL    HW2 3698   2.971   1.893   3.028  0.7489  0.3039 -2.6888
 1168SOL     OW 3699   4.874   2.189   0.772 -0.0364 -0.1100  0.1131
 1168SOL    HW1 3700   4.819   2.211   0.696  0.2297 -0.3743 -0.1577
 1168SOL    HW2 3701   4.942   2.256   0.773  0.5144 -0.6443 -0.4490
 1169SOL     OW 3702   1.572   1.362   1.039  0.5433  0.4554  0.0721
 1169SOL    HW1 3703   1.523   1.280   1.035  1.9886 -0.4073 -0.6864
 1169SOL    HW2 3704   1.571   1.394   0.949  0.5588  0.9441  0.2428
 1170SOL     OW 3705   0.748   2.825   3.770  0.2407  0.0428 -0.5500
 1170SOL    HW1 3706   0.716   2.876   3.844  0.5829 -0.2209 -0.2173
 1170SOL    HW2 3707   0.735   2.734   3.795 -1.1738 -0.0451 -1.5029
 1171SOL     OW 3708   1.761   0.793   2.686  0.1608  0.4803 -0.5717
 1171SOL    HW1 3709   1.765   0.760   2.775 -2.6900 -1.6796 -1.0769
 1171SOL    HW2 3710   1.719   0.879   2.694 -0.8552 -0.0617  0.1470
 1172SOL     OW 3711   0.185   1.230   0.262 -0.7070  0.5036  0.3502
 1172SOL    HW1 3712   0.235   1.223   0.181 -0.6893  1.0855  0.3046
 1172SOL    HW2 3713   0.130   1.152   0.264  0.3606 -0.2766  0.5095
 1173SOL     OW 3714   0.014   0.987   3.069  0.4832  0.1002  0.1989
 1173SOL    HW1 3715   0.009   0.914   3.007  1.2697  0.6826 -0.5864
 1173SOL    HW2 3716   0.108   1.004   3.077  0.2810  1.4410 -0.1353
 1174SOL     OW 3717   3.700   0.408   1.889 -0.0548 -0.4503 -0.3743
 1174SOL    HW1 3718   3.643   0.462   1.943  0.3921  0.0308 -0.3654
 1174SOL    HW2 3719   3.691   0.320   1.924 -0.2988 -0.2647  0.0357
 1175SOL     OW 3720   0.205   2.442   4.576 -0.0116 -0.1071 -0.9362
 1175SOL    HW1 3721   0.226   2.469   4.665  0.2056 -0.5693 -0.8463
 1175SOL    HW2 3722   0.111   2.457   4.567 -0.2415 -1.0897 -0.2670
 1176SOL     OW 3723   3.375   2.292   0.930 -0.4314 -0.1305  0.0482
 1176SOL    HW1 3724   3.420   2.316   1.012  1.4992  0.6012 -1.1319
 1176SOL    HW2 3725   3.444   2.255   0.875 -1.4491  0.3014 -1.6021
 1177SOL     OW 3726   1.030   2.684   2.421  0.3498  0.1066  0.2931
 1177SOL    HW1 3727   0.995   2.669   2.333  2.2712  0.3873 -0.5623
 1177SOL    HW2 3728   1.037   2.780   2.427 -0.4332  0.1269  1.0440
 1178SOL     OW 3729   3.362   0.830   0.509  0.2796 -0.3961 -0.1577
 1178SOL    HW1 3730   3.345   0.880   0.430  0.7739 -2.7682 -1.8921
 1178SOL    HW2 3731   3.399   0.893   0.571 -0.7044  1.6605 -1.5741
 1179SOL     OW 3732   2.735   2.349   4.184  0.4083  0.9845 -0.5081
 1179SOL    HW1 3733   2.692   2.272   4.147 -0.2281  1.3375 -0.5242
 1179SOL    HW2 3734   2.813   2.362   4.131 -0.2330  1.1889 -1.4236
 1180SOL     OW 3735   3.523   1.711   1.396 -0.5807  0.4419 -0.4273
 1180SOL    HW1 3736   3.505   1.800   1.424 -0.9219  0.4661 -0.7173
 1180SOL    HW2 3737   3.572   1.720   1.314 -0.6620  0.3646 -0.4853
 1181SOL     OW 3738   2.232   1.651   0.532  0.7102 -0.1995 -0.1963
 1181SOL    HW1 3739   2.200   1.597   0.603  1.2925 -1.9227 -1.1761
 1181SOL    HW2 3740   2.154   1.685   0.489  0.2657 -1.4811 -0.4368
 1182SOL     OW 3741   2.320   1.455   1.160  0.4185  0.6126 -0.3044
 1182SOL    HW1 3742   2.386   1.387   1.172  1.2064  1.1731 -1.3628
 1182SOL    HW2 3743   2.370   1.537   1.159  0.2685  0.8640 -4.6810
 1183SOL     OW 3744   1.796   4.496   1.885 -0.3271  0.0872  0.6390
 1183SOL    HW1 3745   1.732   4.426   1.898 -0.5836  0.0296 -0.8406
 1183SOL    HW2 3746   1.760   4.570   1.934 -0.2222 -0.6890  1.9381
 1184SOL     OW 3747   4.574   0.143   2.280  0.1394  0.0883  0.2547
 1184SOL    HW1 3748   4.591   0.165   2.188  0.7091 -0.1007  0.3085
 1184SOL    HW2 3749   4.652   0.094   2.307 -0.9902 -1.8807  0.1677
 1185SOL     OW 3750   0.148   2.683   1.562  0.2754  0.5068  0.0678
 1185SOL    HW1 3751   0.057   2.711   1.570  1.1095  3.2347  1.3952
 1185SOL    HW2 3752   0.149   2.624   1.487 -2.1750  2.2761 -1.4985
 1186SOL     OW 3753   4.326   2.688   2.922  0.1385 -0.3269 -0.6220
 1186SOL    HW1 3754   4.321   2.780   2.896 -0.9569 -0.2454 -0.1821
 1186SOL    HW2 3755   4.384   2.647   2.858  1.1868  0.8024 -0.4205
 1187SOL     OW 3756   4.092   1.879   1.901  0.2278 -0.8629  0.2937
 1187SOL    HW1 3757   4.006   1.859   1.863 -0.0077 -0.1070  0.4125
 1187SOL    HW2 3758   4.085   1.851   1.992 -0.1726 -0.0623  0.5168
 1188SOL     OW 3759   0.242   4.187   0.879 -0.4586 -0.4183  0.2672
 1188SOL    HW1 3760   0.288   4.103   0.881  0.1645 -0.2178 -2.0690
 1188SOL    HW2 3761   0.151   4.164   0.863 -0.2834 -0.6647 -0.4031
 1189SOL     OW 3762   0.180   3.690   3.478  0.2419  0.1021  0.9627
 1189SOL    HW1 3763   0.167   3.740   3.398  1.2509 -0.4578  0.4292
 1189SOL    HW2 3764   0.243   3.622   3.455  0.3839 -0.2151  2.1721
 1190SOL     OW 3765   0.264   4.609   3.134  0.1285 -0.0929 -0.4799
 1190SOL    HW1 3766   0.355   4.588   3.154  0.2382  0.5460 -0.2746
 1190SOL    HW2 3767   0.261   4.615   3.039  0.4244  0.3951 -0.4636
 1191SOL     OW 3768   0.436   0.869   0.674  0.2459  0.4125 -0.0851
 1191SOL    HW1 3769   0.453   0.963   0.678 -1.7462  0.8473 -0.9224
 1191SOL    HW2 3770   0.493   0.837   0.604  0.1893  1.1817 -0.4871
 1192SOL     OW 3771   2.565   2.207   3.715 -0.2941 -0.2694 -0.1522
 1192SOL    HW1 3772   2.485   2.165   3.682 -1.2832  0.6038  1.0259
 1192SOL    HW2 3773   2.536   2.255   3.792  1.4158 -0.0275  0.3773
 1193SOL     OW 3774   3.936   3.860   2.214  0.0780 -0.0977  0.5413
 1193SOL    HW1 3775   3.916   3.832   2.303 -1.2063  0.7615  0.5513
 1193SOL    HW2 3776   3.906   3.951   2.210  1.4951  0.3634 -0.3272
 1194SOL     OW 3777   4.902   4.190   4.857 -0.1106  0.1399  0.0042
 1194SOL    HW1 3778   4.872   4.268   4.904  0.8211  1.2694 -1.2052
 1194SOL    HW2 3779   4.854   4.118   4.897 -0.9265  1.3174  1.2253
 1195SOL     OW 3780   4.518   4.054   3.861 -0.3545 -0.1372 -0.1761
 1195SOL    HW1 3781   4.509   4.148   3.845 -2.2648 -0.3268 -0.3768
 1195SOL    HW2 3782   4.431   4.019   3.846  0.2688 -1.9131  0.2009
 1196SOL     OW 3783   3.486   0.056   0.988 -0.1300 -0.0800 -0.3606
 1196SOL    HW1 3784   3.520   0.005   0.914  0.8847  1.2355 -0.8313
 1196SOL    HW2 3785   3.395   0.073   0.965  0.1569  0.2676 -1.2932
 1197SOL     OW 3786   4.363   1.893   1.808 -0.4693 -0.7067 -0.3058
 1197SOL    HW1 3787   4.382   1.924   1.896 -0.3213 -1.1309 -0.1840
 1197SOL    HW2 3788   4.270   1.867   1.811 -0.7905  0.3775 -0.6063
 1198SOL     OW 3789   2.350   3.191   4.560 -0.4979  0.0941  0.1071
 1198SOL    HW1 3790   2.430   3.217   4.606 -0.3735  0.1559 -0.1448
 1198SOL    HW2 3791   2.350   3.096   4.565  0.6813 -0.0476 -1.7008
 1199SOL     OW 3792   0.214   1.515   4.614  0.3833  0.2603 -0.3747
 1199SOL    HW1 3793   0.196   1.441   4.672  0.1006 -1.6213 -2.7075
 1199SOL    HW2 3794   0.130   1.561   4.607 -0.1819 -0.8462 -1.0524
 1200SOL     OW 3795   0.559   2.619   3.940  0.8337 -0.1413  0.1204
 1200SOL    HW1 3796   0.478   2.574   3.963 -0.2088  1.4869 -0.1920
 1200SOL    HW2 3797   0.531   2.707   3.915  2.6838  0.3845 -0.2409
 1201SOL     OW 3798   2.134   2.449   4.313 -0.5681 -0.4599  0.1796
 1201SOL    HW1 3799   2.094   2.363   4.326 -0.7772 -0.3824  0.0613
 1201SOL    HW2 3800   2.226   2.437   4.335 -0.5776 -0.7389  0.0669
 1202SOL     OW 3801   3.370   4.012   2.494  0.0098  0.2256  0.7524
 1202SOL    HW1 3802   3.393   4.005   2.401  3.2278  0.1090  1.4478
 1202SOL    HW2 3803   3.275   4.007   2.495 -0.1222 -0.2517 -2.4945
 1203SOL     OW 3804   4.933   4.940   3.637  0.3055  0.2684 -0.9133
 1203SOL    HW1 3805   4.911   5.030   3.659  0.2387  0.1484 -0.4950
 1203SOL    HW2 3806   5.024   4.944   3.607  0.3891  0.4282 -0.6308
 1204SOL     OW 3807   4.155   2.097   4.700 -0.2292 -0.5323  0.5961
 1204SOL    HW1 3808   4.135   2.075   4.608  1.1907  0.2304  0.0711
 1204SOL    HW2 3809   4.119   2.185   4.711  1.6967  0.3956 -0.0234
 1205SOL     OW 3810   4.573   4.572   2.134  0.5630  0.1172  0.1068
 1205SOL    HW1 3811   4.583   4.554   2.040  1.0078  0.8416  0.0098
 1205SOL    HW2 3812   4.599   4.489   2.176  1.7370  0.2163 -0.3643
 1206SOL     OW 3813   4.224   0.031   2.521  0.3597 -0.1698 -0.3661
 1206SOL    HW1 3814   4.277   0.111   2.519  0.5356 -0.2752  0.0273
 1206SOL    HW2 3815   4.262  -0.023   2.451 -0.7963  0.7265 -1.7424
 1207SOL     OW 3816   1.401   4.839   2.478  0.0795 -0.3389 -0.5258
 1207SOL    HW1 3817   1.400   4.755   2.525  0.2798 -0.3188 -0.4851
 1207SOL    HW2 3818   1.464   4.893   2.526  0.6781 -0.4945 -1.1189
 1208SOL     OW 3819   4.305   4.175   4.881 -0.6679 -0.1319 -0.1717
 1208SOL    HW1 3820   4.224   4.124   4.890 -1.4872  0.8931 -1.4942
 1208SOL    HW2 3821   4.278   4.257   4.840  0.7145  1.1542  1.3193
 1209SOL     OW 3822   4.273   4.390   4.690 -0.1047  0.2385 -0.0954
 1209SOL    HW1 3823   4.298   4.358   4.603 -0.2426  2.0308 -0.8338
 1209SOL    HW2 3824   4.201   4.450   4.674 -0.7642 -0.1116  1.3830
 1210SOL     OW 3825   1.320   4.335   4.505 -0.0583 -0.2278 -0.0092
 1210SOL    HW1 3826   1.259   4.267   4.480  1.4874 -0.9962 -1.9220
 1210SOL    HW2 3827   1.334   4.322   4.599 -0.5087 -1.9555 -0.1552
 1211SOL     OW 3828   2.021   2.125   1.496  0.0636 -0.3309 -0.0389
 1211SOL    HW1 3829   2.023   2.109   1.590  0.2391 -1.3012 -0.2028
 1211SOL    HW2 3830   1.928   2.134   1.475 -0.0067 -0.6721  0.1292
 1212SOL     OW 3831   0.998   2.827   3.937  0.0913  0.1813  0.2832
 1212SOL    HW1 3832   0.965   2.837   3.847 -0.7035 -2.5875  0.1998
 1212SOL    HW2 3833   0.929   2.780   3.983  1.3134 -0.1515  1.8366
 1213SOL     OW 3834   4.321   4.893   3.007 -0.1546  0.6682 -0.7197
 1213SOL    HW1 3835   4.267   4.896   2.928 -0.2690 -0.0278 -0.6751
 1213SOL    HW2 3836   4.279   4.826   3.061  0.5166  0.4218 -0.5041
 1214SOL     OW 3837   1.098   1.346   0.051 -0.7093 -0.7321  0.0100
 1214SOL    HW1 3838   1.119   1.431   0.013 -0.8894 -0.8005 -0.2423
 1214SOL    HW2 3839   1.098   1.361   0.146  1.3825 -0.9165  0.0929
 1215SOL     OW 3840   4.430   0.869   2.252 -0.3120  0.2705  0.0887
 1215SOL    HW1 3841   4.480   0.945   2.220 -0.4307  0.0883 -0.5487
 1215SOL    HW2 3842   4.360   0.907   2.305 -1.7417  0.7924 -2.0288
 1216SOL     OW 3843   1.922   3.858   2.140  0.3835  1.2100  0.0215
 1216SOL    HW1 3844   1.907   3.914   2.216  1.5762  0.3632  0.9006
 1216SOL    HW2 3845   1.836   3.855   2.096 -0.4538  1.3202  1.5787
 1217SOL     OW 3846   0.691   3.344   3.649  0.2433 -0.3199  0.1107
 1217SOL    HW1 3847   0.677   3.372   3.558  1.7757 -1.6125 -0.5602
 1217SOL    HW2 3848   0.614   3.377   3.696 -1.3055 -0.8318 -1.9179
 1218SOL     OW 3849   1.762   2.922   3.236 -0.1151 -0.4511 -0.1630
 1218SOL    HW1 3850   1.800   2.836   3.218  0.3314 -0.1762 -0.5490
 1218SOL    HW2 3851   1.743   2.920   3.330 -0.0072 -0.9310 -0.1460
 1219SOL     OW 3852   2.756   1.837   1.363  0.1414  0.2199 -0.6125
 1219SOL    HW1 3853   2.848   1.815   1.381  0.8156  1.6390 -2.0574
 1219SOL    HW2 3854   2.760   1.924   1.323 -1.6458 -0.5215 -2.5844
 1220SOL     OW 3855   2.100   0.567   2.585  0.1198  0.5585 -0.3114
 1220SOL    HW1 3856   2.162   0.494   2.578  0.1239  0.2776  1.9711
 1220SOL    HW2 3857   2.015   0.528   2.562  0.1124 -0.2223  0.9428
 1221SOL     OW 3858   3.409   1.357   3.474  0.3107 -0.7815  0.2317
 1221SOL    HW1 3859   3.347   1.384   3.542 -2.3156 -0.9055 -1.9260
 1221SOL    HW2 3860   3.410   1.429   3.411  3.2800 -0.3249  0.6588
 1222SOL     OW 3861   4.730   1.244   1.940 -0.1245  0.4689 -0.5637
 1222SOL    HW1 3862   4.810   1.234   1.991 -1.9237 -1.3201  2.2530
 1222SOL    HW2 3863   4.693   1.328   1.969  0.5734  1.1680 -1.6649
 1223SOL     OW 3864   0.890   4.629   4.338  0.1572 -0.1815  0.1697
 1223SOL    HW1 3865   0.893   4.561   4.270 -0.5900 -1.1929  1.1015
 1223SOL    HW2 3866   0.800   4.662   4.333  0.5247  0.7716 -0.2905
 1224SOL     OW 3867   4.218   2.584   3.147  0.6929 -0.1362 -0.1278
 1224SOL    HW1 3868   4.259   2.620   3.069  0.1185  0.5674 -0.1120
 1224SOL    HW2 3869   4.275   2.512   3.173  0.3397 -1.0498 -1.7797
 1225SOL     OW 3870   3.893   3.744   0.799  0.1596 -0.1281 -0.4248
 1225SOL    HW1 3871   3.959   3.766   0.733  0.1554 -0.6642 -0.6173
 1225SOL    HW2 3872   3.902   3.649   0.810  1.7725  0.2343  2.0485
 1226SOL     OW 3873   3.255   4.333   3.215  0.4287 -0.0823 -0.2889
 1226SOL    HW1 3874   3.217   4.267   3.157  0.7903 -0.4511 -0.1105
 1226SOL    HW2 3875   3.325   4.287   3.261  1.2390  0.6569 -0.7698
 1227SOL     OW 3876   0.912   0.690   0.497  0.0466  0.1827  0.1566
 1227SOL    HW1 3877   0.973   0.708   0.569  0.1655 -0.3561  0.1975
 1227SOL    HW2 3878   0.895   0.776   0.458  1.9252  0.2068 -0.7220
 1228SOL     OW 3879   3.764   4.764   0.446  0.1526  0.2360  0.4386
 1228SOL    HW1 3880   3.690   4.748   0.504 -1.8932  1.9328 -1.5157
 1228SOL    HW2 3881   3.761   4.693   0.382  0.6141 -0.0406  0.7217
 1229SOL     OW 3882   4.502   1.983   3.973 -0.6934 -0.0701 -0.0370
 1229SOL    HW1 3883   4.519   1.920   3.902 -1.3131 -0.1121 -0.1517
 1229SOL    HW2 3884   4.559   1.954   4.044  0.4710  0.3913 -0.7537
 1230SOL     OW 3885   3.313   1.620   2.119  0.3650  0.7780  0.5368
 1230SOL    HW1 3886   3.362   1.702   2.126  1.6164  0.2319 -1.0778
 1230SOL    HW2 3887   3.327   1.576   2.203  1.9134  1.0544  0.4536
 1231SOL     OW 3888   0.807   2.986   0.302  0.0563  0.5799  0.1467
 1231SOL    HW1 3889   0.849   3.066   0.272  0.1468  0.5746  0.2584
 1231SOL    HW2 3890   0.790   3.001   0.395  0.0319  0.4871  0.1580
 1232SOL     OW 3891   3.565   2.807   4.684  0.4048 -0.1176 -0.3630
 1232SOL    HW1 3892   3.531   2.837   4.600  1.0337 -1.0556 -0.9715
 1232SOL    HW2 3893   3.522   2.723   4.699 -0.5762  0.5693  0.8279
 1233SOL     OW 3894   4.487   1.812   0.008 -0.7524 -0.6296 -0.4292
 1233SOL    HW1 3895   4.450   1.894  -0.027 -1.1492  0.3539  2.0333
 1233SOL    HW2 3896   4.568   1.839   0.051  0.2490 -1.9443 -1.4333
 1234SOL     OW 3897   1.465   2.480   2.687  0.3529 -0.1982 -0.0718
 1234SOL    HW1 3898   1.423   2.476   2.773 -0.4029  2.4327 -0.2163
 1234SOL    HW2 3899   1.407   2.536   2.635  0.8234 -1.6753 -2.3130
 1235SOL     OW 3900   3.176   3.032   0.442 -0.0174 -0.1679 -0.5228
 1235SOL    HW1 3901   3.106   2.967   0.447  0.3302 -0.4469  1.7596
 1235SOL    HW2 3902   3.154   3.098   0.507  2.0902 -0.5900  0.7323
 1236SOL     OW 3903   3.432   0.103   1.614 -0.5667 -0.3649 -0.1121
 1236SOL    HW1 3904   3.498   0.055   1.564  0.2088  0.7527 -0.2030
 1236SOL    HW2 3905   3.478   0.182   1.644 -1.4374 -0.2975  1.1160
 1237SOL     OW 3906   3.864   1.247   3.316  0.2172 -0.7498  0.1257
 1237SOL    HW1 3907   3.787   1.301   3.334  1.3841  1.6569 -1.5043
 1237SOL    HW2 3908   3.843   1.201   3.235 -0.4027 -2.0417  0.9951
 1238SOL     OW 3909   0.257   1.561   4.066 -0.5001  0.2383  0.5477
 1238SOL    HW1 3910   0.179   1.580   4.117 -0.4006 -0.0063  0.7932
 1238SOL    HW2 3911   0.235   1.483   4.015 -0.4427  0.2088  0.5663
 1239SOL     OW 3912   0.942   2.137   4.508 -0.1452  1.0925  0.2800
 1239SOL    HW1 3913   0.850   2.115   4.525 -0.2849  0.7967 -0.7961
 1239SOL    HW2 3914   0.975   2.064   4.456  0.5098  1.5288  0.0734
 1240SOL     OW 3915   2.692   0.326   1.595 -0.4272  0.0610 -0.5706
 1240SOL    HW1 3916   2.610   0.286   1.624  1.7059 -4.1179  0.3979
 1240SOL    HW2 3917   2.687   0.323   1.499 -0.8520 -1.5539 -0.5273
 1241SOL     OW 3918   0.706   2.453   3.780 -0.2470  0.0074  0.3720
 1241SOL    HW1 3919   0.707   2.420   3.870 -0.3277  1.0587  0.7764
 1241SOL    HW2 3920   0.657   2.535   3.785  1.5279  1.1522 -0.2486
 1242SOL     OW 3921   1.167   0.159   4.800  0.2926 -0.2102 -0.3943
 1242SOL    HW1 3922   1.128   0.073   4.789 -1.4338  0.7028 -1.9932
 1242SOL    HW2 3923   1.180   0.168   4.895 -1.5198 -1.3982  0.0233
 1243SOL     OW 3924   2.773   0.632   1.505  0.7480 -0.3261  0.2241
 1243SOL    HW1 3925   2.766   0.557   1.565 -1.6343  0.7728  1.4688
 1243SOL    HW2 3926   2.683   0.646   1.474  1.6211  0.2934 -2.2160
 1244SOL     OW 3927   3.326   4.820   1.770 -0.4712 -0.1572  0.2275
 1244SOL    HW1 3928   3.309   4.854   1.682 -1.4602  1.3546  0.9658
 1244SOL    HW2 3929   3.296   4.729   1.767  0.5315 -0.4727 -1.2867
 1245SOL     OW 3930   3.307   4.563   4.265  0.0054  0.2142 -0.2565
 1245SOL    HW1 3931   3.265   4.534   4.346 -1.1157  0.1099 -0.8562
 1245SOL    HW2 3932   3.348   4.484   4.229 -1.8981 -0.4058 -1.1988
 1246SOL     OW 3933   2.680   4.759   0.363  0.6294  0.0841 -0.6293
 1246SOL    HW1 3934   2.677   4.664   0.352  0.8991 -0.2930  2.0150
 1246SOL    HW2 3935   2.589   4.787   0.355  0.4100 -0.5439 -0.4044
 1247SOL     OW 3936   0.082   0.082   2.157  0.3737  0.0432  0.2956
 1247SOL    HW1 3937   0.068   0.171   2.124  0.5046  0.5998  1.6816
 1247SOL    HW2 3938   0.177   0.075   2.167  0.3473 -0.1835  0.3902
 1248SOL     OW 3939   3.329   1.024   0.312 -0.7656  0.4535 -0.0372
 1248SOL    HW1 3940   3.347   1.038   0.219  0.2316 -0.4011  0.0016
 1248SOL    HW2 3941   3.374   1.096   0.357  0.6155 -0.3499 -0.0969
 1249SOL     OW 3942   1.473   1.326   4.419 -0.3309  0.3827 -0.0677
 1249SOL    HW1 3943   1.380   1.344   4.422  0.2556  4.7667 -1.3974
 1249SOL    HW2 3944   1.502   1.365   4.336  2.6206 -1.3445  0.0147
 1250SOL     OW 3945   2.390   1.134   2.087 -0.5762  0.5036 -0.1763
 1250SOL    HW1 3946   2.369   1.145   1.994  0.3283 -2.0300 -0.7558
 1250SOL    HW2 3947   2.442   1.211   2.109 -0.8717  1.1963 -1.7316
 1251SOL     OW 3948   0.992   3.903   3.032 -0.2712 -0.0370 -0.1333
 1251SOL    HW1 3949   1.080   3.941   3.041 -0.4872  0.2165  1.0954
 1251SOL    HW2 3950   0.936   3.962   3.082 -0.7879 -1.4067  0.9734
 1252SOL     OW 3951   4.704   1.756   3.097  0.4905  0.1018  0.1703
 1252SOL    HW1 3952   4.766   1.825   3.118 -0.4086  0.3959  2.0777
 1252SOL    HW2 3953   4.676   1.775   3.008  2.6485  0.2909 -0.5294
 1253SOL     OW 3954   3.225   0.113   1.886 -0.0754 -0.0187 -0.3003
 1253SOL    HW1 3955   3.171   0.080   1.957  0.5256  0.2830  0.3062
 1253SOL    HW2 3956   3.270   0.035   1.852 -2.7196 -0.7594 -2.5067
 1254SOL     OW 3957   0.322   2.229   1.451  0.3847  0.5803 -0.2353
 1254SOL    HW1 3958   0.255   2.162   1.466  0.8679  0.0003 -0.6374
 1254SOL    HW2 3959   0.384   2.188   1.391  0.6511  1.4169 -0.5459
 1255SOL     OW 3960   2.665   1.699   2.037 -0.6350  0.0605 -0.8495
 1255SOL    HW1 3961   2.668   1.651   1.954 -1.2170  1.4247 -1.7013
 1255SOL    HW2 3962   2.714   1.779   2.019  1.5430 -0.7925  0.9675
 1256SOL     OW 3963   4.492   4.932   3.363  0.8110  0.0332 -0.0257
 1256SOL    HW1 3964   4.410   4.926   3.313  1.2573  0.6116 -0.8535
 1256SOL    HW2 3965   4.560   4.932   3.296  1.4830 -0.2358  0.6479
 1257SOL     OW 3966   1.847   4.923   2.235 -0.7987  0.3108  0.2062
 1257SOL    HW1 3967   1.790   4.908   2.310 -0.5058 -0.3434  0.3023
 1257SOL    HW2 3968   1.817   5.007   2.199  0.6485  1.9911  2.5465
 1258SOL     OW 3969   3.177   3.620   3.331 -0.0142  0.3391  0.1803
 1258SOL    HW1 3970   3.150   3.712   3.330  0.1932  0.3954 -0.4721
 1258SOL    HW2 3971   3.160   3.591   3.421 -1.2818  0.6549  0.0670
 1259SOL     OW 3972   3.686   2.056   2.404 -0.3823  0.4656  0.4573
 1259SOL    HW1 3973   3.656   2.084   2.318 -1.2167 -0.5697  0.3879
 1259SOL    HW2 3974   3.610   2.068   2.461 -0.3486 -0.3505  0.6936
 1260SOL     OW 3975   4.696   1.883   4.167 -0.4210 -0.1505  0.0614
 1260SOL    HW1 3976   4.695   1.800   4.215 -0.7947 -0.9130 -1.1931
 1260SOL    HW2 3977   4.768   1.932   4.205  0.5975 -1.5583  0.0421
 1261SOL     OW 3978   0.056   3.446   2.281 -0.3908 -0.1065 -0.4239
 1261SOL    HW1 3979   0.076   3.355   2.261  0.0247 -0.0842 -0.1154
 1261SOL    HW2 3980  -0.034   3.457   2.251 -0.5215 -0.6804 -0.2548
 1262SOL     OW 3981   0.369   1.532   1.932 -0.4600  0.1354  0.4410
 1262SOL    HW1 3982   0.274   1.529   1.926 -0.6707 -2.2326  2.9946
 1262SOL    HW2 3983   0.398   1.556   1.844 -3.3355 -1.2689 -1.0034
 1263SOL     OW 3984   2.068   0.281   3.199 -0.4788 -0.2877  0.1151
 1263SOL    HW1 3985   2.070   0.293   3.294 -3.5223  0.4002  0.2092
 1263SOL    HW2 3986   2.007   0.348   3.168  1.5931  0.5031 -2.5640
 1264SOL     OW 3987   1.210   1.304   4.684 -0.7596 -0.2147  0.4304
 1264SOL    HW1 3988   1.195   1.343   4.598  0.2059 -1.3433 -0.2781
 1264SOL    HW2 3989   1.265   1.368   4.730 -1.3594  0.4366  0.2586
 1265SOL     OW 3990   2.839   0.514   3.169 -0.2811 -0.1052 -0.0078
 1265SOL    HW1 3991   2.864   0.435   3.218 -2.8910 -1.5584 -0.8817
 1265SOL    HW2 3992   2.882   0.504   3.084 -2.5948 -1.9525 -1.0480
 1266SOL     OW 3993   2.486   1.813   4.258 -0.2710  0.2496  0.2848
 1266SOL    HW1 3994   2.475   1.798   4.164 -1.2688  2.1334  0.0439
 1266SOL    HW2 3995   2.475   1.908   4.268 -2.2164 -0.1314  2.5474
 1267SOL     OW 3996   1.495   1.741   3.681  0.1166  0.5184  0.4302
 1267SOL    HW1 3997   1.554   1.687   3.627 -0.7810  1.1606 -1.2692
 1267SOL    HW2 3998   1.450   1.678   3.737  0.7371 -0.2325  0.1060
 1268SOL     OW 3999   4.436   0.200   2.872 -0.2156  0.6740 -0.1397
 1268SOL    HW1 4000   4.414   0.117   2.914 -1.4786  0.8370 -0.4333
 1268SOL    HW2 4001   4.524   0.188   2.838  0.7422  0.4193  2.2369
 1269SOL     OW 4002   1.208   3.645   2.494 -0.1567  0.1253 -0.7948
 1269SOL    HW1 4003   1.165   3.712   2.442  0.4970  0.3609 -1.0474
 1269SOL    HW2 4004   1.182   3.562   2.454  1.9587  0.3352 -2.8728
 1270SOL     OW 4005   0.786   3.200   3.278  0.4775  0.1150  0.5214
 1270SOL    HW1 4006   0.839   3.141   3.331  1.0761 -1.0728 -1.3012
 1270SOL    HW2 4007   0.697   3.165   3.287  0.9330 -1.6616 -1.1796
 1271SOL     OW 4008   4.797   0.845   2.821  0.0540 -0.1971 -0.0154
 1271SOL    HW1 4009   4.781   0.927   2.774 -0.0487 -0.4643 -0.4510
 1271SOL    HW2 4010   4.736   0.782   2.782  0.4819 -0.6093 -0.0310
 1272SOL     OW 4011   3.193   1.977   1.347  0.0682  0.2540  0.5888
 1272SOL    HW1 4012   3.265   1.997   1.406  0.5286 -1.2934  0.6064
 1272SOL    HW2 4013   3.233   1.923   1.278 -0.9821 -0.2546  0.3535
 1273SOL     OW 4014   3.143   1.691   2.669  0.2643  0.2889  0.0140
 1273SOL    HW1 4015   3.081   1.760   2.644  1.4140  1.1582 -0.4852
 1273SOL    HW2 4016   3.087   1.616   2.690 -1.0063  1.2808  0.3268
 1274SOL     OW 4017   2.136   1.859   3.670  0.6801  0.0736  0.4306
 1274SOL    HW1 4018   2.210   1.798   3.679  2.3657  1.6549 -1.5526
 1274SOL    HW2 4019   2.062   1.803   3.647  1.4560 -1.4837  1.5274
 1275SOL     OW 4020   2.674   0.771   2.808 -0.4250 -0.2334  0.0028
 1275SOL    HW1 4021   2.721   0.757   2.726  1.3870  1.5344  0.6617
 1275SOL    HW2 4022   2.620   0.848   2.792  0.0199  0.1872  0.4678
 1276SOL     OW 4023   4.721   2.628   2.757  1.2227 -0.3983  0.3510
 1276SOL    HW1 4024   4.805   2.643   2.714  1.5808 -0.8902  0.8643
 1276SOL    HW2 4025   4.724   2.537   2.784  1.2422  0.0337  1.9055
 1277SOL     OW 4026   3.116   0.422   2.219  0.4654  0.5327 -0.1844
 1277SOL    HW1 4027   3.100   0.355   2.286 -0.7641  0.2983 -0.6868
 1277SOL    HW2 4028   3.033   0.429   2.172  0.5232  2.4753 -0.0913
 1278SOL     OW 4029   1.161   4.340   4.203 -0.0704  0.2173  0.0328
 1278SOL    HW1 4030   1.191   4.411   4.258  2.1936 -1.3640  0.9854
 1278SOL    HW2 4031   1.174   4.261   4.256 -2.3462 -0.9855 -1.0212
 1279SOL     OW 4032   1.869   2.940   4.075 -0.3085 -0.2221  0.2098
 1279SOL    HW1 4033   1.812   2.863   4.068  0.6984 -0.9700  0.0582
 1279SOL    HW2 4034   1.942   2.911   4.128 -0.6379  1.0891  1.4294
 1280SOL     OW 4035   4.471   2.972   3.002 -0.2745  0.2767 -0.0961
 1280SOL    HW1 4036   4.514   3.056   3.017 -1.1393  0.6016  0.6500
 1280SOL    HW2 4037   4.440   2.945   3.088 -0.8624 -0.3314 -0.4906
 1281SOL     OW 4038   0.033   1.427   0.092 -0.1131 -0.3358 -0.0633
 1281SOL    HW1 4039  -0.013   1.505   0.060  0.2502  0.8920  2.2174
 1281SOL    HW2 4040   0.003   1.357   0.034 -0.5837  1.4247 -2.1153
 1282SOL     OW 4041   2.125   1.744   4.805  0.1974 -0.2674  0.2963
 1282SOL    HW1 4042   2.127   1.837   4.782 -1.3520 -0.3330 -0.2766
 1282SOL    HW2 4043   2.040   1.713   4.772  1.3737 -2.2981 -1.1050
 1283SOL     OW 4044   2.810   3.093   0.218 -0.0191  0.4523  0.6507
 1283SOL    HW1 4045   2.828   3.168   0.162 -0.5245  0.5166  0.5700
 1283SOL    HW2 4046   2.796   3.130   0.305 -2.5747  0.7227  0.1912
 1284SOL     OW 4047   1.409   3.109   2.759 -0.2385  0.2997 -0.1468
 1284SOL    HW1 4048   1.490   3.099   2.708  0.8936 -0.1955  1.6646
 1284SOL    HW2 4049   1.388   3.020   2.788  0.1296  0.7598  1.6441
 1285SOL     OW 4050   1.853   3.882   4.536  0.0015  0.1921  0.6787
 1285SOL    HW1 4051   1.943   3.887   4.569  0.1512  0.0170  0.2981
 1285SOL    HW2 4052   1.858   3.920   4.448 -0.2975  0.1944  0.6636
 1286SOL     OW 4053   0.253   3.815   0.664 -1.2899 -0.2354 -0.4253
 1286SOL    HW1 4054   0.172   3.865   0.652 -1.8898 -1.2256 -0.5839
 1286SOL    HW2 4055   0.224   3.728   0.693 -0.2205 -0.1731  0.9358
 1287SOL     OW 4056   0.352   3.130   3.861  0.1528 -0.0828 -0.6028
 1287SOL    HW1 4057   0.335   3.222   3.881  0.3142 -0.0126 -0.7794
 1287SOL    HW2 4058   0.333   3.122   3.767  0.4656 -0.1468 -0.6637
 1288SOL     OW 4059   4.558   1.325   2.644 -0.2247 -0.0936 -0.0785
 1288SOL    HW1 4060   4.619   1.399   2.643  0.7457 -0.7522  2.4661
 1288SOL    HW2 4061   4.501   1.343   2.719 -0.7751 -1.3012 -0.1968
 1289SOL     OW 4062   1.455   4.163   2.211  0.1857  0.2517 -0.0456
 1289SOL    HW1 4063   1.406   4.244   2.199 -0.2127 -0.1365 -1.1466
 1289SOL    HW2 4064   1.528   4.188   2.269  1.3787  1.9534 -2.1176
 1290SOL     OW 4065   0.491   2.312   3.064  0.1845 -0.1347 -0.0394
 1290SOL    HW1 4066   0.433   2.243   3.031 -0.0058  0.0511 -0.0982
 1290SOL    HW2 4067   0.518   2.361   2.987 -1.5683  1.3192  0.1814
 1291SOL     OW 4068   3.017   0.895   2.237 -0.1676  0.6954  0.0915
 1291SOL    HW1 4069   2.954   0.910   2.166 -1.5362 -0.2408  1.0786
 1291SOL    HW2 4070   3.082   0.836   2.199 -1.3578 -0.4926 -0.1393
 1292SOL     OW 4071   3.389   2.359   0.542  0.2937  0.9608  0.3981
 1292SOL    HW1 4072   3.399   2.366   0.448 -1.5267 -1.6831 -0.1349
 1292SOL    HW2 4073   3.472   2.390   0.579  1.7978  0.2333 -2.1613
 1293SOL     OW 4074   2.302   1.696   2.429 -0.3171  0.1446 -0.0767
 1293SOL    HW1 4075   2.348   1.714   2.348 -1.5348  1.4077 -0.5354
 1293SOL    HW2 4076   2.284   1.601   2.427  2.5436 -0.4865  0.3478
 1294SOL     OW 4077   0.046   2.694   2.858 -0.2834  0.1584 -0.2817
 1294SOL    HW1 4078   0.025   2.701   2.765 -1.1395  0.6445 -0.0671
 1294SOL    HW2 4079   0.010   2.774   2.896  0.8653  0.3971  0.3327
 1295SOL     OW 4080   2.320   0.511   3.955  0.3283 -0.1491 -0.3946
 1295SOL    HW1 4081   2.255   0.537   4.021  0.9981 -1.8396  1.0111
 1295SOL    HW2 4082   2.395   0.569   3.972 -0.9620  2.3932 -2.5623
 1296SOL     OW 4083   1.361   3.056   1.252 -0.1182  0.4679  0.4027
 1296SOL    HW1 4084   1.284   3.044   1.307 -1.3278  0.9727 -1.1053
 1296SOL    HW2 4085   1.334   3.121   1.187  0.5571 -1.4212 -1.9127
 1297SOL     OW 4086   4.925   0.735   3.371 -0.3446 -0.0843  0.4192
 1297SOL    HW1 4087   4.895   0.752   3.461 -1.3097  0.7480 -0.0406
 1297SOL    HW2 4088   4.849   0.697   3.327 -0.3444  0.8263 -0.4092
 1298SOL     OW 4089   3.462   4.163   3.272 -0.0700 -0.1380 -0.5933
 1298SOL    HW1 4090   3.498   4.076   3.287 -0.6082 -0.5371 -1.5540
 1298SOL    HW2 4091   3.535   4.214   3.237  0.3937 -0.0306  0.4902
 1299SOL     OW 4092   3.492   1.306   3.801 -0.6400 -0.8566  0.2462
 1299SOL    HW1 4093   3.547   1.385   3.804 -0.1840 -1.1901  0.8319
 1299SOL    HW2 4094   3.542   1.240   3.848 -1.7366 -1.0635  1.1574
 1300SOL     OW 4095   1.758   0.165   4.907 -0.0751  0.0684  0.0600
 1300SOL    HW1 4096   1.680   0.191   4.859  0.0562 -0.3976 -0.4181
 1300SOL    HW2 4097   1.728   0.152   4.997 -0.1943  1.5755  0.2568
 1301SOL     OW 4098   2.040   0.712   4.313  0.1887 -0.0648 -0.7209
 1301SOL    HW1 4099   2.022   0.633   4.364  0.6229  0.8642  0.9444
 1301SOL    HW2 4100   2.027   0.686   4.222 -1.0690 -1.6646 -0.1195
 1302SOL     OW 4101   2.167   0.655   0.555  0.3146  0.1530 -0.4207
 1302SOL    HW1 4102   2.225   0.721   0.519  0.9057  0.9394  1.7881
 1302SOL    HW2 4103   2.225   0.594   0.601 -0.4537  0.2392  0.7273
 1303SOL     OW 4104   1.459   1.656   0.082  0.0994 -0.7283  0.1801
 1303SOL    HW1 4105   1.420   1.725   0.028 -0.2887 -0.2997  0.9915
 1303SOL    HW2 4106   1.553   1.660   0.061 -0.1574 -1.2258 -1.1802
 1304SOL     OW 4107   2.117   3.316   3.736  0.3442  0.2324 -0.5825
 1304SOL    HW1 4108   2.165   3.283   3.812 -0.5544 -0.5563 -0.3451
 1304SOL    HW2 4109   2.165   3.280   3.661  0.8583  0.4884 -0.3868
 1305SOL     OW 4110   4.737   1.534   2.674 -0.0791  0.2643  0.1354
 1305SOL    HW1 4111   4.752   1.529   2.579 -0.0334 -0.3971  0.1727
 1305SOL    HW2 4112   4.822   1.557   2.711 -0.2656  1.2779 -0.0389
 1306SOL     OW 4113   1.360   4.436   2.515  0.1367  0.1060 -0.3961
 1306SOL    HW1 4114   1.336   4.477   2.432  0.0938  0.9059 -0.0082
 1306SOL    HW2 4115   1.278   4.399   2.548 -0.4634  2.0973  0.5261
 1307SOL     OW 4116   0.545   0.866   4.253 -0.0566  0.7882 -0.8265
 1307SOL    HW1 4117   0.558   0.844   4.345  2.2053 -0.1386 -1.3100
 1307SOL    HW2 4118   0.452   0.848   4.237 -0.6869  1.6908  1.4165
 1308SOL     OW 4119   4.307   4.178   0.444 -0.5194  0.0638  0.2813
 1308SOL    HW1 4120   4.283   4.269   0.431 -1.2562 -0.2741 -0.9638
 1308SOL    HW2 4121   4.333   4.147   0.357  0.3474 -0.7440  0.8019
 1309SOL     OW 4122   3.956   3.890   1.026 -0.1859 -0.8807  0.4075
 1309SOL    HW1 4123   3.916   3.846   0.951  2.2305 -0.4609 -1.2263
 1309SOL    HW2 4124   3.984   3.819   1.084 -0.1867 -1.2950 -0.0943
 1310SOL     OW 4125   3.204   3.202   0.210 -0.6136 -0.2297  0.3489
 1310SOL    HW1 4126   3.290   3.230   0.178 -1.4008  0.2032 -1.4836
 1310SOL    HW2 4127   3.223   3.161   0.295  1.0024  2.8126  1.6139
 1311SOL     OW 4128   1.022   0.680   4.228  0.6350 -0.1679  0.4447
 1311SOL    HW1 4129   1.021   0.617   4.156  0.5044  0.0510  0.2537
 1311SOL    HW2 4130   1.025   0.626   4.307  0.6344 -0.4122  0.2796
 1312SOL     OW 4131   4.334   2.361   3.229  0.3724 -0.1990 -0.3961
 1312SOL    HW1 4132   4.288   2.278   3.234 -1.8823  0.9425 -0.9388
 1312SOL    HW2 4133   4.388   2.363   3.308 -2.1854 -0.7325  1.4994
 1313SOL     OW 4134   0.391   2.847   2.554  0.3300  0.3149 -0.4463
 1313SOL    HW1 4135   0.410   2.940   2.561  1.1483  0.2205 -1.3228
 1313SOL    HW2 4136   0.426   2.809   2.635  0.5021  0.6861 -0.3457
 1314SOL     OW 4137   1.270   1.522   1.249 -0.0352 -0.4910 -0.4745
 1314SOL    HW1 4138   1.359   1.494   1.230 -0.2808 -0.6237 -1.4543
 1314SOL    HW2 4139   1.268   1.615   1.224  0.1441 -0.1555  0.6611
 1315SOL     OW 4140   1.247   4.522   1.929 -0.3406  0.3254  0.5269
 1315SOL    HW1 4141   1.277   4.603   1.888 -0.8396  0.9447  1.3494
 1315SOL    HW2 4142   1.156   4.512   1.900 -0.1619 -0.1497  0.1200
 1316SOL     OW 4143   2.392   0.335   1.570 -0.1567 -0.1589  0.2028
 1316SOL    HW1 4144   2.314   0.280   1.576 -0.2978  0.1641  1.6338
 1316SOL    HW2 4145   2.391   0.387   1.650 -0.8926  3.0857 -1.7198
 1317SOL     OW 4146   3.400   0.715   0.052 -0.2762 -0.0499 -0.2896
 1317SOL    HW1 4147   3.404   0.810   0.059  0.4801 -0.1316  0.5338
 1317SOL    HW2 4148   3.442   0.695  -0.032  0.6586  0.2689  0.0978
 1318SOL     OW 4149   1.068   2.007   1.536 -0.5037  0.2574 -0.0863
 1318SOL    HW1 4150   1.136   1.996   1.469  0.0261  1.9656  0.1264
 1318SOL    HW2 4151   1.084   1.936   1.597  1.0976  0.5939 -0.0618
 1319SOL     OW 4152   0.911   3.507   3.423  0.0118 -0.0937 -0.0955
 1319SOL    HW1 4153   0.946   3.557   3.349 -2.4332  2.0080  0.0081
 1319SOL    HW2 4154   0.970   3.432   3.431  0.7489 -0.1271 -3.7759
 1320SOL     OW 4155   3.089   1.856   4.403  0.2327  0.3027 -0.5007
 1320SOL    HW1 4156   3.133   1.935   4.435  0.3868 -0.2086  0.6161
 1320SOL    HW2 4157   2.996   1.872   4.418  0.2415  0.3883 -0.5399
 1321SOL     OW 4158   4.662   0.783   0.837 -0.3537 -0.2499  0.2530
 1321SOL    HW1 4159   4.733   0.806   0.897  0.0647 -0.8539 -0.0027
 1321SOL    HW2 4160   4.642   0.864   0.791  0.8630 -0.2917 -0.3922
 1322SOL     OW 4161   2.289   0.358   0.312  0.1211  0.1905 -0.1204
 1322SOL    HW1 4162   2.378   0.358   0.276 -0.0069  0.0559 -0.4458
 1322SOL    HW2 4163   2.233   0.376   0.236 -0.2490 -1.3568 -0.2449
 1323SOL     OW 4164   2.788   4.385   4.292 -0.0926  0.3930  0.5098
 1323SOL    HW1 4165   2.836   4.394   4.375 -1.6231 -0.0572  1.4935
 1323SOL    HW2 4166   2.708   4.339   4.316 -1.1544  1.3559 -1.0106
 1324SOL     OW 4167   2.692   1.191   1.799 -0.2549 -0.2982 -0.6621
 1324SOL    HW1 4168   2.763   1.128   1.786 -0.0742 -0.5094  1.1457
 1324SOL    HW2 4169   2.736   1.275   1.814 -0.2966 -0.5871  1.3452
 1325SOL     OW 4170   3.876   0.307   1.541  0.1734  0.1528  0.0364
 1325SOL    HW1 4171   3.939   0.280   1.608  0.1490 -0.7657 -0.2970
 1325SOL    HW2 4172   3.886   0.243   1.471  2.1198  2.5997 -2.1130
 1326SOL     OW 4173   2.638   2.870   4.815 -0.3431 -0.3306 -0.6965
 1326SOL    HW1 4174   2.554   2.915   4.823 -0.9479 -1.1152 -2.1743
 1326SOL    HW2 4175   2.620   2.797   4.756  1.3509 -0.6110 -0.9124
 1327SOL     OW 4176   4.465   3.120   3.677  0.4535  0.2674  0.0020
 1327SOL    HW1 4177   4.489   3.071   3.756 -0.4839 -0.7599 -0.3353
 1327SOL    HW2 4178   4.545   3.168   3.654  0.2045  2.2150  2.6989
 1328SOL     OW 4179   1.588   4.713   1.455  0.2163 -0.5099  0.0111
 1328SOL    HW1 4180   1.577   4.796   1.408 -0.8506  0.4508  1.8275
 1328SOL    HW2 4181   1.607   4.740   1.545  0.9335 -2.2691  0.4201
 1329SOL     OW 4182   2.856   0.964   2.019 -0.0323  0.0895 -0.2161
 1329SOL    HW1 4183   2.835   1.033   2.083  0.4257 -0.0594  0.1019
 1329SOL    HW2 4184   2.777   0.957   1.965 -0.7917 -0.4286  0.9121
 1330SOL     OW 4185   3.366   3.702   4.478 -0.5034 -0.8388 -0.4799
 1330SOL    HW1 4186   3.366   3.649   4.398  3.5756  0.8611 -1.8582
 1330SOL    HW2 4187   3.446   3.676   4.524 -0.1532  1.6597  0.4909
 1331SOL     OW 4188   2.130   3.923   4.552 -0.4202  0.1233  0.0899
 1331SOL    HW1 4189   2.200   3.968   4.504  0.6658 -0.3004  1.2180
 1331SOL    HW2 4190   2.150   3.830   4.542 -2.6994 -0.2309 -2.3048
 1332SOL     OW 4191   2.374   3.354   1.122 -0.3173  0.2659 -0.2502
 1332SOL    HW1 4192   2.456   3.402   1.131 -0.7423  1.2441 -1.3159
 1332SOL    HW2 4193   2.399   3.262   1.129  0.8625  0.5564 -0.5085
 1333SOL     OW 4194   1.662   1.104   2.633  0.3322 -0.3820  0.2170
 1333SOL    HW1 4195   1.670   1.072   2.544 -2.7162  0.7370 -0.5860
 1333SOL    HW2 4196   1.567   1.114   2.647  0.8063  2.7154  2.3280
 1334SOL     OW 4197   4.294   1.894   2.765  0.3771 -0.2494 -0.1136
 1334SOL    HW1 4198   4.328   1.805   2.756  2.0616  0.3881 -0.5202
 1334SOL    HW2 4199   4.203   1.888   2.738  0.6609 -1.7038 -0.8535
 1335SOL     OW 4200   4.774   2.384   3.364  0.1060  0.1490  0.4553
 1335SOL    HW1 4201   4.752   2.292   3.352 -1.2407  0.4925  0.0987
 1335SOL    HW2 4202   4.869   2.385   3.374  0.2150 -1.1984 -0.2569
 1336SOL     OW 4203   0.841   4.090   1.165 -0.0266 -0.2630  0.0059
 1336SOL    HW1 4204   0.825   4.158   1.099  0.1380 -0.6682 -0.4590
 1336SOL    HW2 4205   0.823   4.133   1.249 -0.0895  0.3026 -0.2932
 1337SOL     OW 4206   4.798   3.422   0.544  0.8475  0.1628 -1.2122
 1337SOL    HW1 4207   4.719   3.371   0.528 -1.3722  2.3904  1.5792
 1337SOL    HW2 4208   4.844   3.374   0.613  0.1050  0.5684 -0.4180
 1338SOL     OW 4209   4.162   0.054   4.054  0.5494 -0.1798  0.1854
 1338SOL    HW1 4210   4.196   0.103   3.979  0.2085  0.9843  0.7674
 1338SOL    HW2 4211   4.080   0.015   4.023 -0.3643  1.5218  0.3484
 1339SOL     OW 4212   2.367   4.176   1.531  0.2100 -0.2132 -0.1345
 1339SOL    HW1 4213   2.448   4.131   1.509 -0.5031 -0.8444 -1.6511
 1339SOL    HW2 4214   2.379   4.206   1.621  1.8775 -0.8058 -0.1307
 1340SOL     OW 4215   4.153   4.641   4.094  0.0420 -0.4439 -0.3289
 1340SOL    HW1 4216   4.204   4.566   4.124 -0.6184  0.1625  2.6544
 1340SOL    HW2 4217   4.206   4.681   4.026  1.5781 -2.1391 -0.2010
 1341SOL     OW 4218   3.976   2.597   4.736 -0.2059  0.0097  0.3821
 1341SOL    HW1 4219   3.953   2.627   4.648 -0.3396  2.8258  1.2863
 1341SOL    HW2 4220   3.893   2.594   4.783 -0.0402 -0.7047  0.6442
 1342SOL     OW 4221   1.166   2.904   4.389  0.1589  0.2791 -0.4287
 1342SOL    HW1 4222   1.094   2.949   4.345  0.7733  2.3679  0.5739
 1342SOL    HW2 4223   1.125   2.862   4.464 -0.2411  0.1936 -0.6875
 1343SOL     OW 4224   2.709   3.910   2.164 -0.1770  0.1424 -0.3719
 1343SOL    HW1 4225   2.794   3.872   2.146  0.2630  1.8275 -2.1407
 1343SOL    HW2 4226   2.728   3.995   2.205 -0.9731  0.6120 -0.9318
 1344SOL     OW 4227   3.750   0.331   4.371  0.1537 -0.5353 -0.0475
 1344SOL    HW1 4228   3.676   0.287   4.329  1.3189 -0.2687 -2.5947
 1344SOL    HW2 4229   3.745   0.305   4.463 -3.2587 -0.2492 -0.0305
 1345SOL     OW 4230   3.052   1.555   1.983  0.1568  0.3530 -0.3545
 1345SOL    HW1 4231   3.137   1.539   2.022  0.4466 -0.0635 -1.1339
 1345SOL    HW2 4232   3.063   1.635   1.931 -0.2754  1.0094  0.5390
 1346SOL     OW 4233   2.095   2.319   3.355 -0.1819 -0.0494 -0.3087
 1346SOL    HW1 4234   2.023   2.358   3.306 -0.2633 -1.3735 -1.2772
 1346SOL    HW2 4235   2.053   2.277   3.430 -0.3290 -0.0983 -0.4176
 1347SOL     OW 4236   2.925   0.620   4.055 -0.0982  0.3016  0.2416
 1347SOL    HW1 4237   2.986   0.553   4.086  0.9155  1.0446 -0.1139
 1347SOL    HW2 4238   2.851   0.614   4.115  1.2105  0.7472  1.9800
 1348SOL     OW 4239   4.537   2.733   1.567  0.3735  0.3922 -0.3991
 1348SOL    HW1 4240   4.517   2.718   1.475  0.6550 -2.3654 -0.0975
 1348SOL    HW2 4241   4.523   2.827   1.580 -2.4113  0.4069 -2.5646
 1349SOL     OW 4242   2.249   0.075   0.360  0.1570  0.0002 -0.2536
 1349SOL    HW1 4243   2.299   0.157   0.365  1.0135 -0.5353  0.1243
 1349SOL    HW2 4244   2.177   0.087   0.421  1.8804 -0.5890  2.0102
 1350SOL     OW 4245   3.843   2.172   1.320  0.5420  0.2635 -0.4824
 1350SOL    HW1 4246   3.910   2.178   1.387 -1.2692  3.0446  1.2812
 1350SOL    HW2 4247   3.877   2.224   1.247  1.3407 -0.4654 -0.6424
 1351SOL     OW 4248   3.129   4.146   1.491 -0.4207 -0.0011  0.2695
 1351SOL    HW1 4249   3.188   4.155   1.416 -0.9599  0.0948 -0.1415
 1351SOL    HW2 4250   3.160   4.213   1.553 -1.7965  1.9751 -1.0670
 1352SOL     OW 4251   3.120   4.015   4.606 -0.0631 -0.1586  0.3963
 1352SOL    HW1 4252   3.056   4.080   4.578 -0.7349 -1.7623 -2.2793
 1352SOL    HW2 4253   3.205   4.059   4.597 -0.4364  0.2261 -2.1351
 1353SOL     OW 4254   4.717   0.508   2.770 -0.4715 -0.0824  0.0099
 1353SOL    HW1 4255   4.669   0.473   2.845 -0.3201  0.9678  0.6170
 1353SOL    HW2 4256   4.700   0.602   2.772  0.7876  0.1686 -0.3621
 1354SOL     OW 4257   2.895   3.972   4.754  0.7191 -0.1402  0.2891
 1354SOL    HW1 4258   2.808   3.976   4.714  0.1355 -1.3200  1.3656
 1354SOL    HW2 4259   2.955   3.976   4.680 -0.3126 -1.9658 -0.7344
 1355SOL     OW 4260   0.100   3.939   2.410  0.0109  0.3249 -0.3612
 1355SOL    HW1 4261   0.123   3.849   2.387 -0.1002 -0.1105  1.1433
 1355SOL    HW2 4262   0.077   3.935   2.503 -0.8535  1.7501 -0.4858
 1356SOL     OW 4263   4.225   0.849   1.679 -0.1151  0.0271  0.7084
 1356SOL    HW1 4264   4.230   0.944   1.674 -1.6414  0.1559  1.0668
 1356SOL    HW2 4265   4.244   0.819   1.590 -1.8939  0.8325 -0.0045
 1357SOL     OW 4266   0.055   3.881   2.935 -0.3396 -0.5292 -0.1720
 1357SOL    HW1 4267   0.142   3.919   2.952 -1.9746  2.8910  1.4111
 1357SOL    HW2 4268   0.071   3.819   2.863  3.2389  0.6507 -0.6338
 1358SOL     OW 4269   0.706   2.887   2.740  0.4785 -0.0821 -0.1546
 1358SOL    HW1 4270   0.735   2.804   2.702  1.0710  0.0200  0.0696
 1358SOL    HW2 4271   0.773   2.908   2.805  0.6643  0.8926 -0.6479
 1359SOL     OW 4272   1.179   0.159   0.652  0.8344 -0.0413 -0.2971
 1359SOL    HW1 4273   1.244   0.090   0.667 -0.1584 -1.2854 -1.4847
 1359SOL    HW2 4274   1.213   0.234   0.700  1.7751 -1.4498  1.3609
 1360SOL     OW 4275   2.966   1.535   3.614 -0.2885 -0.1804 -0.1084
 1360SOL    HW1 4276   2.871   1.536   3.620 -0.3590  4.0088  1.0345
 1360SOL    HW2 4277   2.994   1.475   3.683 -2.1385  0.7462  1.5504
 1361SOL     OW 4278   1.798   1.118   0.908  0.2034  0.0438  0.0578
 1361SOL    HW1 4279   1.741   1.070   0.968 -0.0979  3.0041  2.4225
 1361SOL    HW2 4280   1.740   1.185   0.870  1.3327  0.9821 -0.0696
 1362SOL     OW 4281   1.299   2.353   4.763  0.4837  0.6924  0.4984
 1362SOL    HW1 4282   1.228   2.342   4.826  0.1851 -2.1891 -0.2025
 1362SOL    HW2 4283   1.257   2.393   4.687 -0.2414 -0.3083  0.3617
 1363SOL     OW 4284   0.804   1.859   0.097 -0.7413  0.2286 -0.8762
 1363SOL    HW1 4285   0.774   1.948   0.080 -0.5863  0.4079 -0.2585
 1363SOL    HW2 4286   0.832   1.826   0.012 -0.8034  0.7711 -1.1108
 1364SOL     OW 4287   4.047   2.346   4.714  0.3239  0.0543 -0.2713
 1364SOL    HW1 4288   4.023   2.437   4.732  2.0294  0.5754 -0.4510
 1364SOL    HW2 4289   4.032   2.335   4.620  1.8255  0.7320 -0.6125
 1365SOL     OW 4290   2.116   2.414   2.425 -0.7919  0.1252  0.2274
 1365SOL    HW1 4291   2.196   2.371   2.396  0.5741  2.4600  0.2743
 1365SOL    HW2 4292   2.046   2.372   2.375  0.5394 -1.4343 -0.4032
 1366SOL     OW 4293   2.689   4.171   2.567 -0.1971  0.6664 -0.0021
 1366SOL    HW1 4294   2.738   4.173   2.485  0.2129 -0.2887  0.2114
 1366SOL    HW2 4295   2.720   4.093   2.612 -0.1671  1.3520  1.2218
 1367SOL     OW 4296   3.222   0.757   2.443  0.0315 -0.7299 -0.5749
 1367SOL    HW1 4297   3.189   0.846   2.429 -0.9943 -1.2110 -1.3298
 1367SOL    HW2 4298   3.295   0.749   2.382 -0.2851 -0.6146 -0.9730
 1368SOL     OW 4299   4.137   0.369   4.019 -0.1709 -0.1707 -0.0274
 1368SOL    HW1 4300   4.114   0.290   4.068 -1.6511 -0.4325 -1.0878
 1368SOL    HW2 4301   4.209   0.342   3.962  0.3512 -0.3298  0.6905
 1369SOL     OW 4302   1.954   3.512   3.521 -0.1623 -0.8954 -0.0066
 1369SOL    HW1 4303   1.969   3.580   3.586 -0.0818 -2.0139  1.1920
 1369SOL    HW2 4304   1.898   3.448   3.566  0.3558 -1.9715 -0.8371
 1370SOL     OW 4305   4.539   4.147   2.000  0.2456 -0.7570 -0.1317
 1370SOL    HW1 4306   4.631   4.173   2.010  1.3143 -4.1120 -0.0885
 1370SOL    HW2 4307   4.506   4.141   2.090 -0.2576  0.9301 -0.1582
 1371SOL     OW 4308   0.058   1.152   0.888 -0.3607  0.2934  0.8283
 1371SOL    HW1 4309   0.041   1.242   0.918  1.2317  0.5364  1.0918
 1371SOL    HW2 4310   0.027   1.096   0.959  1.0214  0.7621  1.8465
 1372SOL     OW 4311   0.535   4.022   4.214  0.2538 -0.2538  0.2602
 1372SOL    HW1 4312   0.504   4.020   4.123 -1.1392  1.6793  0.6204
 1372SOL    HW2 4313   0.613   3.967   4.214  0.6521  0.1813 -2.2541
 1373SOL     OW 4314   0.500   0.897   0.975 -0.4479  0.2596  0.2594
 1373SOL    HW1 4315   0.459   0.871   0.893 -1.2642  0.0788  0.7129
 1373SOL    HW2 4316   0.508   0.992   0.969  0.4932  0.1437 -0.4731
 1374SOL     OW 4317   2.414   0.570   2.679 -0.4962 -0.5689 -0.7351
 1374SOL    HW1 4318   2.482   0.508   2.653 -1.0457 -0.9290 -1.3654
 1374SOL    HW2 4319   2.402   0.555   2.772  0.1653 -0.6179 -0.6495
 1375SOL     OW 4320   1.813   2.455   2.315 -0.3539 -0.7167 -0.3032
 1375SOL    HW1 4321   1.751   2.436   2.385  0.5338 -2.1277  0.1513
 1375SOL    HW2 4322   1.838   2.369   2.281  0.8965 -0.1598 -0.8646
 1376SOL     OW 4323   2.640   4.896   1.995  0.5028 -0.1096 -0.2161
 1376SOL    HW1 4324   2.703   4.963   1.972 -0.5713  1.0277  0.0510
 1376SOL    HW2 4325   2.693   4.824   2.029  1.5849  1.2343  1.0457
 1377SOL     OW 4326   2.077   1.532   1.280 -0.7947  0.4923  0.5432
 1377SOL    HW1 4327   1.994   1.488   1.259 -0.3005  0.0019 -0.4912
 1377SOL    HW2 4328   2.136   1.505   1.209  0.1615  1.0742  1.1031
 1378SOL     OW 4329   4.686   1.138   0.171 -0.2757  0.2574 -0.6579
 1378SOL    HW1 4330   4.748   1.178   0.110  0.3031  0.4680  0.0473
 1378SOL    HW2 4331   4.699   1.044   0.160 -0.8056  0.2729 -1.4839
 1379SOL     OW 4332   1.632   0.137   3.745  0.0470  0.1417 -0.4602
 1379SOL    HW1 4333   1.669   0.104   3.827 -1.3788 -1.1936 -0.3130
 1379SOL    HW2 4334   1.613   0.229   3.763 -2.0258 -0.5716  1.4265
 1380SOL     OW 4335   3.517   1.370   2.032 -0.8018  0.1972  0.5568
 1380SOL    HW1 4336   3.451   1.321   1.983 -1.0995 -0.7679  1.8876
 1380SOL    HW2 4337   3.467   1.430   2.086 -0.4754  1.1510 -0.1655
 1381SOL     OW 4338   2.488   1.937   2.576  0.0806 -0.2578  0.0500
 1381SOL    HW1 4339   2.497   1.879   2.652 -1.0694 -0.4002  0.0891
 1381SOL    HW2 4340   2.566   1.992   2.579 -0.2876  0.2392  1.7719
 1382SOL     OW 4341   1.163   2.617   3.317  0.3321  0.4993  0.3384
 1382SOL    HW1 4342   1.151   2.685   3.251  0.8826  0.1310 -0.1502
 1382SOL    HW2 4343   1.229   2.559   3.280 -1.5884 -1.4991 -0.2032
 1383SOL     OW 4344   2.430   1.057   1.591 -0.2461  0.0600 -0.3231
 1383SOL    HW1 4345   2.525   1.070   1.584 -0.1478 -1.4896 -3.4088
 1383SOL    HW2 4346   2.393   1.118   1.527 -1.5189  1.4923  1.6641
 1384SOL     OW 4347   3.200   4.637   0.549  0.0113  0.0870 -0.4209
 1384SOL    HW1 4348   3.156   4.648   0.633 -2.0206  0.1690 -1.4325
 1384SOL    HW2 4349   3.136   4.666   0.484  1.9184  1.1123 -1.9650
 1385SOL     OW 4350   2.119   4.199   4.204 -0.1284 -0.1434  0.1390
 1385SOL    HW1 4351   2.100   4.172   4.293  0.5630  0.6340  0.5419
 1385SOL    HW2 4352   2.106   4.121   4.151 -3.4645  0.0736  0.4680
 1386SOL     OW 4353   4.297   4.763   3.908  0.1941  0.1750 -0.0500
 1386SOL    HW1 4354   4.325   4.840   3.958  2.0088 -0.3771 -0.1336
 1386SOL    HW2 4355   4.263   4.799   3.826  0.0640  0.9289  0.3262
 1387SOL     OW 4356   3.030   3.116   3.296  0.9156 -0.0666 -0.2201
 1387SOL    HW1 4357   2.976   3.050   3.340 -1.8958  1.3580 -1.2365
 1387SOL    HW2 4358   3.065   3.170   3.367  0.7468 -0.8643  0.4834
 1388SOL     OW 4359   1.591   4.910   2.941  0.6455  0.1068 -0.4367
 1388SOL    HW1 4360   1.602   4.816   2.926 -0.7433 -0.2245  0.4442
 1388SOL    HW2 4361   1.641   4.928   3.021  0.5093  0.0102 -0.3291
 1389SOL     OW 4362   4.560   1.930   4.587  0.0327  0.7131 -0.0516
 1389SOL    HW1 4363   4.621   1.992   4.627 -0.4590 -0.0581  2.0190
 1389SOL    HW2 4364   4.589   1.844   4.617 -1.3404  0.2306 -0.0308
 1390SOL     OW 4365   4.231   4.451   1.333  0.5946 -0.0501 -0.9050
 1390SOL    HW1 4366   4.308   4.401   1.361 -0.1944 -1.2561 -0.8155
 1390SOL    HW2 4367   4.208   4.503   1.409  1.3518  0.3631 -0.9482
 1391SOL     OW 4368   1.381   4.744   3.448 -0.0117 -0.1546  0.1254
 1391SOL    HW1 4369   1.298   4.781   3.416  0.3470  1.5573  1.0656
 1391SOL    HW2 4370   1.425   4.714   3.369 -1.3568 -0.7641 -0.4300
 1392SOL     OW 4371   1.968   4.799   3.660  0.2968  0.2613 -0.7149
 1392SOL    HW1 4372   2.019   4.799   3.579  0.1270  1.6916 -0.8534
 1392SOL    HW2 4373   1.883   4.833   3.635 -0.2920 -0.8192 -0.2265
 1393SOL     OW 4374   1.450   4.635   2.696 -0.2652  0.2938  0.0592
 1393SOL    HW1 4375   1.458   4.553   2.646  0.5283 -0.5041  1.4148
 1393SOL    HW2 4376   1.498   4.618   2.777  0.1833  2.2284  0.2474
 1394SOL     OW 4377   4.204   0.691   0.911  0.2644 -0.4600  0.4286
 1394SOL    HW1 4378   4.213   0.764   0.849  1.8335 -1.5856 -0.7473
 1394SOL    HW2 4379   4.134   0.719   0.970 -0.2652  1.3135 -0.9322
 1395SOL     OW 4380   0.438   2.862   3.619  0.1488 -0.2381  0.2648
 1395SOL    HW1 4381   0.487   2.795   3.572  0.1130 -2.1314  2.7307
 1395SOL    HW2 4382   0.495   2.939   3.619  2.3748 -1.7874  1.4587
 1396SOL     OW 4383   2.270   0.351   4.627 -0.1893 -0.2177 -0.2009
 1396SOL    HW1 4384   2.248   0.271   4.674  0.5198 -0.8866 -0.9672
 1396SOL    HW2 4385   2.364   0.361   4.639 -0.0613 -0.1868 -1.1322
 1397SOL     OW 4386   0.338   4.144   2.325 -0.1930 -0.6855 -0.0091
 1397SOL    HW1 4387   0.424   4.186   2.319 -1.4941  2.3229  0.7670
 1397SOL    HW2 4388   0.332   4.090   2.246  2.1601 -0.5461 -0.3540
 1398SOL     OW 4389   2.202   4.315   2.425  0.1204 -0.2424  0.2485
 1398SOL    HW1 4390   2.276   4.375   2.419  0.6793 -0.6438  2.2551
 1398SOL    HW2 4391   2.232   4.235   2.382  0.0854  0.2442 -0.7096
 1399SOL     OW 4392   0.754   3.837   3.196 -0.7007  0.4305  0.4594
 1399SOL    HW1 4393   0.790   3.750   3.178 -1.1884  0.5974 -1.6072
 1399SOL    HW2 4394   0.690   3.823   3.265 -0.7901 -0.8693  0.1401
 1400SOL     OW 4395   4.520   4.900   0.620 -0.6777  0.0798  0.4434
 1400SOL    HW1 4396   4.522   4.817   0.667 -0.2393 -0.4916 -0.5590
 1400SOL    HW2 4397   4.609   4.933   0.626 -0.9305  0.6675  1.1394
 1401SOL     OW 4398   1.411   0.518   1.897  0.3578 -0.0217 -0.3369
 1401SOL    HW1 4399   1.378   0.452   1.959  0.2695  0.8265  0.5489
 1401SOL    HW2 4400   1.466   0.469   1.836  1.0204 -0.7977  0.8447
 1402SOL     OW 4401   1.445   2.349   0.306  0.5837 -0.3044  0.4110
 1402SOL    HW1 4402   1.492   2.405   0.369  1.5783 -1.5836  0.8467
 1402SOL    HW2 4403   1.513   2.292   0.270 -0.1126 -0.1202 -1.2892
 1403SOL     OW 4404   2.019   1.492   3.456 -0.1543 -0.2158 -0.3678
 1403SOL    HW1 4405   2.113   1.485   3.471 -0.2372 -0.6665 -0.0165
 1403SOL    HW2 4406   1.984   1.528   3.537 -0.4679 -1.5460  0.1066
 1404SOL     OW 4407   4.932   0.383   3.575 -0.1525 -0.9127  0.2092
 1404SOL    HW1 4408   4.907   0.327   3.502  1.1713  0.7804 -1.6728
 1404SOL    HW2 4409   5.020   0.353   3.599 -0.2306 -0.9091  0.4933
 1405SOL     OW 4410   3.662   1.203   0.086 -0.2630 -0.4773  0.3720
 1405SOL    HW1 4411   3.686   1.293   0.063 -0.4826 -0.7298 -0.9397
 1405SOL    HW2 4412   3.705   1.188   0.170  0.9337  0.3921 -0.0485
 1406SOL     OW 4413   4.490   1.650   2.812  0.1939 -0.0787 -0.5283
 1406SOL    HW1 4414   4.419   1.585   2.807  0.3228 -0.2705  0.0610
 1406SOL    HW2 4415   4.562   1.610   2.764  0.2532 -0.3572 -0.2178
 1407SOL     OW 4416   3.630   2.995   2.005  0.3341  0.0371 -0.1585
 1407SOL    HW1 4417   3.693   2.999   2.077 -0.3898 -0.1851  0.5109
 1407SOL    HW2 4418   3.545   2.993   2.049 -0.1106 -0.4116 -1.0187
 1408SOL     OW 4419   4.908   4.853   0.548 -0.1891 -0.9098  0.0819
 1408SOL    HW1 4420   4.945   4.811   0.626 -1.8515 -0.9063  0.9183
 1408SOL    HW2 4421   4.882   4.940   0.578  0.5194 -0.3427 -0.8866
 1409SOL     OW 4422   0.700   4.176   1.441  0.8879 -0.2954  0.1371
 1409SOL    HW1 4423   0.638   4.191   1.513  0.1432 -0.2787 -0.5028
 1409SOL    HW2 4424   0.745   4.260   1.430 -0.1435  0.1894 -0.4856
 1410SOL     OW 4425   0.341   2.462   3.616  0.2590  0.1501  0.5338
 1410SOL    HW1 4426   0.359   2.397   3.548 -2.6698  0.6810 -0.9301
 1410SOL    HW2 4427   0.371   2.545   3.580  3.3684 -0.1500  2.1234
 1411SOL     OW 4428   3.310   4.306   2.036 -0.8986  0.3015 -0.5263
 1411SOL    HW1 4429   3.394   4.341   2.066 -1.0203 -1.2418  1.8111
 1411SOL    HW2 4430   3.332   4.258   1.956  0.6276 -0.8344  0.5232
 1412SOL     OW 4431   0.782   1.312   4.116 -0.1078 -0.3136  0.2752
 1412SOL    HW1 4432   0.738   1.390   4.149 -0.1986 -0.1342 -0.2710
 1412SOL    HW2 4433   0.712   1.260   4.076 -0.0604 -0.7082  0.6979
 1413SOL     OW 4434   2.293   0.031   1.441  0.4630  0.5496  0.3993
 1413SOL    HW1 4435   2.385   0.036   1.415  0.6003  0.2750  0.8295
 1413SOL    HW2 4436   2.285  -0.052   1.486 -0.0490  0.4721  0.1772
 1414SOL     OW 4437   2.915   4.225   4.905  0.2360  0.0205  0.1619
 1414SOL    HW1 4438   2.896   4.242   4.997  1.4423 -0.2891  0.4772
 1414SOL    HW2 4439   2.869   4.143   4.885 -0.9223  0.6381  0.1692
 1415SOL     OW 4440   4.283   3.172   4.812  0.0879 -0.3678 -0.3487
 1415SOL    HW1 4441   4.333   3.207   4.886  2.4146 -2.3734 -0.8517
 1415SOL    HW2 4442   4.194   3.202   4.828  0.8738  0.9835  2.1622
 1416SOL     OW 4443   0.900   0.469   0.336 -0.1460  0.1452  0.1576
 1416SOL    HW1 4444   0.925   0.554   0.375 -0.4974 -1.2028  3.7353
 1416SOL    HW2 4445   0.978   0.415   0.347 -0.5907 -0.5659 -0.1573
 1417SOL     OW 4446   2.104   1.260   1.396 -0.1966  0.6623  0.1798
 1417SOL    HW1 4447   2.126   1.348   1.365 -1.3063  0.9205  0.0782
 1417SOL    HW2 4448   2.065   1.218   1.319 -1.4652  0.7531  0.7497
 1418SOL     OW 4449   3.623   4.014   0.920 -0.2256 -0.1963 -0.0071
 1418SOL    HW1 4450   3.553   4.039   0.859 -0.0116 -1.4218 -0.8081
 1418SOL    HW2 4451   3.602   3.923   0.943 -0.1075  0.1427  1.5035
 1419SOL     OW 4452   4.763   2.487   3.715  0.1405 -0.2366  0.2222
 1419SOL    HW1 4453   4.802   2.558   3.767  1.8311 -0.3863 -0.7507
 1419SOL    HW2 4454   4.688   2.527   3.672  1.8370  1.4084 -1.3761
 1420SOL     OW 4455   3.670   4.327   1.590  0.0860  0.1031 -0.0884
 1420SOL    HW1 4456   3.632   4.241   1.605 -1.6245  0.5602 -1.4992
 1420SOL    HW2 4457   3.739   4.312   1.526  0.9145 -0.4152  0.8876
 1421SOL     OW 4458   0.025   3.549   2.636 -0.0160 -0.1011 -0.7067
 1421SOL    HW1 4459   0.061   3.628   2.678  1.0307 -1.3434  0.8615
 1421SOL    HW2 4460  -0.057   3.578   2.597 -1.3022  1.1550  2.5701
 1422SOL     OW 4461   0.273   4.389   4.334  0.1699 -0.1477  0.1105
 1422SOL    HW1 4462   0.317   4.365   4.252  1.1429 -1.5159  0.9894
 1422SOL    HW2 4463   0.199   4.329   4.339 -0.4774  0.6147 -0.2493
 1423SOL     OW 4464   0.075   3.294   3.586  0.4829 -0.3248 -0.1073
 1423SOL    HW1 4465   0.129   3.217   3.609 -0.3226 -1.3960 -1.6570
 1423SOL    HW2 4466   0.051   3.280   3.495 -1.1815  0.8907  0.1094
 1424SOL     OW 4467   2.399   4.216   3.608  0.1783 -0.1304  0.7143
 1424SOL    HW1 4468   2.388   4.186   3.698 -0.0629 -0.2915  0.6307
 1424SOL    HW2 4469   2.488   4.189   3.583  0.0797 -0.4805  0.7491
 1425SOL     OW 4470   3.763   0.957   0.389 -0.2064  0.1691  0.4325
 1425SOL    HW1 4471   3.739   0.888   0.328 -0.9098  1.1199 -0.3945
 1425SOL    HW2 4472   3.812   1.020   0.336 -0.1843  0.6454  1.0088
 1426SOL     OW 4473   3.906   2.414   0.083 -0.3248  0.2932  0.3721
 1426SOL    HW1 4474   3.940   2.361   0.011 -0.4672  1.1649 -0.3462
 1426SOL    HW2 4475   3.982   2.429   0.139  0.5293  2.1840 -1.1927
 1427SOL     OW 4476   2.617   1.669   4.718 -0.3058  0.0802  0.0493
 1427SOL    HW1 4477   2.549   1.718   4.672 -0.8593 -0.1604  0.6127
 1427SOL    HW2 4478   2.688   1.662   4.654 -1.1323 -0.3921 -0.8320
 1428SOL     OW 4479   0.402   0.390   2.942 -0.3670  0.1365 -0.0407
 1428SOL    HW1 4480   0.443   0.432   3.018  1.0120  0.4270 -0.8972
 1428SOL    HW2 4481   0.463   0.407   2.870 -0.1091 -2.6765 -0.6029
 1429SOL     OW 4482   0.763   0.673   1.794  0.0394 -0.5862  0.2304
 1429SOL    HW1 4483   0.762   0.678   1.698 -0.7508  0.5588  0.2670
 1429SOL    HW2 4484   0.791   0.584   1.814  1.1600 -0.5456 -1.0516
 1430SOL     OW 4485   1.239   4.032   4.256  0.0622 -0.2125 -0.1919
 1430SOL    HW1 4486   1.239   3.973   4.181 -1.1792 -1.9599  1.0914
 1430SOL    HW2 4487   1.147   4.038   4.282  0.3623  0.9956  0.7000
 1431SOL     OW 4488   1.983   1.562   2.798 -0.1702 -0.5016  0.2031
 1431SOL    HW1 4489   2.001   1.491   2.737  1.9962 -0.9886  1.3092
 1431SOL    HW2 4490   1.923   1.620   2.751  0.0673 -1.7205 -1.7046
 1432SOL     OW 4491   2.261   1.053   0.931  0.4522  0.2234  0.1051
 1432SOL    HW1 4492   2.285   0.972   0.887 -0.0265 -0.0576  0.3533
 1432SOL    HW2 4493   2.251   1.117   0.860  0.5682 -0.0007 -0.1132
 1433SOL     OW 4494   4.570   0.521   4.350  0.3578  0.1774  0.1234
 1433SOL    HW1 4495   4.622   0.446   4.322 -2.3575 -1.7887 -0.1207
 1433SOL    HW2 4496   4.630   0.574   4.402  1.9506 -3.2088  2.0988
 1434SOL     OW 4497   1.496   1.941   2.053 -0.1469 -0.0687 -0.4196
 1434SOL    HW1 4498   1.539   1.856   2.042 -0.8322 -0.8662  2.2325
 1434SOL    HW2 4499   1.403   1.921   2.048 -0.3322  0.3531  1.0053
 1435SOL     OW 4500   4.678   0.467   2.364  0.4930  0.2493  0.1427
 1435SOL    HW1 4501   4.757   0.488   2.415  1.3014 -0.6292 -0.7129
 1435SOL    HW2 4502   4.711   0.447   2.277 -0.7814  0.7449 -0.4726
 1436SOL     OW 4503   2.456   4.524   3.165 -0.3112  0.3910  0.1494
 1436SOL    HW1 4504   2.503   4.581   3.225 -0.6529 -1.1995  2.0552
 1436SOL    HW2 4505   2.404   4.583   3.110  1.4731  1.9949  0.0966
 1437SOL     OW 4506   2.568   0.722   0.717 -0.1714 -0.8308 -0.7478
 1437SOL    HW1 4507   2.613   0.698   0.636  0.2780 -2.7352  0.0074
 1437SOL    HW2 4508   2.638   0.727   0.783 -0.5321  0.6535 -0.4373
 1438SOL     OW 4509   1.761   4.732   4.383 -0.0082  0.6005  0.0548
 1438SOL    HW1 4510   1.744   4.826   4.376  0.3600  0.5701 -1.6654
 1438SOL    HW2 4511   1.850   4.726   4.417  0.3065  0.8923 -0.7117
 1439SOL     OW 4512   1.533   4.899   4.656 -0.1016 -0.3209  0.0706
 1439SOL    HW1 4513   1.524   4.984   4.700 -2.8990 -1.3340  1.7147
 1439SOL    HW2 4514   1.567   4.840   4.724 -0.2726 -0.9981 -0.4221
 1440SOL     OW 4515   1.023   3.279   3.527 -0.6378  0.0894 -0.0483
 1440SOL    HW1 4516   1.037   3.188   3.498 -0.4449  0.9051 -2.8606
 1440SOL    HW2 4517   0.963   3.272   3.601  0.5060 -2.3955  0.7533
 1441SOL     OW 4518   1.664   1.805   4.535  0.1103 -0.1672  0.5504
 1441SOL    HW1 4519   1.682   1.899   4.541 -0.4611 -0.0300  0.2327
 1441SOL    HW2 4520   1.576   1.800   4.497  0.0362 -0.8264  0.7891
 1442SOL     OW 4521   2.620   3.636   2.912 -0.4718 -0.0473 -0.1152
 1442SOL    HW1 4522   2.630   3.729   2.935  1.6315 -0.6171  1.5338
 1442SOL    HW2 4523   2.694   3.618   2.853 -0.1011 -0.9509  0.6024
 1443SOL     OW 4524   0.480   4.882   4.172  0.1087  0.0069 -0.1780
 1443SOL    HW1 4525   0.553   4.915   4.119 -0.4693  0.9858 -0.3817
 1443SOL    HW2 4526   0.465   4.793   4.139 -1.2089  1.0819 -2.7371
 1444SOL     OW 4527   3.309   4.236   4.705 -0.0037 -0.9210 -0.1656
 1444SOL    HW1 4528   3.320   4.330   4.692  1.7757 -0.7336  2.0293
 1444SOL    HW2 4529   3.237   4.229   4.767  0.2447 -0.9475  0.1245
 1445SOL     OW 4530   1.394   0.644   0.289 -0.0734  0.2643  0.7256
 1445SOL    HW1 4531   1.381   0.733   0.258  1.3845 -0.0028 -0.8050
 1445SOL    HW2 4532   1.489   0.633   0.292 -0.2097 -1.5048  0.0275
 1446SOL     OW 4533   3.648   0.924   2.026  0.1595  0.1417  0.5393
 1446SOL    HW1 4534   3.597   0.876   2.091  0.6961  0.5454  1.2692
 1446SOL    HW2 4535   3.607   0.902   1.942 -1.6039  0.9667  1.1417
 1447SOL     OW 4536   0.067   2.717   4.498  0.0804 -0.6128  0.6144
 1447SOL    HW1 4537   0.122   2.688   4.426 -0.5045 -1.0358  0.3286
 1447SOL    HW2 4538  -0.013   2.749   4.456 -0.2000 -0.7113  1.0626
 1448SOL     OW 4539   4.387   1.492   4.412  0.2154 -0.4228  0.0957
 1448SOL    HW1 4540   4.415   1.447   4.332  1.6359  1.3321 -0.4613
 1448SOL    HW2 4541   4.322   1.556   4.383 -0.1482 -0.5947  0.5268
 1449SOL     OW 4542   1.616   2.383   2.989  0.2209  0.4565  0.1461
 1449SOL    HW1 4543   1.703   2.376   2.950 -0.2477  2.3144 -1.3375
 1449SOL    HW2 4544   1.592   2.292   3.009  2.2851 -0.1433  0.1969
 1450SOL     OW 4545   1.069   3.010   1.286  0.2011  0.3910  0.0162
 1450SOL    HW1 4546   1.050   2.958   1.365 -1.7400 -0.6438 -1.0580
 1450SOL    HW2 4547   0.990   3.061   1.272 -0.6657 -1.5025 -2.7610
 1451SOL     OW 4548   2.065   1.699   2.166  0.0356  0.2744 -0.0531
 1451SOL    HW1 4549   2.022   1.618   2.138 -0.9866  2.0364 -4.4257
 1451SOL    HW2 4550   2.150   1.699   2.123 -0.1099  1.6374 -0.4073
 1452SOL     OW 4551   0.448   1.536   0.948  0.1976  1.0288 -0.4885
 1452SOL    HW1 4552   0.354   1.552   0.952 -0.1981 -0.7233 -1.5842
 1452SOL    HW2 4553   0.467   1.484   1.027 -0.6714 -2.3502 -2.3029
 1453SOL     OW 4554   3.400   4.938   3.385 -0.0383  0.0873 -0.0603
 1453SOL    HW1 4555   3.420   4.867   3.324 -0.3334 -0.8608  0.9150
 1453SOL    HW2 4556   3.311   4.921   3.414  0.6405 -0.4335  1.8579
 1454SOL     OW 4557   1.911   1.313   1.857 -0.6216 -0.0861  0.0345
 1454SOL    HW1 4558   1.984   1.272   1.810 -0.6149  0.0055 -0.0364
 1454SOL    HW2 4559   1.854   1.241   1.881 -0.4082 -0.1820  0.2645
 1455SOL     OW 4560   4.060   4.503   4.526 -0.1354  0.1258 -0.4630
 1455SOL    HW1 4561   3.974   4.526   4.491  0.0871  1.0118 -0.4529
 1455SOL    HW2 4562   4.117   4.576   4.502  0.4800 -0.1720  0.0385
 1456SOL     OW 4563   3.420   3.318   2.745  0.3869  0.4071 -0.5248
 1456SOL    HW1 4564   3.324   3.325   2.741  0.4130  0.7710 -0.5096
 1456SOL    HW2 4565   3.444   3.276   2.662  0.0640 -1.4226  0.2490
 1457SOL     OW 4566   2.752   2.199   0.816 -0.2464  0.6129 -0.2413
 1457SOL    HW1 4567   2.696   2.145   0.872  0.5102 -0.4143 -0.4578
 1457SOL    HW2 4568   2.740   2.163   0.728  1.5448 -0.3258 -0.1387
 1458SOL     OW 4569   3.405   0.157   2.921 -0.0998 -0.2617  0.9468
 1458SOL    HW1 4570   3.408   0.187   3.012 -0.1683  1.7890  0.3021
 1458SOL    HW2 4571   3.389   0.236   2.869 -1.9184 -1.6245 -0.7314
 1459SOL     OW 4572   0.055   0.027   3.987 -0.5856  0.9362  0.0873
 1459SOL    HW1 4573   0.073  -0.022   4.067 -2.9013  1.8679  1.2701
 1459SOL    HW2 4574   0.100  -0.022   3.918  2.3217  0.6336  2.0215
 1460SOL     OW 4575   3.409   2.482   3.338 -0.1611  0.2388 -0.2510
 1460SOL    HW1 4576   3.353   2.416   3.296  0.1692 -1.9127  2.4074
 1460SOL    HW2 4577   3.496   2.464   3.303 -0.2322 -0.0730 -0.2759
 1461SOL     OW 4578   3.322   0.549   4.592 -0.6353 -0.7870  0.4373
 1461SOL    HW1 4579   3.323   0.629   4.540 -1.0669 -1.3260 -0.4306
 1461SOL    HW2 4580   3.294   0.577   4.679  1.1006  0.2894  0.6895
 1462SOL     OW 4581   4.598   0.325   1.011 -0.6845 -0.0907 -0.3361
 1462SOL    HW1 4582   4.641   0.245   1.040  0.1251  1.3390  2.9537
 1462SOL    HW2 4583   4.668   0.377   0.972 -0.3262  0.4472  0.9600
 1463SOL     OW 4584   3.995   0.265   4.272 -0.0569  0.7403 -0.0753
 1463SOL    HW1 4585   4.061   0.268   4.342  1.8772  0.4406 -1.7921
 1463SOL    HW2 4586   3.913   0.288   4.316  1.1533  1.1096  2.1695
 1464SOL     OW 4587   0.866   1.610   4.856 -0.0648 -0.2064  0.3808
 1464SOL    HW1 4588   0.812   1.617   4.778 -0.6309  1.2822  0.8839
 1464SOL    HW2 4589   0.822   1.542   4.909  0.3998 -1.3186 -0.6171
 1465SOL     OW 4590   4.358   3.588   2.594 -0.0880  0.2120 -0.5084
 1465SOL    HW1 4591   4.287   3.529   2.568 -2.3501  2.2888  0.5439
 1465SOL    HW2 4592   4.424   3.530   2.632 -0.6513 -1.9355 -2.5914
 1466SOL     OW 4593   0.610   0.795   3.162  0.5559  0.0475  0.3991
 1466SOL    HW1 4594   0.649   0.770   3.246 -0.7859 -1.9794  0.4832
 1466SOL    HW2 4595   0.569   0.880   3.180 -0.0827 -0.5375  1.9575
 1467SOL     OW 4596   3.385   4.822   4.187 -0.0646  0.2619 -0.0176
 1467SOL    HW1 4597   3.321   4.858   4.126  0.1127 -0.1062 -0.4234
 1467SOL    HW2 4598   3.349   4.736   4.211 -0.9683  1.0584  1.6780
 1468SOL     OW 4599   1.076   4.730   4.519  0.0463  0.4166 -0.1516
 1468SOL    HW1 4600   0.999   4.710   4.467 -3.1512  0.6369  3.9998
 1468SOL    HW2 4601   1.103   4.817   4.490 -0.3099 -0.2105 -2.5800
 1469SOL     OW 4602   4.155   0.965   0.613 -0.6284 -0.0125  0.6113
 1469SOL    HW1 4603   4.240   0.985   0.652  1.1526 -0.5865 -2.5784
 1469SOL    HW2 4604   4.166   0.878   0.575 -3.0395 -0.5588  1.0114
 1470SOL     OW 4605   0.969   2.154   1.742  0.5809  0.4831  0.4068
 1470SOL    HW1 4606   1.016   2.122   1.666  0.7387  0.8354  0.3564
 1470SOL    HW2 4607   1.006   2.240   1.759 -1.0193  1.4015 -0.5097
 1471SOL     OW 4608   3.642   0.857   2.311  0.0222  0.9917 -0.5784
 1471SOL    HW1 4609   3.682   0.904   2.384  1.3323  0.8955 -1.2089
 1471SOL    HW2 4610   3.713   0.803   2.275 -1.0991 -0.4853 -0.6884
 1472SOL     OW 4611   3.904   3.964   1.390  0.6702  0.0002  0.6783
 1472SOL    HW1 4612   3.922   3.871   1.378 -0.7587 -0.1040 -1.0809
 1472SOL    HW2 4613   3.974   4.008   1.342  0.0922 -0.2506 -0.4321
 1473SOL     OW 4614   0.901   0.131   0.726 -0.5860  0.3045  0.0447
 1473SOL    HW1 4615   0.995   0.139   0.707 -0.5868 -1.1270 -0.6870
 1473SOL    HW2 4616   0.888   0.183   0.804  0.6328  1.3423 -0.4167
 1474SOL     OW 4617   1.193   3.746   4.548 -0.2721 -0.2615 -0.0173
 1474SOL    HW1 4618   1.153   3.763   4.463  0.8946 -0.7677 -0.6948
 1474SOL    HW2 4619   1.243   3.665   4.536  1.1322  0.4542  0.7115
 1475SOL     OW 4620   1.109   2.227   3.413  0.2526  0.1567  0.2836
 1475SOL    HW1 4621   1.129   2.226   3.507  0.0480  0.1307  0.3268
 1475SOL    HW2 4622   1.186   2.268   3.373  1.7015 -2.4996  0.1238
 1476SOL     OW 4623   3.394   1.452   0.016 -0.2110  0.2269  0.0655
 1476SOL    HW1 4624   3.347   1.458   0.099 -0.2839 -2.1833  0.2623
 1476SOL    HW2 4625   3.457   1.381   0.028 -1.0838 -1.0868 -2.2812
 1477SOL     OW 4626   3.000   3.112   1.740  0.5614 -0.2846 -0.1436
 1477SOL    HW1 4627   2.933   3.180   1.750  1.6062  1.0092 -1.4894
 1477SOL    HW2 4628   3.028   3.093   1.829  0.7651  1.6262  0.2371
 1478SOL     OW 4629   1.343   0.997   4.342  0.2587 -0.0767 -0.1786
 1478SOL    HW1 4630   1.255   0.959   4.340  0.8662 -1.5525 -0.4274
 1478SOL    HW2 4631   1.397   0.937   4.290  1.8512 -0.3844  1.7038
 1479SOL     OW 4632   1.343   1.195   1.655 -0.0146  0.2235  0.1156
 1479SOL    HW1 4633   1.319   1.214   1.564 -0.5771  1.0753  0.4318
 1479SOL    HW2 4634   1.306   1.268   1.705 -0.8642 -0.9030  1.1841
 1480SOL     OW 4635   1.038   2.581   1.163 -0.1452 -0.3135 -0.3281
 1480SOL    HW1 4636   0.956   2.535   1.144 -1.0308  1.5815 -1.3594
 1480SOL    HW2 4637   1.043   2.582   1.259 -0.5763 -1.6817 -0.2650
 1481SOL     OW 4638   2.485   1.027   2.717 -0.3948  0.0046  0.0821
 1481SOL    HW1 4639   2.417   1.093   2.726 -1.1839 -0.5112 -1.7560
 1481SOL    HW2 4640   2.457   0.973   2.643  0.8209 -1.6749  0.7880
 1482SOL     OW 4641   1.377   1.515   2.450 -0.0644  0.4815 -0.4987
 1482SOL    HW1 4642   1.421   1.434   2.425  0.9128  1.0510 -0.6798
 1482SOL    HW2 4643   1.296   1.487   2.493  1.5357 -0.7016  1.9629
 1483SOL     OW 4644   4.784   1.905   1.813  0.2636 -0.2380  1.0257
 1483SOL    HW1 4645   4.768   1.985   1.863  1.1201  1.4310 -1.1866
 1483SOL    HW2 4646   4.873   1.879   1.836  0.7319  0.6453  0.2978
 1484SOL     OW 4647   4.648   2.513   3.175 -0.7093 -0.7274  0.8682
 1484SOL    HW1 4648   4.685   2.456   3.242  1.5119 -0.1116  0.2407
 1484SOL    HW2 4649   4.626   2.454   3.102  0.4333 -0.9616  0.6941
 1485SOL     OW 4650   2.017   0.102   3.013 -0.1086 -0.1027  0.3807
 1485SOL    HW1 4651   2.046   0.159   3.084  0.5753  0.1279 -0.0688
 1485SOL    HW2 4652   1.921   0.104   3.018 -0.0798  0.4661  0.8562
 1486SOL     OW 4653   3.852   3.651   0.105 -0.1005 -0.5113  0.2258
 1486SOL    HW1 4654   3.805   3.645   0.188 -1.0078  0.3468 -0.1959
 1486SOL    HW2 4655   3.871   3.744   0.094  1.0528 -0.7500  0.0144
 1487SOL     OW 4656   0.087   2.439   3.303 -0.5114  0.0391  0.6023
 1487SOL    HW1 4657   0.182   2.445   3.291 -0.4531  0.0802  1.0709
 1487SOL    HW2 4658   0.053   2.430   3.214 -0.1481  1.0594  0.3496
 1488SOL     OW 4659   0.980   1.617   3.491 -0.3190  0.3914 -0.4302
 1488SOL    HW1 4660   1.045   1.552   3.519 -0.7340 -1.0210 -2.5391
 1488SOL    HW2 4661   1.031   1.697   3.479  0.7497 -0.2687 -0.4892
 1489SOL     OW 4662   0.941   1.255   0.524 -0.2250 -0.3378  0.4878
 1489SOL    HW1 4663   1.014   1.217   0.572 -0.1425  0.4290  1.0058
 1489SOL    HW2 4664   0.923   1.337   0.570  0.4829  0.9234 -1.3626
 1490SOL     OW 4665   0.155   1.042   3.986  0.1319  0.3738  0.0635
 1490SOL    HW1 4666   0.171   1.130   4.021  0.1215  0.7519 -0.8431
 1490SOL    HW2 4667   0.141   0.988   4.063 -0.9347  1.3824  0.6173
 1491SOL     OW 4668   1.805   2.875   0.218 -0.4922 -0.7802  0.5067
 1491SOL    HW1 4669   1.749   2.858   0.142 -0.6524 -2.5209  0.9686
 1491SOL    HW2 4670   1.894   2.865   0.184 -0.3634  2.3086 -0.3042
 1492SOL     OW 4671   0.127   0.406   0.306 -0.0732 -0.3594  0.0884
 1492SOL    HW1 4672   0.098   0.471   0.370 -1.2147 -0.7286 -0.0197
 1492SOL    HW2 4673   0.159   0.457   0.232 -1.0257  0.1046 -0.0211
 1493SOL     OW 4674   2.099   2.072   1.047 -0.9477 -0.1824  0.0629
 1493SOL    HW1 4675   2.079   2.115   0.964 -0.6948  0.5635  0.3804
 1493SOL    HW2 4676   2.102   2.144   1.111 -0.4065 -0.6584  0.5827
 1494SOL     OW 4677   1.225   1.518   0.905 -0.2469 -0.8105  0.0684
 1494SOL    HW1 4678   1.160   1.497   0.972  0.2550  0.1683  0.8907
 1494SOL    HW2 4679   1.178   1.573   0.843 -0.3396 -0.4731  0.4277
 1495SOL     OW 4680   2.806   1.628   1.642  0.3246 -0.1492 -0.1327
 1495SOL    HW1 4681   2.897   1.650   1.621  0.8053 -0.7429  1.1753
 1495SOL    HW2 4682   2.789   1.548   1.593  0.5258 -0.0573 -0.3544
 1496SOL     OW 4683   0.829   1.808   1.666  0.1239  0.2495  0.1803
 1496SOL    HW1 4684   0.791   1.835   1.750 -1.1839 -1.4438  0.1826
 1496SOL    HW2 4685   0.758   1.818   1.603  0.6787  0.1549 -0.4762
 1497SOL     OW 4686   0.751   2.009   4.700 -0.1696 -0.2868  0.5803
 1497SOL    HW1 4687   0.693   2.041   4.632 -0.6933  1.3821  1.7286
 1497SOL    HW2 4688   0.711   2.038   4.782  1.3348 -0.6727  1.5152
 1498SOL     OW 4689   3.835   0.090   3.006 -0.2315  0.3460  0.3269
 1498SOL    HW1 4690   3.833   0.162   2.943 -0.6382 -0.8175 -1.0295
 1498SOL    HW2 4691   3.788   0.019   2.963 -0.5643 -0.4776  1.9743
 1499SOL     OW 4692   1.142   2.748   1.801 -0.6266  0.2148  0.2257
 1499SOL    HW1 4693   1.181   2.664   1.826 -0.7890 -0.0482 -0.3852
 1499SOL    HW2 4694   1.217   2.807   1.793 -0.6478  0.5801  2.2870
 1500SOL     OW 4695   4.182   3.177   4.393 -0.0002 -0.2892  0.0151
 1500SOL    HW1 4696   4.198   3.256   4.342 -1.6666 -0.1714 -0.3830
 1500SOL    HW2 4697   4.131   3.206   4.468  1.1421 -0.6979  0.9815
 1501SOL     OW 4698   1.549   1.257   0.365  0.0032 -0.0879 -0.3503
 1501SOL    HW1 4699   1.488   1.329   0.352  0.3157  0.0726 -0.9642
 1501SOL    HW2 4700   1.495   1.185   0.398  0.0566  1.1760  2.8483
 1502SOL     OW 4701   1.638   3.909   2.101 -0.0409  0.5970  0.0080
 1502SOL    HW1 4702   1.618   3.995   2.137 -1.8890 -0.2193  1.0882
 1502SOL    HW2 4703   1.623   3.849   2.173 -0.0162 -0.7539 -1.0752
 1503SOL     OW 4704   0.614   0.308   1.491 -0.2354  0.1326 -1.2968
 1503SOL    HW1 4705   0.526   0.292   1.457 -0.0714  0.5923 -1.9482
 1503SOL    HW2 4706   0.611   0.399   1.522 -0.7745 -0.6550  1.1725
 1504SOL     OW 4707   2.846   3.312   0.083  0.0289  0.2680 -0.0465
 1504SOL    HW1 4708   2.771   3.348   0.132  0.2147 -0.5103  0.8321
 1504SOL    HW2 4709   2.893   3.389   0.053  0.2226  0.7987  1.5094
 1505SOL     OW 4710   4.430   1.601   3.858  0.0552 -0.0818 -0.2208
 1505SOL    HW1 4711   4.422   1.511   3.824  1.8355 -0.0716 -0.7856
 1505SOL    HW2 4712   4.416   1.593   3.952 -1.3028 -0.6918 -0.4422
 1506SOL     OW 4713   2.366   4.844   1.071  0.5300  0.1658 -0.1304
 1506SOL    HW1 4714   2.288   4.869   1.022  0.4525 -0.7720 -0.5176
 1506SOL    HW2 4715   2.333   4.785   1.140  0.7738  0.5802  0.3476
 1507SOL     OW 4716   0.329   3.876   1.791  0.5167  0.6430 -0.2118
 1507SOL    HW1 4717   0.351   3.783   1.793 -2.4595 -0.2900 -2.3650
 1507SOL    HW2 4718   0.237   3.879   1.819  0.8531  3.1027  0.8258
 1508SOL     OW 4719   3.435   2.031   1.506 -0.5451  0.0984  0.1068
 1508SOL    HW1 4720   3.516   2.008   1.461 -1.1156  1.3485 -1.6617
 1508SOL    HW2 4721   3.447   2.121   1.534 -2.2207  1.2264 -2.4956
 1509SOL     OW 4722   3.999   3.469   4.237 -0.2785 -0.3228 -0.1977
 1509SOL    HW1 4723   4.082   3.489   4.279 -0.4236 -0.0050 -0.0606
 1509SOL    HW2 4724   3.999   3.520   4.156  0.9581 -2.5765 -1.7284
 1510SOL     OW 4725   1.938   2.951   2.639  0.3807 -0.2480 -0.0394
 1510SOL    HW1 4726   1.901   3.033   2.607 -0.6348 -1.2918 -1.6940
 1510SOL    HW2 4727   1.926   2.955   2.734  0.3922  1.5148 -0.0867
 1511SOL     OW 4728   4.903   1.931   1.472 -0.0881  0.5889 -0.1247
 1511SOL    HW1 4729   4.862   2.014   1.494  1.6699  1.1906  1.1077
 1511SOL    HW2 4730   4.974   1.954   1.412 -0.2143 -0.1471 -0.5637
 1512SOL     OW 4731   2.649   2.352   3.330 -0.3450  0.0634 -0.4105
 1512SOL    HW1 4732   2.688   2.383   3.412  0.2191  2.0991 -1.3584
 1512SOL    HW2 4733   2.576   2.412   3.314 -0.9027 -0.7635 -1.0283
 1513SOL     OW 4734   3.020   1.592   2.377  0.1592  0.0182  0.2615
 1513SOL    HW1 4735   2.978   1.648   2.442 -1.7626 -0.4535 -0.5216
 1513SOL    HW2 4736   3.099   1.641   2.351 -0.4291  1.4213  1.0081
 1514SOL     OW 4737   2.422   4.704   3.804  0.0097  0.0262  0.2078
 1514SOL    HW1 4738   2.397   4.631   3.861 -1.9918 -0.2044 -0.8529
 1514SOL    HW2 4739   2.515   4.717   3.821 -0.2028 -0.8959  2.5201
 1515SOL     OW 4740   3.890   3.250   3.977 -0.2364 -0.6769 -0.0162
 1515SOL    HW1 4741   3.809   3.252   3.927 -1.1224 -0.8444  1.3693
 1515SOL    HW2 4742   3.930   3.336   3.962  0.1429 -1.1409 -1.9401
 1516SOL     OW 4743   1.628   4.280   1.927 -0.3262  0.1523  0.3642
 1516SOL    HW1 4744   1.639   4.191   1.893 -0.0858  0.6654 -0.9769
 1516SOL    HW2 4745   1.534   4.297   1.918 -0.3428  0.0985  0.4366
 1517SOL     OW 4746   3.661   2.354   2.920 -0.1010  0.0918  0.2541
 1517SOL    HW1 4747   3.670   2.259   2.912 -3.3547 -0.2757 -0.5670
 1517SOL    HW2 4748   3.730   2.389   2.864  1.6186 -1.7174  1.1243
 1518SOL     OW 4749   0.186   2.795   1.918  0.3790  0.0624 -0.1506
 1518SOL    HW1 4750   0.258   2.813   1.978  1.1940 -1.2898 -0.6635
 1518SOL    HW2 4751   0.149   2.712   1.949 -0.7265  0.5386 -0.1295
 1519SOL     OW 4752   3.740   0.116   3.549  0.2731  0.2051 -0.3132
 1519SOL    HW1 4753   3.691   0.188   3.508  0.6050  1.4316  1.3530
 1519SOL    HW2 4754   3.812   0.159   3.594  0.3096 -1.1365  0.9891
 1520SOL     OW 4755   2.820   3.618   2.700 -0.3019 -0.3149 -0.0554
 1520SOL    HW1 4756   2.915   3.610   2.704 -0.1797  0.9108  0.1341
 1520SOL    HW2 4757   2.797   3.592   2.611  0.0210 -2.1304  0.3712
 1521SOL     OW 4758   0.484   3.421   3.909  0.2846  0.2985  0.3648
 1521SOL    HW1 4759   0.399   3.438   3.869  0.2880  0.4398  0.4194
 1521SOL    HW2 4760   0.464   3.411   4.003  0.0813 -1.3066  0.1858
 1522SOL     OW 4761   4.103   3.938   2.910 -0.6578 -0.2967 -0.4924
 1522SOL    HW1 4762   4.017   3.908   2.940 -1.6591  1.0719 -1.8474
 1522SOL    HW2 4763   4.164   3.905   2.976 -2.3270 -0.4601  1.0572
 1523SOL     OW 4764   0.098   4.608   2.117  0.2636 -0.0668 -0.4894
 1523SOL    HW1 4765   0.064   4.655   2.193  0.7579 -0.6178  0.0797
 1523SOL    HW2 4766   0.045   4.639   2.044  1.6701  2.7204 -0.4607
 1524SOL     OW 4767   4.712   0.910   0.032  0.5568  0.0809  0.2996
 1524SOL    HW1 4768   4.711   0.961  -0.048  0.0345  2.1762  1.5577
 1524SOL    HW2 4769   4.648   0.840   0.017  0.6077  0.3165 -1.1503
 1525SOL     OW 4770   2.584   0.078   3.119  0.0174  0.1551 -0.1429
 1525SOL    HW1 4771   2.581   0.076   3.024  0.1195  0.1862 -0.1472
 1525SOL    HW2 4772   2.555  -0.009   3.146 -1.7778  0.7008 -0.1487
 1526SOL     OW 4773   1.311   2.292   0.965  0.0542  0.3699 -0.3008
 1526SOL    HW1 4774   1.343   2.382   0.969  2.4455 -0.3866 -0.7278
 1526SOL    HW2 4775   1.376   2.241   1.014 -1.2395 -1.1247 -0.0743
 1527SOL     OW 4776   1.158   4.428   3.436  0.2519  0.5500  0.5662
 1527SOL    HW1 4777   1.097   4.435   3.509 -2.0259 -2.8961 -0.7502
 1527SOL    HW2 4778   1.145   4.510   3.387 -0.3301  1.6266  2.4066
 1528SOL     OW 4779   0.098   3.080   3.245  0.3568  0.4032  0.3922
 1528SOL    HW1 4780   0.117   3.030   3.166 -2.0986  1.5309 -1.0321
 1528SOL    HW2 4781   0.048   3.020   3.300 -0.2972  0.4335 -0.1496
 1529SOL     OW 4782   3.686   0.703   3.718 -0.0101  0.0851  0.5561
 1529SOL    HW1 4783   3.752   0.689   3.650 -1.7736 -1.0641 -1.0076
 1529SOL    HW2 4784   3.605   0.668   3.680 -1.0961 -0.4783  3.1981
 1530SOL     OW 4785   3.702   0.234   0.505 -0.2773 -0.3730  0.2591
 1530SOL    HW1 4786   3.669   0.312   0.548 -1.3694 -0.2500 -0.7465
 1530SOL    HW2 4787   3.723   0.174   0.577  0.4488  0.7719  1.0308
 1531SOL     OW 4788   1.698   2.599   1.620 -1.0780 -0.1497 -0.1105
 1531SOL    HW1 4789   1.780   2.645   1.639 -1.5713  0.1777  1.3481
 1531SOL    HW2 4790   1.724   2.528   1.562  0.2501 -0.0248  0.2935
 1532SOL     OW 4791   1.699   3.646   1.276 -0.5828  0.5354 -0.0472
 1532SOL    HW1 4792   1.708   3.734   1.312 -1.8798  0.4503  0.5284
 1532SOL    HW2 4793   1.623   3.609   1.321 -1.2893 -0.1490 -1.6972
 1533SOL     OW 4794   3.674   1.847   4.661 -0.4045 -0.6284 -0.0620
 1533SOL    HW1 4795   3.592   1.827   4.707 -0.6377 -0.9420 -0.6071
 1533SOL    HW2 4796   3.653   1.837   4.569 -0.0664  0.4699 -0.2766
 1534SOL     OW 4797   3.968   4.510   2.125 -0.2154 -0.5361  0.4406
 1534SOL    HW1 4798   3.986   4.492   2.218  1.2367 -0.9030  0.1042
 1534SOL    HW2 4799   4.035   4.574   2.100 -0.7867 -0.2155 -0.2955
 1535SOL     OW 4800   0.277   4.369   2.099  0.7816  0.2292 -0.4062
 1535SOL    HW1 4801   0.217   4.444   2.093  1.1863  0.6086  0.1031
 1535SOL    HW2 4802   0.327   4.386   2.179  1.0349 -0.4776 -0.4109
 1536SOL     OW 4803   3.008   0.933   0.013  0.2057 -0.3522  0.0159
 1536SOL    HW1 4804   3.004   1.029   0.011  0.6524 -0.2948  1.1463
 1536SOL    HW2 4805   2.927   0.905  -0.030 -0.1379  0.5313  0.0534
 1537SOL     OW 4806   1.295   0.555   4.414 -0.0832 -0.3139  1.0739
 1537SOL    HW1 4807   1.337   0.594   4.490  1.6548 -0.4964  0.2407
 1537SOL    HW2 4808   1.300   0.622   4.347  3.8113 -2.0632 -0.6859
 1538SOL     OW 4809   3.284   2.475   0.041  0.3686  0.1045 -0.0850
 1538SOL    HW1 4810   3.204   2.503   0.086  0.0371 -1.2791  0.2150
 1538SOL    HW2 4811   3.257   2.464  -0.050 -0.2513 -2.0218  0.3094
 1539SOL     OW 4812   1.246   3.807   4.069  0.1437 -0.4383 -0.0697
 1539SOL    HW1 4813   1.184   3.735   4.083  1.0767 -1.5433 -1.2684
 1539SOL    HW2 4814   1.207   3.858   3.998 -0.2472 -0.0942  0.3923
 1540SOL     OW 4815   3.477   0.035   2.610 -0.0350  0.5230  0.3016
 1540SOL    HW1 4816   3.385   0.017   2.627 -0.1296  0.5254 -0.2035
 1540SOL    HW2 4817   3.480   0.129   2.590  0.0539  0.4936  0.1721
 1541SOL     OW 4818   4.309   2.316   2.687 -0.6446  0.2293 -0.0621
 1541SOL    HW1 4819   4.352   2.399   2.710 -0.9874  0.3587  0.1155
 1541SOL    HW2 4820   4.382   2.256   2.669 -0.2344 -0.3406  2.8597
 1542SOL     OW 4821   2.760   0.514   1.010 -0.1899  0.6319 -0.0267
 1542SOL    HW1 4822   2.853   0.511   1.031 -0.2064  0.8743  0.0817
 1542SOL    HW2 4823   2.755   0.480   0.920 -0.2189 -1.2780  0.6493
 1543SOL     OW 4824   4.060   1.200   0.446  0.6699 -0.4650  0.3004
 1543SOL    HW1 4825   4.099   1.120   0.480 -0.7741 -1.4553 -0.3204
 1543SOL    HW2 4826   4.124   1.233   0.383  1.6620 -0.6429  1.1860
 1544SOL     OW 4827   4.274   2.323   4.121  0.6163 -0.3637  0.1369
 1544SOL    HW1 4828   4.314   2.253   4.173  0.7877 -1.1144 -0.9658
 1544SOL    HW2 4829   4.311   2.311   4.033 -0.2545  0.3885 -0.3430
 1545SOL     OW 4830   2.788   1.212   3.643  0.2356 -0.5472 -0.2947
 1545SOL    HW1 4831   2.868   1.233   3.691 -0.0433  0.5026 -0.2585
 1545SOL    HW2 4832   2.753   1.297   3.617 -0.5847 -1.0196 -0.7780
 1546SOL     OW 4833   0.941   3.614   2.250 -0.1449 -0.2627  0.3759
 1546SOL    HW1 4834   0.981   3.694   2.284 -0.4881  0.3022 -0.5087
 1546SOL    HW2 4835   1.007   3.577   2.191 -0.4727  0.0700 -0.2124
 1547SOL     OW 4836   2.181   4.801   0.059  0.2691  0.4099 -0.7138
 1547SOL    HW1 4837   2.088   4.819   0.047  0.1038 -0.1832 -0.4096
 1547SOL    HW2 4838   2.192   4.713   0.023  0.4093 -0.0982  0.5352
 1548SOL     OW 4839   3.446   0.203   3.869 -0.2324 -0.1802 -0.2319
 1548SOL    HW1 4840   3.452   0.208   3.774 -1.7452 -0.1803 -0.3506
 1548SOL    HW2 4841   3.523   0.151   3.895  0.2819 -0.0489 -1.4259
 1549SOL     OW 4842   0.834   2.455   4.195  0.0889 -0.0507 -0.1117
 1549SOL    HW1 4843   0.783   2.499   4.263 -0.2981  0.5186 -0.7488
 1549SOL    HW2 4844   0.770   2.400   4.150  1.0297 -3.5079  2.3591
 1550SOL     OW 4845   0.264   4.925   4.320  0.1457  0.2628 -0.2586
 1550SOL    HW1 4846   0.300   4.991   4.379  0.7646  1.8816 -2.3125
 1550SOL    HW2 4847   0.336   4.904   4.261 -0.2273 -1.8423 -0.0293
 1551SOL     OW 4848   3.658   1.964   1.363  0.2205  0.3872 -0.2511
 1551SOL    HW1 4849   3.683   2.056   1.375 -0.7304  0.8540 -1.5363
 1551SOL    HW2 4850   3.721   1.930   1.299  0.9075 -0.0296  0.6312
 1552SOL     OW 4851   3.472   0.391   1.012 -0.0636  0.1409  0.2990
 1552SOL    HW1 4852   3.438   0.333   1.080  1.1758  1.1103  1.8289
 1552SOL    HW2 4853   3.395   0.436   0.978 -0.6594  0.1456  1.5966
 1553SOL     OW 4854   3.033   4.534   2.209  0.0872 -0.6352 -0.3815
 1553SOL    HW1 4855   3.081   4.574   2.137  0.2468  0.8769  0.5329
 1553SOL    HW2 4856   3.073   4.447   2.219  2.4636  0.4395  0.1448
 1554SOL     OW 4857   2.608   1.748   0.048  0.8834 -0.0443  0.5331
 1554SOL    HW1 4858   2.588   1.768  -0.044  0.8360 -0.6258  0.4146
 1554SOL    HW2 4859   2.632   1.655   0.048  0.9512 -0.0296  1.0993
 1555SOL     OW 4860   3.520   1.912   0.988  0.1292 -0.1479 -0.2945
 1555SOL    HW1 4861   3.561   1.896   0.903  1.8468  1.9367  0.0405
 1555SOL    HW2 4862   3.551   2.000   1.013 -2.7225  0.5756  1.1208
 1556SOL     OW 4863   1.196   0.577   2.924  0.2423  0.5590 -0.3392
 1556SOL    HW1 4864   1.141   0.505   2.893  0.7848  0.2347 -0.5706
 1556SOL    HW2 4865   1.285   0.541   2.924  0.3558  0.7722  0.9211
 1557SOL     OW 4866   4.846   3.785   2.071  0.5695 -0.4026  0.2186
 1557SOL    HW1 4867   4.814   3.835   2.147 -0.5175  0.1409 -0.5796
 1557SOL    HW2 4868   4.813   3.833   1.995 -0.2721 -2.1798 -0.5846
 1558SOL     OW 4869   1.630   0.470   4.360  0.3146 -0.4204  0.0917
 1558SOL    HW1 4870   1.596   0.550   4.401  2.9613  0.7951  0.1781
 1558SOL    HW2 4871   1.611   0.480   4.267  1.1658  0.6441  0.0184
 1559SOL     OW 4872   2.296   1.212   0.718  0.5396  0.0041  0.5489
 1559SOL    HW1 4873   2.320   1.153   0.647 -1.5265 -0.6359  0.3160
 1559SOL    HW2 4874   2.361   1.282   0.715  1.8536 -1.2110 -0.4609
 1560SOL     OW 4875   3.462   4.783   3.595  0.5681  0.3995  0.2849
 1560SOL    HW1 4876   3.484   4.853   3.534  3.6948  2.4001  3.3540
 1560SOL    HW2 4877   3.377   4.808   3.631  0.1019  0.7597 -1.0004
 1561SOL     OW 4878   3.159   2.419   4.240 -0.3570  0.4682 -0.0629
 1561SOL    HW1 4879   3.086   2.480   4.229  0.6777  1.8033  0.1573
 1561SOL    HW2 4880   3.227   2.471   4.284  0.7068 -0.7451 -0.2141
 1562SOL     OW 4881   0.348   0.909   3.866 -0.5912  0.1833  0.0055
 1562SOL    HW1 4882   0.286   0.905   3.793 -1.3538  3.1193  0.3868
 1562SOL    HW2 4883   0.311   0.974   3.925  1.4489 -0.0607  1.6485
 1563SOL     OW 4884   3.475   2.120   2.563 -0.2913  0.4756  0.0821
 1563SOL    HW1 4885   3.435   2.124   2.476 -0.6912  1.3163  0.2995
 1563SOL    HW2 4886   3.478   2.211   2.593 -0.4672  0.1566  1.0904
 1564SOL     OW 4887   0.226   2.327   4.330  0.0634 -0.1896 -0.5520
 1564SOL    HW1 4888   0.211   2.359   4.419 -0.0870  1.3889 -1.1079
 1564SOL    HW2 4889   0.152   2.360   4.279  0.3963 -0.6483 -1.3559
 1565SOL     OW 4890   2.877   0.382   1.766 -0.0638 -0.3445 -0.0797
 1565SOL    HW1 4891   2.852   0.472   1.786 -2.0458 -1.1408  1.2975
 1565SOL    HW2 4892   2.818   0.355   1.696  0.7248 -0.4942 -0.6994
 1566SOL     OW 4893   4.014   3.177   2.613 -0.1147 -0.6246 -0.7008
 1566SOL    HW1 4894   3.981   3.089   2.625 -0.2342 -0.6214 -0.9836
 1566SOL    HW2 4895   3.943   3.234   2.641 -1.1512 -0.5975 -3.1479
 1567SOL     OW 4896   1.923   1.461   2.138  0.3407 -0.4989 -0.4216
 1567SOL    HW1 4897   1.923   1.441   2.044 -1.5337  0.4274 -0.6724
 1567SOL    HW2 4898   1.873   1.390   2.177  1.3157 -1.0084 -0.0572
 1568SOL     OW 4899   3.739   2.003   1.637  0.3282 -0.4770  0.3793
 1568SOL    HW1 4900   3.800   1.930   1.628 -0.1311 -0.6733 -1.8687
 1568SOL    HW2 4901   3.793   2.080   1.618  0.4127 -0.3983  0.9250
 1569SOL     OW 4902   3.410   3.818   1.366 -0.1398 -0.5331  0.0306
 1569SOL    HW1 4903   3.457   3.767   1.301  1.5165  1.2176 -0.2323
 1569SOL    HW2 4904   3.465   3.813   1.444 -0.3192  0.2437  0.2089
 1570SOL     OW 4905   0.316   0.744   0.356  0.0817 -0.4389  0.1874
 1570SOL    HW1 4906   0.412   0.740   0.363  0.0876  0.6193  0.8874
 1570SOL    HW2 4907   0.292   0.823   0.404 -1.1318 -0.5577 -0.2044
 1571SOL     OW 4908   1.468   3.327   3.871 -0.5876 -0.1414 -0.6986
 1571SOL    HW1 4909   1.538   3.318   3.936  0.0412  0.5828 -1.2367
 1571SOL    HW2 4910   1.403   3.383   3.913 -1.0649 -1.1903 -0.0272
 1572SOL     OW 4911   1.067   1.789   0.160 -0.5260  0.4842 -0.1281
 1572SOL    HW1 4912   1.092   1.832   0.242 -2.0226 -0.6723  0.9921
 1572SOL    HW2 4913   0.986   1.831   0.133 -0.7691 -0.0617 -0.2735
 1573SOL     OW 4914   3.228   4.580   1.160  0.0949 -0.3724 -0.2324
 1573SOL    HW1 4915   3.188   4.493   1.166  0.8961 -0.7541 -0.4079
 1573SOL    HW2 4916   3.262   4.585   1.071  0.2717  0.0288 -0.1437
 1574SOL     OW 4917   4.748   0.846   2.345  0.3259  0.0155 -0.1085
 1574SOL    HW1 4918   4.735   0.759   2.307  0.1536  0.4388 -1.0228
 1574SOL    HW2 4919   4.836   0.843   2.381  1.4185  0.3232 -2.5651
 1575SOL     OW 4920   4.351   0.797   2.623  0.3757  0.0933  0.2281
 1575SOL    HW1 4921   4.315   0.719   2.581  1.3535  1.2460 -3.1357
 1575SOL    HW2 4922   4.284   0.864   2.611  0.6766  0.4499  0.5167
 1576SOL     OW 4923   4.861   1.839   1.060 -0.0057 -0.6121  0.1115
 1576SOL    HW1 4924   4.932   1.775   1.067  1.4055  1.0368  2.1768
 1576SOL    HW2 4925   4.819   1.838   1.146 -1.4989 -0.4661 -0.6013
 1577SOL     OW 4926   0.981   0.476   2.283 -0.3899  0.1730  0.2144
 1577SOL    HW1 4927   0.972   0.415   2.210 -1.3508 -0.9042  1.1945
 1577SOL    HW2 4928   1.008   0.558   2.242 -0.1496 -0.6014 -1.2588
 1578SOL     OW 4929   3.400   1.535   2.836 -0.1774  0.0676 -0.3204
 1578SOL    HW1 4930   3.425   1.485   2.758  0.0849  1.4710 -1.1789
 1578SOL    HW2 4931   3.478   1.587   2.856 -0.4074  0.0598  0.5989
 1579SOL     OW 4932   4.872   2.887   3.371  0.1394 -0.5351 -0.0508
 1579SOL    HW1 4933   4.819   2.906   3.448  2.4941 -0.1003  1.5951
 1579SOL    HW2 4934   4.813   2.841   3.311 -1.8753 -0.5801  1.8508
 1580SOL     OW 4935   3.506   1.408   4.528  0.2814 -0.0899 -0.1436
 1580SOL    HW1 4936   3.485   1.481   4.586 -0.4194  0.0760 -0.6018
 1580SOL    HW2 4937   3.559   1.349   4.583  0.1676  0.3655  0.4708
 1581SOL     OW 4938   1.336   3.147   4.430  0.3175 -0.5601  0.1119
 1581SOL    HW1 4939   1.426   3.132   4.403 -0.1854 -1.5332 -1.1198
 1581SOL    HW2 4940   1.285   3.084   4.380 -1.1239  0.3744  0.3393
 1582SOL     OW 4941   3.076   1.539   4.844 -0.5745  0.1941  0.2173
 1582SOL    HW1 4942   3.016   1.613   4.853  0.7308  1.5405 -1.5739
 1582SOL    HW2 4943   3.077   1.519   4.751  1.6724  0.1538  0.1950
 1583SOL     OW 4944   4.536   0.338   3.606 -0.1652 -0.3535  0.7731
 1583SOL    HW1 4945   4.551   0.431   3.621 -0.8247 -0.3971  1.8229
 1583SOL    HW2 4946   4.597   0.294   3.665  0.0726 -0.5844  0.3556
 1584SOL     OW 4947   0.198   1.065   4.383 -0.0989 -0.6389 -0.4827
 1584SOL    HW1 4948   0.142   1.050   4.460  0.5141 -0.9639 -0.0881
 1584SOL    HW2 4949   0.273   1.006   4.397  1.4959  1.4360  0.1895
 1585SOL     OW 4950   3.297   3.140   2.502  0.7970 -0.2096 -0.5893
 1585SOL    HW1 4951   3.306   3.062   2.558 -1.0268 -0.1735 -0.1716
 1585SOL    HW2 4952   3.266   3.105   2.418  1.0174 -0.0280 -0.7472
 1586SOL     OW 4953   2.577   1.935   0.830 -0.0091 -0.3714 -0.1451
 1586SOL    HW1 4954   2.524   1.979   0.764  0.0031  0.8714  0.6262
 1586SOL    HW2 4955   2.517   1.875   0.874 -1.2240  1.9279  1.5822
 1587SOL     OW 4956   4.089   3.352   3.268  0.3054 -0.4825 -0.1838
 1587SOL    HW1 4957   4.115   3.265   3.298 -1.0986 -0.4560  1.2357
 1587SOL    HW2 4958   4.075   3.402   3.348 -0.8660  0.4334 -0.9280
 1588SOL     OW 4959   0.264   4.832   3.825  0.0910 -0.1098 -0.2493
 1588SOL    HW1 4960   0.253   4.779   3.747 -0.2008 -0.9695  0.3579
 1588SOL    HW2 4961   0.354   4.865   3.819 -0.0774  0.2079 -1.1559
 1589SOL     OW 4962   4.461   0.929   2.845 -0.1161  0.2909  0.2344
 1589SOL    HW1 4963   4.396   0.938   2.915  0.4168 -0.6241  0.8680
 1589SOL    HW2 4964   4.415   0.879   2.777  0.0206 -0.6683  0.8323
 1590SOL     OW 4965   0.375   4.484   2.359  0.0714 -0.2051 -0.4884
 1590SOL    HW1 4966   0.429   4.538   2.417 -0.1271  1.2322 -1.5531
 1590SOL    HW2 4967   0.288   4.486   2.398  0.2614 -0.5234 -0.0392
 1591SOL     OW 4968   1.289   0.194   2.428  0.4637  0.4303  0.8293
 1591SOL    HW1 4969   1.252   0.111   2.398  0.9186  0.8448 -1.0686
 1591SOL    HW2 4970   1.272   0.196   2.522 -0.0998 -1.5173  0.8161
 1592SOL     OW 4971   4.784   0.676   4.441  0.0696 -0.1438  0.8028
 1592SOL    HW1 4972   4.879   0.665   4.444  0.1939 -0.1376 -1.5436
 1592SOL    HW2 4973   4.771   0.766   4.412 -0.5119 -1.1084 -2.2784
 1593SOL     OW 4974   1.340   2.002   3.631  0.1336 -0.5568  0.0516
 1593SOL    HW1 4975   1.380   1.993   3.545  2.1477  1.2272  0.6979
 1593SOL    HW2 4976   1.367   1.923   3.678  0.5612 -0.6858 -0.3988
 1594SOL     OW 4977   1.341   4.106   1.959  1.1222 -0.0590  0.1093
 1594SOL    HW1 4978   1.350   4.138   2.049 -2.2610  1.4482  0.0865
 1594SOL    HW2 4979   1.342   4.185   1.906 -0.1010 -0.6290 -0.7966
 1595SOL     OW 4980   1.314   4.073   1.566  0.5760  0.3980 -0.2441
 1595SOL    HW1 4981   1.267   4.151   1.596 -0.5995  0.2714 -1.6181
 1595SOL    HW2 4982   1.252   4.029   1.508  2.1120 -0.2212 -1.4890
 1596SOL     OW 4983   0.250   4.110   4.064  0.0686  0.4782 -0.1425
 1596SOL    HW1 4984   0.185   4.142   4.127 -1.0363 -0.5434 -0.7282
 1596SOL    HW2 4985   0.220   4.144   3.979 -0.5371 -1.1629 -0.6242
 1597SOL     OW 4986   3.189   2.377   1.797 -0.2364  0.1132  0.0641
 1597SOL    HW1 4987   3.244   2.455   1.809  0.7355 -0.8627  2.4983
 1597SOL    HW2 4988   3.111   2.410   1.751  0.0755  2.5492  1.1432
 1598SOL     OW 4989   2.074   3.746   2.814 -0.5020  0.5379 -0.1986
 1598SOL    HW1 4990   2.151   3.716   2.863 -0.7413  0.5178  0.1763
 1598SOL    HW2 4991   2.089   3.715   2.725 -0.6093 -0.4699  0.1110
 1599SOL     OW 4992   1.841   2.519   1.174 -0.7194  0.3493  0.3345
 1599SOL    HW1 4993   1.764   2.542   1.122  0.0673  0.7961 -0.6783
 1599SOL    HW2 4994   1.909   2.502   1.108  0.2678  0.7910  1.2188
 1600SOL     OW 4995   3.287   4.845   2.912 -0.1234 -0.3093  0.3506
 1600SOL    HW1 4996   3.304   4.918   2.852 -1.1945 -2.1835 -2.4171
 1600SOL    HW2 4997   3.212   4.875   2.964  1.4162  1.7272  1.5307
 1601SOL     OW 4998   1.770   3.230   1.622  0.5378 -0.0161  0.3379
 1601SOL    HW1 4999   1.742   3.297   1.559  0.3413 -0.0725  0.3652
 1601SOL    HW2 5000   1.847   3.190   1.581  2.3215  2.0126  1.4796
 1602SOL     OW 5001   3.847   0.547   1.707 -0.6043  0.0592  0.2266
 1602SOL    HW1 5002   3.911   0.603   1.752  0.5435 -0.3459 -0.8471
 1602SOL    HW2 5003   3.815   0.488   1.775 -0.4659  0.7985  0.9647
 1603SOL     OW 5004   1.082   2.374   1.875  0.3558  0.0704  0.1717
 1603SOL    HW1 5005   1.015   2.434   1.908 -0.8600 -0.4594 -1.2215
 1603SOL    HW2 5006   1.165   2.413   1.901 -0.4495  1.6275  0.4846
 1604SOL     OW 5007   0.957   1.194   3.066  0.4253 -0.1437  0.3341
 1604SOL    HW1 5008   1.004   1.268   3.027  1.3022 -1.2601 -0.7963
 1604SOL    HW2 5009   1.022   1.124   3.072 -0.2923 -0.7442  1.7161
 1605SOL     OW 5010   3.501   1.741   4.244 -0.0330 -0.0654  0.3883
 1605SOL    HW1 5011   3.405   1.745   4.244  0.0023  1.6238 -0.5799
 1605SOL    HW2 5012   3.521   1.647   4.238 -1.5809 -0.5795  2.1833
 1606SOL     OW 5013   4.116   0.349   3.613  0.1292 -0.2776  0.7287
 1606SOL    HW1 5014   4.031   0.310   3.635  0.4929  0.0076  2.8938
 1606SOL    HW2 5015   4.100   0.444   3.616 -0.4547 -0.0808 -3.2812
 1607SOL     OW 5016   0.519   3.832   0.603  0.4261  0.6216  0.5790
 1607SOL    HW1 5017   0.534   3.889   0.527 -2.6977  3.0189  1.5325
 1607SOL    HW2 5018   0.424   3.837   0.617  0.5477 -1.8947  3.0756
 1608SOL     OW 5019   1.266   2.438   0.128 -0.6728  0.6574  0.6222
 1608SOL    HW1 5020   1.248   2.532   0.118 -0.4343  0.7460  0.9815
 1608SOL    HW2 5021   1.325   2.433   0.204  1.1723  0.4237 -0.7635
 1609SOL     OW 5022   3.980   2.840   0.328 -0.2221 -0.4871  0.2378
 1609SOL    HW1 5023   4.017   2.832   0.416  0.8904  0.9564 -0.0469
 1609SOL    HW2 5024   3.956   2.933   0.321 -0.5974 -0.6541 -0.8516
 1610SOL     OW 5025   0.320   0.392   3.344  0.8596 -0.4937  0.1980
 1610SOL    HW1 5026   0.279   0.308   3.364 -1.2828  0.0183 -1.5665
 1610SOL    HW2 5027   0.248   0.445   3.309  2.7982  0.9524 -1.8503
 1611SOL     OW 5028   0.331   0.840   4.461 -0.4607  0.4264  0.2278
 1611SOL    HW1 5029   0.255   0.793   4.497 -0.5187  0.3646  0.0273
 1611SOL    HW2 5030   0.381   0.867   4.538 -1.5419  1.9155  0.4421
 1612SOL     OW 5031   4.236   3.445   4.385  0.5085  0.4324 -0.2445
 1612SOL    HW1 5032   4.187   3.436   4.466 -0.1356 -1.7837 -0.8163
 1612SOL    HW2 5033   4.240   3.540   4.370 -1.0512  0.8028  1.3462
 1613SOL     OW 5034   4.895   2.997   4.152  0.3499 -0.0349 -0.0230
 1613SOL    HW1 5035   4.837   3.071   4.135 -0.0498 -0.5773 -1.0690
 1613SOL    HW2 5036   4.963   3.004   4.085 -0.2074 -1.1446 -0.7257
 1614SOL     OW 5037   0.118   1.541   1.907  0.2739  0.3672  0.0406
 1614SOL    HW1 5038   0.094   1.514   1.996  0.0561  0.5936  0.0533
 1614SOL    HW2 5039   0.118   1.637   1.910 -2.1937  0.4640 -0.8239
 1615SOL     OW 5040   4.866   1.714   1.622  0.1884  0.0289 -0.1233
 1615SOL    HW1 5041   4.821   1.745   1.702  0.8193 -0.7567  0.5501
 1615SOL    HW2 5042   4.860   1.788   1.562  1.3096  1.3471  1.3093
 1616SOL     OW 5043   1.339   4.518   3.772  0.4538  0.4053  0.4484
 1616SOL    HW1 5044   1.361   4.494   3.682 -0.2998  1.4097 -0.0265
 1616SOL    HW2 5045   1.370   4.445   3.825 -0.4392 -0.9305 -0.7858
 1617SOL     OW 5046   2.603   3.939   3.011  0.0675 -0.0673  0.1229
 1617SOL    HW1 5047   2.605   4.022   2.963  0.0964  0.1625  0.5109
 1617SOL    HW2 5048   2.529   3.948   3.072 -0.5448 -0.7201 -0.5078
 1618SOL     OW 5049   2.933   0.297   3.287 -0.7677  0.1363 -0.6365
 1618SOL    HW1 5050   2.963   0.217   3.243  0.6683 -0.4757  1.3272
 1618SOL    HW2 5051   2.995   0.310   3.358 -0.9398  3.0676 -0.8978
 1619SOL     OW 5052   0.356   2.124   0.984 -0.4101 -0.5966 -0.4545
 1619SOL    HW1 5053   0.331   2.143   0.894 -1.0523 -3.4822 -0.9802
 1619SOL    HW2 5054   0.273   2.128   1.033 -0.1316  0.5332 -0.0613
 1620SOL     OW 5055   4.125   2.959   2.136  0.4066 -0.3491 -0.4769
 1620SOL    HW1 5056   4.177   3.027   2.177  0.4376 -0.8048  0.2594
 1620SOL    HW2 5057   4.076   3.004   2.068  0.0437  0.5097  0.3287
 1621SOL     OW 5058   1.204   0.024   4.380 -0.4263  0.2060 -0.1493
 1621SOL    HW1 5059   1.237   0.113   4.387  0.0715 -0.0228  0.5922
 1621SOL    HW2 5060   1.110   0.032   4.396 -0.2028  0.4656  1.1855
 1622SOL     OW 5061   1.971   2.982   0.705 -0.2801 -0.7644  0.0521
 1622SOL    HW1 5062   2.053   2.978   0.657  0.1528 -1.1892  0.8195
 1622SOL    HW2 5063   1.910   3.027   0.645  0.4842 -0.5015 -0.5360
 1623SOL     OW 5064   1.498   2.274   3.988  0.1663  0.0129 -0.0837
 1623SOL    HW1 5065   1.509   2.358   3.942  1.8392 -0.4805 -0.6617
 1623SOL    HW2 5066   1.540   2.288   4.073  1.7491 -0.6516 -0.7312
 1624SOL     OW 5067   2.856   0.928   3.137  0.3897 -0.5657  0.3289
 1624SOL    HW1 5068   2.902   0.878   3.070  0.6181 -0.3976  0.3606
 1624SOL    HW2 5069   2.769   0.888   3.141  0.8986 -1.6335  1.0839
 1625SOL     OW 5070   4.216   3.159   1.802  0.1806 -0.7016  0.0991
 1625SOL    HW1 5071   4.279   3.230   1.807  0.6380 -1.1042  0.1149
 1625SOL    HW2 5072   4.157   3.184   1.731 -0.2351  0.1435  0.7314
 1626SOL     OW 5073   2.937   1.490   2.774 -0.0102 -0.4512 -0.0490
 1626SOL    HW1 5074   2.958   1.437   2.697  1.7906  0.0591  0.0527
 1626SOL    HW2 5075   2.849   1.462   2.799 -0.6833 -0.5860 -2.3231
 1627SOL     OW 5076   2.760   2.997   3.962 -0.3084 -0.7476 -0.6367
 1627SOL    HW1 5077   2.788   3.042   3.882  0.0046 -0.4731 -0.3766
 1627SOL    HW2 5078   2.694   2.934   3.933  0.0449 -0.8772 -1.1542
 1628SOL     OW 5079   0.648   3.834   2.851  0.0979 -0.0246 -0.0971
 1628SOL    HW1 5080   0.735   3.802   2.825  0.3379  0.7165 -0.2070
 1628SOL    HW2 5081   0.665   3.888   2.928 -0.1884  0.6643 -0.5167
 1629SOL     OW 5082   0.949   3.177   3.839  0.6355 -1.0227  0.1450
 1629SOL    HW1 5083   0.949   3.098   3.892 -0.9202  0.0856  1.9067
 1629SOL    HW2 5084   0.864   3.218   3.855  0.7473  0.2272 -1.9700
 1630SOL     OW 5085   1.076   2.728   0.655  0.0245 -0.1256  0.2537
 1630SOL    HW1 5086   1.131   2.700   0.728  0.5050  3.2778  1.3658
 1630SOL    HW2 5087   1.135   2.730   0.579  0.6559  0.5534  0.7547
 1631SOL     OW 5088   1.596   2.839   2.733 -0.6943 -0.5760  0.1120
 1631SOL    HW1 5089   1.591   2.878   2.821 -1.9252  2.4012 -1.1591
 1631SOL    HW2 5090   1.506   2.814   2.713 -0.8817  0.9200 -1.1186
 1632SOL     OW 5091   2.887   2.897   2.704  0.3026  0.0066  0.1404
 1632SOL    HW1 5092   2.970   2.851   2.717  1.5406  1.7423 -1.1247
 1632SOL    HW2 5093   2.832   2.833   2.659  1.2894 -0.8578  0.0967
 1633SOL     OW 5094   1.731   0.688   2.307  0.6001 -0.4025 -0.3040
 1633SOL    HW1 5095   1.643   0.652   2.301  0.8527 -1.3320  1.0580
 1633SOL    HW2 5096   1.772   0.639   2.378  1.9808  0.5160 -0.4269
 1634SOL     OW 5097   4.383   3.865   2.597 -0.0099  0.0305 -0.3316
 1634SOL    HW1 5098   4.373   3.775   2.629 -1.1374  0.1124 -0.4188
 1634SOL    HW2 5099   4.469   3.865   2.553  0.6705 -0.5960  0.9449
 1635SOL     OW 5100   1.277   3.495   4.452  0.1541  0.0357 -0.4041
 1635SOL    HW1 5101   1.230   3.412   4.443  0.9953 -0.3940 -0.9822
 1635SOL    HW2 5102   1.369   3.470   4.454  0.4134  0.9571 -0.5833
 1636SOL     OW 5103   4.234   1.062   3.863 -0.6325  0.3047 -0.3944
 1636SOL    HW1 5104   4.183   1.054   3.943  0.3371  1.4085  0.3667
 1636SOL    HW2 5105   4.279   0.978   3.854 -1.3792 -0.1193 -0.2480
 1637SOL     OW 5106   4.473   4.735   1.717 -0.2127  0.4914  0.5103
 1637SOL    HW1 5107   4.454   4.642   1.735  0.1476  0.3155  0.0126
 1637SOL    HW2 5108   4.402   4.763   1.661 -0.2146  0.4610  0.4974
 1638SOL     OW 5109   2.143   3.640   2.543 -0.0378 -0.3023 -0.1892
 1638SOL    HW1 5110   2.050   3.661   2.534 -0.0348  0.2278  0.8209
 1638SOL    HW2 5111   2.164   3.589   2.465 -1.1214 -0.2390 -0.5402
 1639SOL     OW 5112   0.885   1.120   3.408  0.0802  0.3063  0.2163
 1639SOL    HW1 5113   0.870   1.056   3.478  0.3598  1.1005  1.0169
 1639SOL    HW2 5114   0.866   1.204   3.449 -2.9003  0.6221 -1.5105
 1640SOL     OW 5115   3.542   2.484   2.000 -0.2459  0.2636  0.1961
 1640SOL    HW1 5116   3.563   2.563   1.950 -1.1039 -0.4566 -1.3866
 1640SOL    HW2 5117   3.579   2.500   2.087 -2.5994  3.5042  0.7707
 1641SOL     OW 5118   4.493   3.629   3.067  0.3592  0.1598 -0.2519
 1641SOL    HW1 5119   4.556   3.558   3.054  0.6350  0.2060  0.7477
 1641SOL    HW2 5120   4.499   3.649   3.160  0.8601  2.0271 -0.6496
 1642SOL     OW 5121   2.668   4.500   1.333 -0.5035  0.9428 -0.1591
 1642SOL    HW1 5122   2.731   4.563   1.299 -0.6668  1.0966 -0.1805
 1642SOL    HW2 5123   2.699   4.415   1.302  1.0191  0.7302  1.7533
 1643SOL     OW 5124   4.857   1.332   0.369 -0.2366 -0.6441 -0.1207
 1643SOL    HW1 5125   4.806   1.359   0.445 -0.5879 -0.0440 -0.5584
 1643SOL    HW2 5126   4.820   1.247   0.344 -1.5253  0.0932 -0.8489
 1644SOL     OW 5127   4.265   2.147   2.216 -0.3159 -0.2209  0.4991
 1644SOL    HW1 5128   4.207   2.100   2.276 -0.0259 -0.6021  0.4857
 1644SOL    HW2 5129   4.269   2.235   2.252  0.4152 -0.6190  1.4647
 1645SOL     OW 5130   1.863   4.367   0.104  0.2385  0.4057 -0.3405
 1645SOL    HW1 5131   1.770   4.380   0.120  0.4527  1.2451  0.2675
 1645SOL    HW2 5132   1.876   4.388   0.012 -0.6940 -2.7084 -1.2956
 1646SOL     OW 5133   0.946   1.706   1.912 -0.4499  0.0952  0.6050
 1646SOL    HW1 5134   0.940   1.657   1.830  0.1449  0.4280  0.3533
 1646SOL    HW2 5135   0.992   1.647   1.972 -1.0022 -0.2000  0.7470
 1647SOL     OW 5136   2.596   2.875   3.050  0.1322  0.1589  0.2928
 1647SOL    HW1 5137   2.651   2.863   3.128  1.4778  2.0382 -0.2988
 1647SOL    HW2 5138   2.603   2.968   3.029 -1.8070  0.1028 -0.9424
 1648SOL     OW 5139   2.346   3.006   2.169  0.5919 -0.5435  0.2038
 1648SOL    HW1 5140   2.339   3.099   2.192 -0.0478 -0.4447 -0.3494
 1648SOL    HW2 5141   2.438   2.985   2.184  0.4826 -0.1736  1.6173
 1649SOL     OW 5142   3.281   2.209   3.179 -0.1390 -0.6082  0.4440
 1649SOL    HW1 5143   3.344   2.202   3.108 -0.6279 -2.7156  0.1426
 1649SOL    HW2 5144   3.317   2.154   3.249 -1.1574 -1.0987  0.6122
 1650SOL     OW 5145   3.453   3.932   4.383 -0.0502  0.0067  0.0958
 1650SOL    HW1 5146   3.468   3.986   4.461 -2.1369  0.3727  0.3042
 1650SOL    HW2 5147   3.394   3.863   4.413  0.5815 -0.9243 -0.7631
 1651SOL     OW 5148   2.636   1.145   4.805  0.4342  0.2665 -0.3626
 1651SOL    HW1 5149   2.690   1.085   4.753  1.1201 -0.9852  1.6740
 1651SOL    HW2 5150   2.676   1.231   4.790  1.3458 -0.2401 -0.9822
 1652SOL     OW 5151   3.355   1.921   2.855  0.0729 -0.4083  0.3172
 1652SOL    HW1 5152   3.263   1.944   2.869  0.5527  1.1493  1.1913
 1652SOL    HW2 5153   3.355   1.873   2.772 -1.4476  0.1390 -0.0381
 1653SOL     OW 5154   1.862   4.761   0.338  0.1453 -0.4288 -0.2164
 1653SOL    HW1 5155   1.935   4.816   0.367 -0.6534  0.8656 -0.5582
 1653SOL    HW2 5156   1.825   4.726   0.419  1.7410 -1.9632 -0.0839
 1654SOL     OW 5157   3.778   3.685   3.576  0.3788  0.0598  0.3047
 1654SOL    HW1 5158   3.872   3.671   3.565  0.6392  1.1369  1.0418
 1654SOL    HW2 5159   3.766   3.779   3.568 -0.4035  0.1119  1.7737
 1655SOL     OW 5160   1.085   3.570   4.100  0.4415  0.1637 -0.4222
 1655SOL    HW1 5161   1.018   3.607   4.044 -0.4714 -0.7243  0.0443
 1655SOL    HW2 5162   1.049   3.578   4.189  0.0479 -2.0541 -0.3241
 1656SOL     OW 5163   1.945   0.301   0.385 -0.2200  0.3288 -0.2457
 1656SOL    HW1 5164   1.952   0.333   0.295 -0.1520  2.1731  0.3879
 1656SOL    HW2 5165   1.948   0.379   0.439 -0.3729 -0.7413  1.3788
 1657SOL     OW 5166   0.595   0.176   0.770  0.0470  0.2232  0.0125
 1657SOL    HW1 5167   0.687   0.167   0.794  0.2074  0.9246 -0.3170
 1657SOL    HW2 5168   0.563   0.249   0.824 -0.3229 -0.0455  0.1576
 1658SOL     OW 5169   1.262   0.685   1.383  0.2078 -0.0992 -0.3963
 1658SOL    HW1 5170   1.191   0.734   1.424  0.3363 -0.1970 -0.0536
 1658SOL    HW2 5171   1.241   0.685   1.290  0.2922  0.7492 -0.4261
 1659SOL     OW 5172   1.759   3.857   3.417  0.4552  0.1891  0.0118
 1659SOL    HW1 5173   1.842   3.873   3.371  0.0756  1.8096 -0.1775
 1659SOL    HW2 5174   1.700   3.822   3.349  1.1439 -1.6700  0.3060
 1660SOL     OW 5175   4.381   1.117   1.557  0.0610 -0.6147  0.1569
 1660SOL    HW1 5176   4.442   1.172   1.605  0.1268 -0.2376 -0.3469
 1660SOL    HW2 5177   4.296   1.135   1.597 -0.2921  1.5533 -1.3950
 1661SOL     OW 5178   2.162   1.234   2.226  0.4162 -0.1263  0.0194
 1661SOL    HW1 5179   2.083   1.201   2.183 -0.6977  0.4655  1.5224
 1661SOL    HW2 5180   2.234   1.189   2.181 -0.7568 -0.7291 -1.3479
 1662SOL     OW 5181   3.235   0.140   0.834  0.2133 -0.0934  0.0572
 1662SOL    HW1 5182   3.173   0.139   0.761  0.7461  0.6937 -0.4127
 1662SOL    HW2 5183   3.219   0.224   0.877  1.3456  0.3686 -0.4073
 1663SOL     OW 5184   1.161   0.516   3.845  0.5794  0.3800 -1.0167
 1663SOL    HW1 5185   1.122   0.563   3.771  1.5221  0.2774 -1.6049
 1663SOL    HW2 5186   1.248   0.556   3.854  1.0112 -0.5704 -0.8775
 1664SOL     OW 5187   0.646   2.210   3.624  0.0798 -0.0102 -0.1569
 1664SOL    HW1 5188   0.710   2.226   3.554  1.2646  0.7653  1.0416
 1664SOL    HW2 5189   0.648   2.291   3.676 -2.2287  0.1947 -0.3236
 1665SOL     OW 5190   0.651   0.370   3.605  0.1375 -0.1022 -0.4460
 1665SOL    HW1 5191   0.612   0.292   3.645  1.0449 -0.1916  0.2909
 1665SOL    HW2 5192   0.580   0.434   3.604 -0.2288 -0.4900  0.2040
 1666SOL     OW 5193   4.890   1.648   4.918  0.0978 -0.6426 -0.1364
 1666SOL    HW1 5194   4.796   1.651   4.935  0.0706 -2.7275  0.3464
 1666SOL    HW2 5195   4.897   1.645   4.822 -0.3739 -1.3913 -0.1511
 1667SOL     OW 5196   0.765   3.810   0.706 -0.6433  0.0051 -0.2569
 1667SOL    HW1 5197   0.810   3.785   0.626 -1.7965 -3.4425 -0.0066
 1667SOL    HW2 5198   0.673   3.820   0.681 -0.6893  1.0230  0.2728
 1668SOL     OW 5199   3.814   2.874   3.390 -0.0248 -0.1860 -0.7307
 1668SOL    HW1 5200   3.879   2.941   3.413 -0.1373  0.2433 -1.6084
 1668SOL    HW2 5201   3.761   2.915   3.321 -1.5352 -0.3477  0.2754
 1669SOL     OW 5202   2.271   1.191   2.741  0.4114 -0.6757 -0.4602
 1669SOL    HW1 5203   2.217   1.135   2.797  0.4490 -2.0067 -1.6960
 1669SOL    HW2 5204   2.222   1.199   2.660  0.3878  1.1803 -0.3178
 1670SOL     OW 5205   2.063   0.378   3.458 -0.7539  0.3617 -0.4940
 1670SOL    HW1 5206   1.986   0.428   3.485 -1.5542 -0.1455 -1.7830
 1670SOL    HW2 5207   2.133   0.443   3.454 -0.5960  0.5243  2.5187
 1671SOL     OW 5208   2.633   1.894   4.504 -0.0944 -0.2890 -0.0087
 1671SOL    HW1 5209   2.710   1.892   4.561 -0.1729 -0.1609  0.1036
 1671SOL    HW2 5210   2.666   1.867   4.419  0.1175 -0.0337 -0.0104
 1672SOL     OW 5211   4.855   0.617   3.855 -0.1894 -0.3527 -0.4560
 1672SOL    HW1 5212   4.840   0.639   3.947 -0.2014  0.6386 -0.6862
 1672SOL    HW2 5213   4.938   0.568   3.855 -1.3812 -2.5366  0.3550
 1673SOL     OW 5214   4.018   0.515   0.479  1.0472 -0.8111 -0.4326
 1673SOL    HW1 5215   3.946   0.577   0.479  1.1331 -0.6733 -1.6665
 1673SOL    HW2 5216   3.986   0.441   0.426  1.9899 -0.4832 -1.5140
 1674SOL     OW 5217   4.636   2.526   1.081  0.5416 -0.1161  0.2885
 1674SOL    HW1 5218   4.706   2.591   1.070 -0.6748  1.2070 -0.0917
 1674SOL    HW2 5219   4.598   2.518   0.993 -1.0654  0.7632  0.8553
 1675SOL     OW 5220   3.274   4.055   1.238 -0.0472  0.2068  0.1180
 1675SOL    HW1 5221   3.216   4.026   1.168 -0.5199  1.1226  0.1110
 1675SOL    HW2 5222   3.308   3.974   1.276 -1.8049 -0.3991  0.5113
 1676SOL     OW 5223   2.993   4.656   3.849  0.2461  0.2198 -0.0665
 1676SOL    HW1 5224   2.928   4.625   3.786 -0.2580 -0.8887  0.9343
 1676SOL    HW2 5225   3.050   4.580   3.864  0.3487  0.4518  0.8074
 1677SOL     OW 5226   2.853   2.519   2.867 -0.1800  0.3042 -0.2052
 1677SOL    HW1 5227   2.868   2.496   2.775  1.6936  1.5687 -0.2806
 1677SOL    HW2 5228   2.759   2.538   2.872 -0.3894 -0.1819 -1.7579
 1678SOL     OW 5229   2.518   2.401   0.366  0.6349  0.5735 -0.0455
 1678SOL    HW1 5230   2.607   2.401   0.331  0.8437  0.3347  0.4686
 1678SOL    HW2 5231   2.522   2.460   0.441  0.6404 -0.2914  0.6483
 1679SOL     OW 5232   4.180   4.664   4.943 -0.5722  0.1428  0.0559
 1679SOL    HW1 5233   4.225   4.693   4.863  0.3109 -0.4663  0.3208
 1679SOL    HW2 5234   4.249   4.631   4.999 -1.5556 -3.2678 -0.5502
 1680SOL     OW 5235   1.547   3.923   1.627  0.1005 -0.1374 -0.2020
 1680SOL    HW1 5236   1.581   3.958   1.709 -1.1406 -0.4414  0.4586
 1680SOL    HW2 5237   1.472   3.979   1.607  0.1535 -0.3156 -0.9299
 1681SOL     OW 5238   2.426   1.319   2.509  0.0288 -0.3801  0.0011
 1681SOL    HW1 5239   2.497   1.383   2.518 -0.1751 -0.2706  0.8768
 1681SOL    HW2 5240   2.388   1.337   2.423  0.6833 -0.0547 -0.2262
 1682SOL     OW 5241   1.329   0.822   0.786 -0.2704 -0.2746  0.2334
 1682SOL    HW1 5242   1.347   0.873   0.865 -0.4144 -0.4375  0.3714
 1682SOL    HW2 5243   1.401   0.844   0.727 -1.7927  2.2868 -0.7879
 1683SOL     OW 5244   3.365   3.942   2.207 -0.3753 -0.3460  0.4833
 1683SOL    HW1 5245   3.337   3.924   2.118  0.9080 -0.1954  0.0303
 1683SOL    HW2 5246   3.398   3.858   2.240 -0.0156 -0.2014  0.4958
 1684SOL     OW 5247   0.477   0.455   3.835  0.2861  0.0315  0.9509
 1684SOL    HW1 5248   0.529   0.534   3.823  2.1480 -1.2043  0.5153
 1684SOL    HW2 5249   0.530   0.399   3.892  0.1335 -1.8435 -0.6438
 1685SOL     OW 5250   4.814   4.181   3.427  0.6213  0.1016 -0.4952
 1685SOL    HW1 5251   4.761   4.260   3.437  1.4843  0.6576 -0.1670
 1685SOL    HW2 5252   4.806   4.157   3.334  0.5374  0.7100 -0.6459
 1686SOL     OW 5253   4.626   4.441   2.835  0.9009  0.2774 -0.6299
 1686SOL    HW1 5254   4.688   4.380   2.795  0.1193 -1.7569  1.0612
 1686SOL    HW2 5255   4.677   4.489   2.900  0.9489 -0.6686  0.0508
 1687SOL     OW 5256   4.519   3.396   4.410  0.0701 -0.0209 -0.2447
 1687SOL    HW1 5257   4.540   3.421   4.320  2.0910  0.8507  0.4072
 1687SOL    HW2 5258   4.424   3.407   4.416 -0.0107  0.6651 -2.0298
 1688SOL     OW 5259   1.057   1.425   1.098 -0.0028 -0.1006  0.5407
 1688SOL    HW1 5260   1.056   1.330   1.082  0.7867  0.1636 -1.3282
 1688SOL    HW2 5261   1.124   1.437   1.166  1.2375 -0.7455 -0.5135
 1689SOL     OW 5262   4.047   1.989   4.419 -0.4563 -0.4751 -0.3056
 1689SOL    HW1 5263   3.977   1.988   4.485 -0.9840 -1.9352 -0.8417
 1689SOL    HW2 5264   4.001   1.980   4.335  0.2696  0.3596 -0.8023
 1690SOL     OW 5265   3.538   2.512   4.711 -0.2095  0.3261  0.4973
 1690SOL    HW1 5266   3.592   2.534   4.787  0.4051  1.0756 -0.1384
 1690SOL    HW2 5267   3.601   2.488   4.643 -0.7009  0.6394 -0.0779
 1691SOL     OW 5268   4.636   1.049   2.665 -0.1964  0.1817 -0.1000
 1691SOL    HW1 5269   4.604   1.140   2.660  1.5932  0.8893  0.4146
 1691SOL    HW2 5270   4.579   1.007   2.730 -2.1476  0.4013 -1.5673
 1692SOL     OW 5271   2.153   0.270   0.031  0.2930  0.1611 -0.0740
 1692SOL    HW1 5272   2.191   0.184   0.014 -0.8821 -0.3144 -0.3599
 1692SOL    HW2 5273   2.067   0.252   0.068  0.1493  1.2148  0.1442
 1693SOL     OW 5274   0.186   1.373   3.086 -0.0390 -0.6482  0.0408
 1693SOL    HW1 5275   0.275   1.388   3.053 -0.0782  0.6598  0.4845
 1693SOL    HW2 5276   0.139   1.454   3.067 -1.0364 -1.1766  0.1764
 1694SOL     OW 5277   4.829   1.079   1.114 -0.3105 -0.0250  0.4373
 1694SOL    HW1 5278   4.764   1.127   1.165  0.5465  1.1739  0.4450
 1694SOL    HW2 5279   4.902   1.067   1.175 -0.0745 -0.3681  0.0901
 1695SOL     OW 5280   0.565   1.566   4.892 -0.0078  0.3743  0.7014
 1695SOL    HW1 5281   0.584   1.638   4.832  0.7554  0.8786  1.5040
 1695SOL    HW2 5282   0.506   1.604   4.957  0.2782  0.2418  1.0450
 1696SOL     OW 5283   4.207   3.306   2.493  0.3076  0.2596 -0.0892
 1696SOL    HW1 5284   4.138   3.245   2.519 -0.0422  0.0624 -1.4168
 1696SOL    HW2 5285   4.287   3.268   2.529 -0.0751 -0.3142  0.1791
 1697SOL     OW 5286   3.621   4.713   4.737  0.8851  0.4646  0.3058
 1697SOL    HW1 5287   3.583   4.788   4.691  0.7698  0.6069  0.6283
 1697SOL    HW2 5288   3.617   4.641   4.673 -0.4414  0.3336  0.5059
 1698SOL     OW 5289   0.980   0.372   3.146  0.1360 -0.1126  0.5492
 1698SOL    HW1 5290   1.064   0.394   3.106  0.0626  0.5112  0.7237
 1698SOL    HW2 5291   0.926   0.342   3.073  0.4368 -0.2902  0.3997
 1699SOL     OW 5292   0.890   0.057   1.314 -0.1404  0.0811  0.3715
 1699SOL    HW1 5293   0.823   0.117   1.282  0.7261  0.3151 -1.1555
 1699SOL    HW2 5294   0.931   0.023   1.234  0.1416 -1.6843  1.2239
 1700SOL     OW 5295   1.309   0.131   1.105 -0.2075  0.2679 -0.2664
 1700SOL    HW1 5296   1.264   0.063   1.055  1.2201 -0.8729 -0.0930
 1700SOL    HW2 5297   1.401   0.102   1.106  0.4913  2.3401 -0.3874
 1701SOL     OW 5298   2.355   2.645   0.811  0.4561 -0.4248  0.2228
 1701SOL    HW1 5299   2.285   2.661   0.747 -1.4222 -1.8475  1.7916
 1701SOL    HW2 5300   2.308   2.628   0.893  2.6199 -2.2750  1.1639
 1702SOL     OW 5301   4.504   1.963   2.948  0.3833  0.1688 -0.0138
 1702SOL    HW1 5302   4.424   1.929   2.907 -1.2054  0.5864  2.4911
 1702SOL    HW2 5303   4.498   2.057   2.936  0.0161  0.2740  0.9467
 1703SOL     OW 5304   4.562   3.406   4.132  0.4705  0.3353  0.3902
 1703SOL    HW1 5305   4.622   3.453   4.073  2.5479 -0.5255  1.7142
 1703SOL    HW2 5306   4.495   3.370   4.073  2.8366 -1.0985 -1.6222
 1704SOL     OW 5307   4.443   0.644   0.555  0.0862  0.5578 -0.5275
 1704SOL    HW1 5308   4.366   0.678   0.509  0.9784  1.7677 -1.1555
 1704SOL    HW2 5309   4.516   0.698   0.525  1.1464 -0.3478  0.3125
 1705SOL     OW 5310   2.685   0.593   0.485 -0.0246  0.2039  0.6506
 1705SOL    HW1 5311   2.733   0.573   0.404 -0.1244  1.0554  0.3773
 1705SOL    HW2 5312   2.726   0.672   0.519  0.4786 -0.5256  1.8195
 1706SOL     OW 5313   4.333   3.783   1.669 -0.5513 -0.3522 -0.5931
 1706SOL    HW1 5314   4.340   3.878   1.665  1.1836 -0.4939 -1.6434
 1706SOL    HW2 5315   4.415   3.754   1.709 -0.9951 -1.4203 -0.4204
 1707SOL     OW 5316   4.002   1.618   3.487 -0.4319  0.4828 -0.2614
 1707SOL    HW1 5317   3.934   1.683   3.505 -0.8463 -0.1736  0.6635
 1707SOL    HW2 5318   4.071   1.637   3.550 -1.4351 -1.1852  1.4620
 1708SOL     OW 5319   2.993   3.602   4.199  0.0055 -0.2529 -0.9066
 1708SOL    HW1 5320   2.988   3.508   4.215  1.1985 -0.0634  1.0454
 1708SOL    HW2 5321   3.080   3.614   4.159  1.3660  0.2556  1.9211
 1709SOL     OW 5322   3.019   3.070   4.901  0.0733  0.0146 -0.0106
 1709SOL    HW1 5323   2.984   3.157   4.920 -1.2826 -0.5552  0.1652
 1709SOL    HW2 5324   3.019   3.025   4.985 -2.3425 -1.2310 -0.6129
 1710SOL     OW 5325   3.222   2.567   0.692 -0.0159  0.1609  0.0402
 1710SOL    HW1 5326   3.176   2.612   0.621 -1.0567 -0.7396  0.1218
 1710SOL    HW2 5327   3.280   2.505   0.647 -0.1466  0.0921 -0.0340
 1711SOL     OW 5328   4.545   0.862   3.734  0.0240  0.0106  0.0082
 1711SOL    HW1 5329   4.618   0.906   3.779 -0.5222  0.7467  0.1864
 1711SOL    HW2 5330   4.534   0.912   3.653  1.4755 -1.7340 -1.3600
 1712SOL     OW 5331   1.061   0.616   1.877  0.5029  0.3165  0.0822
 1712SOL    HW1 5332   1.072   0.675   1.803 -0.6744 -0.8352 -1.0598
 1712SOL    HW2 5333   0.998   0.660   1.934  0.3454  0.5826 -0.2960
 1713SOL     OW 5334   2.010   2.665   2.249 -0.2956 -0.1522 -0.5964
 1713SOL    HW1 5335   1.931   2.613   2.262 -0.0869 -0.2464  0.3539
 1713SOL    HW2 5336   2.039   2.642   2.161 -0.4257 -1.3422 -0.3435
 1714SOL     OW 5337   4.761   3.515   2.119 -0.4688  0.1730 -0.2934
 1714SOL    HW1 5338   4.777   3.502   2.025 -0.3142  1.2219 -0.4278
 1714SOL    HW2 5339   4.795   3.603   2.137 -2.1029  0.7012  0.3691
 1715SOL     OW 5340   0.567   2.312   0.388 -0.0659 -0.4311  0.8597
 1715SOL    HW1 5341   0.478   2.344   0.399 -0.0339 -0.2604  0.6275
 1715SOL    HW2 5342   0.612   2.382   0.341 -0.0698 -0.9320  0.1022
 1716SOL     OW 5343   4.200   0.905   4.682  0.7848 -0.3102  0.0109
 1716SOL    HW1 5344   4.172   0.864   4.764  2.0666  0.6248  0.9499
 1716SOL    HW2 5345   4.222   0.995   4.706  2.1728 -0.3006 -1.1398
 1717SOL     OW 5346   1.959   4.348   2.617  0.3924 -0.0268 -0.0706
 1717SOL    HW1 5347   1.907   4.272   2.641 -1.3034  1.3060  0.6730
 1717SOL    HW2 5348   2.037   4.311   2.575  0.1196 -2.1930  1.1656
 1718SOL     OW 5349   2.209   2.500   3.968  0.0891  0.1084 -0.0751
 1718SOL    HW1 5350   2.178   2.578   3.921 -0.1506  0.9611  1.4565
 1718SOL    HW2 5351   2.269   2.534   4.034  0.3139 -1.0597  0.3433
 1719SOL     OW 5352   3.245   0.739   1.215  0.3400 -0.4516  0.3485
 1719SOL    HW1 5353   3.239   0.797   1.291  1.1215 -0.0762  0.1310
 1719SOL    HW2 5354   3.296   0.664   1.245 -0.7252 -1.0913  0.6486
 1720SOL     OW 5355   2.861   4.730   3.411  0.0082  0.6946 -0.4247
 1720SOL    HW1 5356   2.832   4.821   3.422  2.4317  1.5504 -0.5584
 1720SOL    HW2 5357   2.873   4.720   3.317  0.0342  0.3323 -0.3822
 1721SOL     OW 5358   2.212   0.002   3.224 -0.3346  0.7072 -0.2553
 1721SOL    HW1 5359   2.186  -0.030   3.138  0.5551 -0.6735 -0.0228
 1721SOL    HW2 5360   2.257   0.085   3.206 -1.0065  0.9225 -1.0192
 1722SOL     OW 5361   0.423   3.692   0.873  0.3029  0.6597 -0.2418
 1722SOL    HW1 5362   0.516   3.682   0.891  0.5294 -2.1694 -2.3196
 1722SOL    HW2 5363   0.419   3.737   0.789 -0.0511 -1.1413 -1.2398
 1723SOL     OW 5364   0.922   4.344   1.422  0.2160  0.8090  0.2753
 1723SOL    HW1 5365   0.944   4.417   1.364 -0.1404  1.1124  0.5176
 1723SOL    HW2 5366   0.979   4.356   1.498 -0.1069  1.0557  0.4829
 1724SOL     OW 5367   1.754   4.565   4.176  0.3191 -0.7768  0.4173
 1724SOL    HW1 5368   1.703   4.600   4.103 -2.8305 -2.3995  1.6354
 1724SOL    HW2 5369   1.774   4.641   4.230  2.0689  0.3423 -1.6708
 1725SOL     OW 5370   1.249   4.041   1.075 -0.0414 -0.3900  0.8256
 1725SOL    HW1 5371   1.320   3.981   1.101 -0.4086 -1.8937 -1.3575
 1725SOL    HW2 5372   1.171   3.985   1.073 -0.6048  0.4139 -0.2121
 1726SOL     OW 5373   4.170   4.518   2.823 -0.4369  0.4531 -0.8279
 1726SOL    HW1 5374   4.158   4.559   2.737 -0.7177  1.2702 -0.4099
 1726SOL    HW2 5375   4.111   4.566   2.881  0.0179  0.1477 -0.0987
 1727SOL     OW 5376   4.867   4.390   2.589  0.4997 -0.1311 -0.4032
 1727SOL    HW1 5377   4.800   4.323   2.597 -1.9841  2.0425 -1.6724
 1727SOL    HW2 5378   4.924   4.359   2.518  0.9070 -1.9828  0.6681
 1728SOL     OW 5379   4.253   2.873   3.775  0.3089  0.0032  0.6754
 1728SOL    HW1 5380   4.238   2.795   3.828 -0.4073  0.2239  0.8137
 1728SOL    HW2 5381   4.237   2.947   3.834  0.8061  0.2586  0.5005
 1729SOL     OW 5382   3.250   3.983   3.207  0.1436  0.3987  0.6922
 1729SOL    HW1 5383   3.241   4.031   3.125  1.9636 -2.4002 -1.3207
 1729SOL    HW2 5384   3.323   4.024   3.252  0.0217  1.0868  0.2746
 1730SOL     OW 5385   2.386   4.880   2.829  0.0343 -0.2970 -0.1520
 1730SOL    HW1 5386   2.447   4.954   2.838 -1.1957  1.0928 -2.2332
 1730SOL    HW2 5387   2.436   4.814   2.782  0.7825 -0.3401  0.6650
 1731SOL     OW 5388   1.570   1.432   4.185 -0.4048 -0.9262 -0.2350
 1731SOL    HW1 5389   1.609   1.519   4.179 -0.9342 -0.7268 -0.9615
 1731SOL    HW2 5390   1.639   1.377   4.222 -0.3301 -0.0465  0.9867
 1732SOL     OW 5391   2.234   0.419   4.220 -0.7479 -0.9337  0.4749
 1732SOL    HW1 5392   2.205   0.472   4.294  1.3694 -0.4031  0.9787
 1732SOL    HW2 5393   2.201   0.331   4.239 -1.5286 -0.4904  1.2553
 1733SOL     OW 5394   1.844   0.415   1.629 -0.7011 -0.0452 -0.1977
 1733SOL    HW1 5395   1.795   0.427   1.547 -2.4983 -1.4614  0.5862
 1733SOL    HW2 5396   1.920   0.472   1.620 -1.2460  0.4306 -2.5194
 1734SOL     OW 5397   3.454   0.288   0.055  0.1849 -0.0246  0.2478
 1734SOL    HW1 5398   3.427   0.248  -0.028 -0.7849 -0.5104  0.7785
 1734SOL    HW2 5399   3.520   0.229   0.090 -1.2650 -1.2407  1.0483
 1735SOL     OW 5400   1.799   0.074   4.279  0.1420  0.9531 -0.0210
 1735SOL    HW1 5401   1.705   0.059   4.278 -0.0241  1.8570 -1.9421
 1735SOL    HW2 5402   1.815   0.136   4.208  2.2000  0.8152  0.2465
 1736SOL     OW 5403   2.688   3.200   1.304  0.0084  0.1469 -0.5285
 1736SOL    HW1 5404   2.643   3.181   1.222 -0.2902  0.9560 -0.5593
 1736SOL    HW2 5405   2.781   3.203   1.282 -0.0412 -0.0402 -0.7579
 1737SOL     OW 5406   2.279   1.810   3.283 -0.2432  0.1677  0.3942
 1737SOL    HW1 5407   2.282   1.889   3.229 -1.2315 -0.3560 -0.4728
 1737SOL    HW2 5408   2.185   1.798   3.302 -0.3202 -1.7123 -0.9167
 1738SOL     OW 5409   0.776   2.892   3.050 -0.6106 -0.1021 -0.1346
 1738SOL    HW1 5410   0.800   2.972   3.097 -0.7447 -0.1274 -0.0211
 1738SOL    HW2 5411   0.846   2.830   3.072 -0.1121  0.2101 -0.8221
 1739SOL     OW 5412   2.571   0.822   4.305 -0.7856 -0.1048  0.3684
 1739SOL    HW1 5413   2.499   0.868   4.261 -1.3018 -0.8509  0.4093
 1739SOL    HW2 5414   2.574   0.860   4.392 -1.8949 -0.8412  0.7549
 1740SOL     OW 5415   0.666   3.831   0.315  0.2045  0.0320  1.0330
 1740SOL    HW1 5416   0.748   3.881   0.310  0.9745 -1.2604 -0.1525
 1740SOL    HW2 5417   0.688   3.747   0.274 -2.0492  0.1063 -0.4788
 1741SOL     OW 5418   4.002   2.522   3.276 -0.2746 -0.1807  0.5829
 1741SOL    HW1 5419   4.080   2.538   3.223 -1.5728  1.9163 -0.8844
 1741SOL    HW2 5420   4.008   2.585   3.348 -0.9414  0.5573  0.0182
 1742SOL     OW 5421   0.611   3.137   2.729  0.3716 -0.1722  0.3091
 1742SOL    HW1 5422   0.582   3.167   2.643  0.1465 -2.0976 -0.3460
 1742SOL    HW2 5423   0.651   3.052   2.712  1.2924 -0.1263  1.9870
 1743SOL     OW 5424   0.025   1.556   1.226 -0.7195  0.5781 -0.2911
 1743SOL    HW1 5425  -0.042   1.500   1.265 -0.6035 -0.3891 -1.4206
 1743SOL    HW2 5426   0.087   1.571   1.296 -1.5213  0.5237  0.4489
 1744SOL     OW 5427   3.326   3.939   1.935 -0.1416 -0.7957  0.1833
 1744SOL    HW1 5428   3.242   3.908   1.899 -0.3205 -1.5704  1.2262
 1744SOL    HW2 5429   3.333   4.029   1.904 -0.3875 -1.3555 -1.5949
 1745SOL     OW 5430   2.798   0.820   0.551 -0.2039 -0.7798 -0.2001
 1745SOL    HW1 5431   2.891   0.820   0.573 -0.1063 -1.0191 -0.5947
 1745SOL    HW2 5432   2.787   0.897   0.494  0.1985 -1.9264 -1.9104
 1746SOL     OW 5433   1.151   3.960   4.688  0.4777  0.0842 -0.6111
 1746SOL    HW1 5434   1.169   3.878   4.642  1.8682 -0.1330  0.2631
 1746SOL    HW2 5435   1.140   4.025   4.619 -0.4761 -0.7896 -1.3099
 1747SOL     OW 5436   0.329   0.189   4.490  0.4330  0.1673  0.0699
 1747SOL    HW1 5437   0.409   0.205   4.441  0.3698 -0.7945 -0.3715
 1747SOL    HW2 5438   0.357   0.180   4.581  0.7697  0.2495 -0.0280
 1748SOL     OW 5439   0.890   3.747   2.821  0.5814 -0.2540  0.0640
 1748SOL    HW1 5440   0.933   3.806   2.883  0.1550  1.0881 -0.8785
 1748SOL    HW2 5441   0.943   3.667   2.824  1.7257  0.5014  0.6854
 1749SOL     OW 5442   4.643   4.481   1.292 -0.1869 -0.1125  0.1046
 1749SOL    HW1 5443   4.678   4.404   1.248 -1.9615 -0.1117 -1.4469
 1749SOL    HW2 5444   4.683   4.555   1.246 -1.4385 -0.1206 -1.0653
 1750SOL     OW 5445   0.843   4.864   3.256 -0.2216 -0.2012  0.2084
 1750SOL    HW1 5446   0.847   4.938   3.317  1.0680  0.5626 -0.7423
 1750SOL    HW2 5447   0.919   4.811   3.278  0.6239  0.4228 -1.1118
 1751SOL     OW 5448   1.809   1.754   1.399 -0.1657 -0.3697  0.1444
 1751SOL    HW1 5449   1.843   1.742   1.310 -0.6576  0.6158 -0.1964
 1751SOL    HW2 5450   1.888   1.762   1.453  0.1400 -0.4747 -0.2781
 1752SOL     OW 5451   0.819   3.430   4.245 -0.4371 -0.5004  0.1267
 1752SOL    HW1 5452   0.877   3.429   4.321  1.2731 -0.6447 -1.1345
 1752SOL    HW2 5453   0.868   3.385   4.176 -2.3864 -1.3868 -0.7707
 1753SOL     OW 5454   3.013   1.819   4.891 -0.4473 -0.1316  0.2640
 1753SOL    HW1 5455   3.007   1.899   4.944 -1.6172  0.1963 -0.3305
 1753SOL    HW2 5456   3.091   1.775   4.924  1.5041  2.2556 -0.8045
 1754SOL     OW 5457   4.440   2.366   3.503  0.0724  0.4264  0.0735
 1754SOL    HW1 5458   4.416   2.289   3.554 -0.1958  0.1257 -0.4935
 1754SOL    HW2 5459   4.370   2.429   3.520 -1.3731 -0.5579 -1.8156
 1755SOL     OW 5460   3.536   1.310   4.096 -0.4572  0.2928 -0.1812
 1755SOL    HW1 5461   3.513   1.217   4.089  1.2202 -0.1571 -0.2457
 1755SOL    HW2 5462   3.464   1.356   4.052 -0.7634 -1.0504 -1.1572
 1756SOL     OW 5463   3.678   3.711   4.504  0.3109 -1.1586 -0.2359
 1756SOL    HW1 5464   3.685   3.797   4.544 -0.4480 -1.5688  0.8339
 1756SOL    HW2 5465   3.693   3.726   4.411  1.5484 -0.0896  0.1197
 1757SOL     OW 5466   1.656   2.492   0.414  0.0297 -0.3673 -0.2285
 1757SOL    HW1 5467   1.697   2.406   0.426 -1.1063 -0.7998  0.6834
 1757SOL    HW2 5468   1.728   2.554   0.428  0.8877 -1.1513 -1.0080
 1758SOL     OW 5469   3.930   0.542   4.031 -0.4408  0.4226 -0.0933
 1758SOL    HW1 5470   3.928   0.587   3.947  0.3625 -1.5120 -1.2165
 1758SOL    HW2 5471   4.007   0.485   4.027  0.9271  1.8132  2.8466
 1759SOL     OW 5472   4.649   2.443   0.036 -0.2560  0.7605 -0.2566
 1759SOL    HW1 5473   4.741   2.430   0.012 -0.6764  0.4523 -1.8388
 1759SOL    HW2 5474   4.610   2.486  -0.041 -1.5299  0.4497  0.1923
 1760SOL     OW 5475   1.044   3.530   2.836 -0.1149  0.3132 -0.1890
 1760SOL    HW1 5476   1.114   3.469   2.857  0.2948  1.4059  1.9721
 1760SOL    HW2 5477   1.015   3.505   2.749  2.6439 -0.4729 -0.9840
 1761SOL     OW 5478   3.772   2.366   4.522 -0.4392 -0.4752 -0.4729
 1761SOL    HW1 5479   3.864   2.374   4.498  0.4499 -0.3751  2.5827
 1761SOL    HW2 5480   3.765   2.278   4.560 -1.3680 -0.1186  0.2077
 1762SOL     OW 5481   3.385   3.240   4.751 -0.5494  0.1839  0.3973
 1762SOL    HW1 5482   3.387   3.211   4.660 -0.3552  0.6125  0.2628
 1762SOL    HW2 5483   3.425   3.327   4.750  3.1664 -1.2885  1.4283
 1763SOL     OW 5484   0.103   0.844   2.818  0.4469 -0.0780 -0.1945
 1763SOL    HW1 5485   0.124   0.796   2.738  0.4144 -0.4422  0.0127
 1763SOL    HW2 5486   0.008   0.835   2.826  0.2362  1.1978 -0.8989
 1764SOL     OW 5487   0.213   0.128   0.287 -0.0640 -0.2061  0.0399
 1764SOL    HW1 5488   0.305   0.127   0.315  0.4358 -1.8464 -1.5142
 1764SOL    HW2 5489   0.201   0.215   0.249  0.8272  0.0534  0.3129
 1765SOL     OW 5490   4.513   2.734   1.281 -0.7383  0.0128  0.2960
 1765SOL    HW1 5491   4.433   2.726   1.229  0.9180  2.1585 -2.9539
 1765SOL    HW2 5492   4.562   2.654   1.262 -0.5828  0.3333 -0.7376
 1766SOL     OW 5493   4.849   4.672   1.930 -0.7154  0.2539 -0.0972
 1766SOL    HW1 5494   4.807   4.587   1.919 -1.6007  0.5867  0.5912
 1766SOL    HW2 5495   4.776   4.734   1.932 -0.1358  0.9303  0.3601
 1767SOL     OW 5496   1.892   1.460   4.636  0.3990 -0.2492 -0.4789
 1767SOL    HW1 5497   1.804   1.447   4.673  0.6923 -0.4946  0.1348
 1767SOL    HW2 5498   1.878   1.520   4.562 -0.5136 -1.5075 -1.3815
 1768SOL     OW 5499   3.725   1.781   3.185 -0.4207 -0.4102 -0.4136
 1768SOL    HW1 5500   3.703   1.872   3.204 -0.2994 -0.4729  0.0249
 1768SOL    HW2 5501   3.821   1.779   3.180 -0.4719 -0.1420 -2.2979
 1769SOL     OW 5502   0.317   3.057   0.600 -0.3074  1.0130  0.0787
 1769SOL    HW1 5503   0.234   3.048   0.554 -2.0467  0.0039  3.1506
 1769SOL    HW2 5504   0.359   2.971   0.590 -1.4700  0.2139  1.6695
 1770SOL     OW 5505   2.059   3.983   4.046  0.4937  0.4196 -0.4510
 1770SOL    HW1 5506   2.044   3.969   3.953  1.9917  2.1811 -1.0213
 1770SOL    HW2 5507   2.097   3.901   4.077 -2.9263 -1.3731 -0.5854
 1771SOL     OW 5508   3.613   0.310   1.660 -0.1761  0.6085  0.1980
 1771SOL    HW1 5509   3.641   0.361   1.736  1.0630  2.1798 -1.2415
 1771SOL    HW2 5510   3.694   0.293   1.612 -0.8539 -0.9391 -0.4632
 1772SOL     OW 5511   0.901   2.349   2.469  0.3927 -0.0022 -0.1269
 1772SOL    HW1 5512   0.989   2.380   2.493  0.1254  0.7783 -0.1349
 1772SOL    HW2 5513   0.903   2.343   2.374  0.5972 -0.4731 -0.0930
 1773SOL     OW 5514   1.705   0.618   1.937  0.5819  0.0362  0.0832
 1773SOL    HW1 5515   1.667   0.564   2.006  0.6071  1.9564  1.6834
 1773SOL    HW2 5516   1.631   0.640   1.880  0.4452 -1.0596 -0.1729
 1774SOL     OW 5517   2.336   1.570   4.802 -0.2482 -0.4217  0.1889
 1774SOL    HW1 5518   2.275   1.638   4.773 -0.7967 -1.1268 -0.3585
 1774SOL    HW2 5519   2.284   1.515   4.861  0.7778  0.8305  2.3609
 1775SOL     OW 5520   4.478   3.288   0.718 -0.0388  0.0561 -0.7321
 1775SOL    HW1 5521   4.457   3.195   0.708  0.6809 -0.0351 -1.4859
 1775SOL    HW2 5522   4.426   3.332   0.651  1.2508 -0.0499 -1.8406
 1776SOL     OW 5523   3.524   3.533   4.054  0.0132  0.0113  0.4518
 1776SOL    HW1 5524   3.597   3.595   4.051 -0.8532  1.0286 -0.2002
 1776SOL    HW2 5525   3.508   3.509   3.963 -0.6927  0.0666  0.5573
 1777SOL     OW 5526   2.916   0.761   2.905 -0.0494 -0.5944  0.0564
 1777SOL    HW1 5527   2.823   0.769   2.886 -0.1539  1.7282  1.1534
 1777SOL    HW2 5528   2.959   0.812   2.836  0.4186 -1.5799 -0.3933
 1778SOL     OW 5529   3.502   4.139   2.967  0.7416 -0.1056  0.3105
 1778SOL    HW1 5530   3.572   4.152   3.031  2.1244 -2.6112 -0.5650
 1778SOL    HW2 5531   3.537   4.175   2.885  0.6322 -0.5043  0.0831
 1779SOL     OW 5532   2.856   4.124   4.526  0.0234 -0.2617 -0.1926
 1779SOL    HW1 5533   2.813   4.098   4.444  2.3742  0.6345 -1.8028
 1779SOL    HW2 5534   2.806   4.199   4.556 -0.6192 -0.3253 -1.0492
 1780SOL     OW 5535   4.931   3.303   4.245 -0.2800 -0.5554  0.0135
 1780SOL    HW1 5536   4.933   3.308   4.340 -1.5807  0.6541  0.0130
 1780SOL    HW2 5537   4.916   3.394   4.216 -0.9815 -1.0482 -1.2758
 1781SOL     OW 5538   1.150   0.920   0.352  0.4825 -0.6523  0.1336
 1781SOL    HW1 5539   1.060   0.923   0.384  1.0257 -1.0701  1.7719
 1781SOL    HW2 5540   1.144   0.872   0.268 -0.7956 -0.7585  0.2706
 1782SOL     OW 5541   4.861   1.010   3.335  0.0578  0.2547  0.3819
 1782SOL    HW1 5542   4.834   1.006   3.243  1.7204  1.5947 -0.2183
 1782SOL    HW2 5543   4.940   0.957   3.339 -0.0317  0.1602  1.0703
 1783SOL     OW 5544   2.866   0.415   2.093  0.3099  0.0830  0.3604
 1783SOL    HW1 5545   2.881   0.382   2.004  0.2628  1.7153 -0.2838
 1783SOL    HW2 5546   2.782   0.460   2.088  0.1504 -0.0791  1.3371
 1784SOL     OW 5547   1.050   0.757   2.563 -0.5112  0.2395  0.7235
 1784SOL    HW1 5548   1.110   0.779   2.634 -0.8297  1.7050  0.5833
 1784SOL    HW2 5549   0.963   0.759   2.603 -0.6593  0.6871  0.3981
 1785SOL     OW 5550   3.330   1.418   1.708 -0.4933  0.0436 -0.4620
 1785SOL    HW1 5551   3.365   1.358   1.774 -0.0172  0.4456 -0.3411
 1785SOL    HW2 5552   3.239   1.392   1.698 -0.2915 -0.7047 -0.4169
 1786SOL     OW 5553   0.683   2.933   4.309  0.2429 -0.6260 -0.3639
 1786SOL    HW1 5554   0.695   3.027   4.319  0.5440 -0.8464  1.8814
 1786SOL    HW2 5555   0.711   2.896   4.393 -1.2056 -2.6012 -0.6701
 1787SOL     OW 5556   2.120   2.274   1.252 -0.1964 -0.4436  0.0621
 1787SOL    HW1 5557   2.063   2.350   1.262 -1.1772 -1.2025  0.4158
 1787SOL    HW2 5558   2.112   2.227   1.335  0.8886 -0.6141  0.0869
 1788SOL     OW 5559   1.974   0.009   0.528 -0.9000  0.3662  0.5862
 1788SOL    HW1 5560   2.039   0.045   0.589  0.4366 -0.0721 -0.5336
 1788SOL    HW2 5561   1.946   0.084   0.475  0.3390  0.1869 -0.3662
 1789SOL     OW 5562   1.522   0.466   4.808  0.0453 -0.7143 -0.2634
 1789SOL    HW1 5563   1.524   0.415   4.888  0.3784  1.9924  1.5871
 1789SOL    HW2 5564   1.609   0.507   4.803 -0.9580  1.5701 -0.2592
 1790SOL     OW 5565   4.877   3.436   3.766  0.6413  0.1820 -0.0880
 1790SOL    HW1 5566   4.924   3.411   3.686 -0.5660 -0.6972 -0.5436
 1790SOL    HW2 5567   4.936   3.498   3.810  1.4922  0.3839 -1.4601
 1791SOL     OW 5568   4.045   0.150   0.565  0.2940 -0.5007 -0.2989
 1791SOL    HW1 5569   4.013   0.170   0.477  1.3696 -0.6332 -0.7471
 1791SOL    HW2 5570   4.137   0.125   0.551  1.0773  1.4158  1.0688
 1792SOL     OW 5571   3.160   3.330   1.329  0.2962  0.3787  0.0878
 1792SOL    HW1 5572   3.183   3.314   1.421  2.0810  1.6284 -0.0864
 1792SOL    HW2 5573   3.235   3.295   1.279 -0.6804 -0.3418 -0.9185
 1793SOL     OW 5574   4.651   3.110   1.981 -0.6581 -0.3220 -0.4920
 1793SOL    HW1 5575   4.707   3.180   1.947 -0.4384 -1.3169 -2.3170
 1793SOL    HW2 5576   4.688   3.030   1.944 -0.2596 -1.5846  2.3741
 1794SOL     OW 5577   3.541   1.944   0.298  0.3417  0.1087 -0.4480
 1794SOL    HW1 5578   3.522   2.007   0.367 -1.5525 -0.0864 -0.7438
 1794SOL    HW2 5579   3.635   1.927   0.307  0.4875  1.4079  0.9367
 1795SOL     OW 5580   2.493   3.238   0.624  0.1580  0.2751  0.3399
 1795SOL    HW1 5581   2.585   3.259   0.607  0.4318  0.3522  1.8004
 1795SOL    HW2 5582   2.448   3.322   0.617  0.2384  0.2897 -0.0641
 1796SOL     OW 5583   2.581   1.567   2.876 -0.2303  0.1584  0.0144
 1796SOL    HW1 5584   2.492   1.572   2.842 -0.4963  1.5598  0.8627
 1796SOL    HW2 5585   2.571   1.548   2.969  0.2943  1.2850  0.3231
 1797SOL     OW 5586   1.818   3.998   3.106 -0.4659  0.2697 -0.1496
 1797SOL    HW1 5587   1.892   4.007   3.045 -0.1902  0.6803  0.2440
 1797SOL    HW2 5588   1.837   4.059   3.177 -0.7830 -0.2161  0.3618
 1798SOL     OW 5589   3.090   0.393   0.529 -0.1970  0.2431 -0.1797
 1798SOL    HW1 5590   3.182   0.385   0.553  0.2142 -0.1205 -1.7413
 1798SOL    HW2 5591   3.087   0.470   0.471 -0.7892 -0.0150 -0.4996
 1799SOL     OW 5592   4.283   3.791   2.062  0.1028 -1.3635 -0.2389
 1799SOL    HW1 5593   4.315   3.840   2.137 -1.1988  0.4534 -0.8047
 1799SOL    HW2 5594   4.332   3.709   2.064  2.3406 -0.0846  0.7869
 1800SOL     OW 5595   0.775   1.682   0.284  0.1156  0.4954  0.0004
 1800SOL    HW1 5596   0.787   1.748   0.216 -0.3422 -0.9713 -1.5673
 1800SOL    HW2 5597   0.791   1.729   0.366 -0.8337  2.7132 -0.9947
 1801SOL     OW 5598   4.800   4.310   0.895  0.0187 -0.2455  0.0257
 1801SOL    HW1 5599   4.855   4.387   0.907  0.2010 -0.6341  1.9023
 1801SOL    HW2 5600   4.858   4.245   0.854 -0.1623  0.5852 -1.6599
 1802SOL     OW 5601   1.690   3.951   2.544  0.3458  0.1821  0.8413
 1802SOL    HW1 5602   1.628   3.878   2.549 -0.2357  0.5310 -0.5157
 1802SOL    HW2 5603   1.636   4.029   2.558  0.2018  0.5667 -1.4545
 1803SOL     OW 5604   3.187   0.405   4.380 -0.0933  0.2263 -0.2190
 1803SOL    HW1 5605   3.171   0.398   4.475  0.3619 -0.4741 -0.1911
 1803SOL    HW2 5606   3.226   0.492   4.369 -0.1860  0.3289  0.2272
 1804SOL     OW 5607   0.172   1.166   2.318  0.6340  0.0947 -0.4703
 1804SOL    HW1 5608   0.236   1.096   2.331  1.1378  0.6596  0.1469
 1804SOL    HW2 5609   0.209   1.241   2.364 -0.4049  0.4741 -0.2353
 1805SOL     OW 5610   0.996   1.990   4.846 -0.1632 -0.5251  0.3591
 1805SOL    HW1 5611   0.903   1.995   4.824 -0.2152 -1.3966  0.3331
 1805SOL    HW2 5612   1.021   2.080   4.865 -0.6356 -0.0272 -1.1749
 1806SOL     OW 5613   3.222   4.121   2.990  0.1424 -0.3563 -0.3198
 1806SOL    HW1 5614   3.314   4.098   2.982  0.1627  0.1524 -1.9310
 1806SOL    HW2 5615   3.201   4.166   2.908 -1.4578 -0.1757  0.1467
 1807SOL     OW 5616   3.213   2.663   1.799  0.3210 -0.1384  0.2476
 1807SOL    HW1 5617   3.223   2.753   1.766  0.5956 -0.7386 -1.4389
 1807SOL    HW2 5618   3.244   2.667   1.889  3.9492  0.7289 -0.8617
 1808SOL     OW 5619   0.158   1.997   1.319  0.0751 -0.1216 -0.4044
 1808SOL    HW1 5620   0.206   1.938   1.262 -0.1257  0.2045 -0.9221
 1808SOL    HW2 5621   0.166   2.083   1.277  0.3303  0.2173  0.3137
 1809SOL     OW 5622   0.770   4.799   3.604  0.1475 -0.3164  0.3867
 1809SOL    HW1 5623   0.864   4.798   3.583  0.0499 -0.1744 -0.0777
 1809SOL    HW2 5624   0.732   4.858   3.538 -0.4064 -1.1006 -0.0004
 1810SOL     OW 5625   0.681   2.431   3.331 -0.6674  0.4081 -0.2532
 1810SOL    HW1 5626   0.607   2.445   3.272  0.6988  2.9110 -1.5389
 1810SOL    HW2 5627   0.696   2.336   3.330 -2.9173  0.0065 -1.0633
 1811SOL     OW 5628   0.500   0.184   0.308 -0.0145  0.6078 -0.2000
 1811SOL    HW1 5629   0.557   0.185   0.385  1.2271 -0.4771 -1.0554
 1811SOL    HW2 5630   0.555   0.217   0.237 -0.6965  0.2643 -0.9084
 1812SOL     OW 5631   2.060   4.474   3.682 -0.1520  0.2165 -0.2227
 1812SOL    HW1 5632   2.113   4.552   3.695  1.5041 -0.6622 -1.2682
 1812SOL    HW2 5633   2.093   4.436   3.600 -2.1857 -0.5822 -0.7212
 1813SOL     OW 5634   2.611   4.882   1.145 -0.2597 -0.4051 -0.0948
 1813SOL    HW1 5635   2.525   4.877   1.104  0.9628  1.7828 -3.3250
 1813SOL    HW2 5636   2.670   4.836   1.085  1.1677 -0.0052  0.9335
 1814SOL     OW 5637   1.994   2.204   2.313  0.6951 -0.5834  0.1211
 1814SOL    HW1 5638   1.953   2.187   2.398 -2.6207 -1.4410 -1.4628
 1814SOL    HW2 5639   2.000   2.117   2.272  0.5231 -0.0023 -1.1819
 1815SOL     OW 5640   1.968   2.370   4.059  0.1376  0.1280 -0.1389
 1815SOL    HW1 5641   2.046   2.419   4.031 -0.0609 -0.4922 -1.8679
 1815SOL    HW2 5642   2.002   2.289   4.096  0.3922  0.8717  1.3445
 1816SOL     OW 5643   1.351   4.615   4.117  0.0347  0.5321  0.1820
 1816SOL    HW1 5644   1.266   4.623   4.073 -0.6352  2.1455  1.6264
 1816SOL    HW2 5645   1.330   4.573   4.201  0.9445 -0.4853 -0.0687
 1817SOL     OW 5646   1.025   1.968   0.410 -0.4608 -0.0650 -0.0437
 1817SOL    HW1 5647   0.960   1.902   0.434  0.9358 -0.8638  1.8541
 1817SOL    HW2 5648   1.023   2.031   0.483  1.0491 -0.2747  0.2138
 1818SOL     OW 5649   0.598   1.632   2.995  0.3561  0.6073 -0.1446
 1818SOL    HW1 5650   0.666   1.578   3.034 -2.2501 -1.7939  1.4618
 1818SOL    HW2 5651   0.590   1.598   2.905  1.0029  0.6565 -0.2270
 1819SOL     OW 5652   0.228   3.471   0.667 -0.2879  0.5192 -0.3269
 1819SOL    HW1 5653   0.273   3.406   0.721  0.8225  3.1653  2.2041
 1819SOL    HW2 5654   0.135   3.454   0.679 -0.0526 -1.6436 -1.2109
 1820SOL     OW 5655   3.625   4.255   2.760 -0.1894 -0.2233  0.3082
 1820SOL    HW1 5656   3.720   4.246   2.769 -0.0259  0.8135 -0.1869
 1820SOL    HW2 5657   3.612   4.345   2.728 -1.2546 -0.6953 -0.6966
 1821SOL     OW 5658   0.010   2.693   2.594 -0.3865  0.5414 -0.3840
 1821SOL    HW1 5659  -0.001   2.739   2.511  0.0681 -0.4599 -1.0121
 1821SOL    HW2 5660   0.056   2.612   2.571  1.2987  1.0262  1.0823
 1822SOL     OW 5661   1.894   3.124   0.083  0.3455  0.1233  0.5690
 1822SOL    HW1 5662   1.895   3.063   0.009  1.9360  1.1550 -0.3437
 1822SOL    HW2 5663   1.975   3.104   0.131 -0.2189  0.0715  1.5109
 1823SOL     OW 5664   0.537   4.887   1.840  0.4181  0.5680  0.1969
 1823SOL    HW1 5665   0.580   4.960   1.795 -0.1556  1.1508  0.5768
 1823SOL    HW2 5666   0.455   4.875   1.792  0.7893 -0.2538 -0.2568
 1824SOL     OW 5667   3.194   4.162   0.305 -0.0443  0.2305 -0.2889
 1824SOL    HW1 5668   3.268   4.130   0.358  0.1537 -0.1899 -0.8045
 1824SOL    HW2 5669   3.190   4.256   0.323  1.3573  0.4803 -1.1250
 1825SOL     OW 5670   4.513   3.165   4.658  0.7936  0.0894  0.5209
 1825SOL    HW1 5671   4.519   3.260   4.653 -0.4496  0.1817  0.3615
 1825SOL    HW2 5672   4.424   3.148   4.689  0.0271 -1.0642 -2.0039
 1826SOL     OW 5673   4.649   3.094   4.424 -0.3975 -0.1775 -0.1349
 1826SOL    HW1 5674   4.743   3.088   4.442 -0.1662 -0.0494 -1.2385
 1826SOL    HW2 5675   4.608   3.093   4.511  0.4878 -2.3804  0.3490
 1827SOL     OW 5676   1.832   0.867   0.187  0.3017  0.0937 -0.1581
 1827SOL    HW1 5677   1.861   0.884   0.098  1.7462 -0.3358  0.2058
 1827SOL    HW2 5678   1.807   0.954   0.220  0.9360  0.4483 -0.5819
 1828SOL     OW 5679   3.153   2.153   4.359 -0.5291  0.7801  0.0912
 1828SOL    HW1 5680   3.154   2.242   4.323  1.0839  1.3265  1.3504
 1828SOL    HW2 5681   3.114   2.100   4.290  1.3015  1.9622 -1.9934
 1829SOL     OW 5682   0.027   2.578   2.195  0.4278 -0.4787 -0.1651
 1829SOL    HW1 5683   0.014   2.660   2.242  0.5108 -0.9404  0.6860
 1829SOL    HW2 5684   0.122   2.569   2.188  0.4164  0.4553 -2.0090
 1830SOL     OW 5685   4.181   3.179   0.424  0.5120  0.2267  0.2570
 1830SOL    HW1 5686   4.227   3.132   0.354 -0.6962  0.0351 -0.4291
 1830SOL    HW2 5687   4.088   3.164   0.406  0.0409  3.1022 -0.2007
 1831SOL     OW 5688   3.884   0.376   0.764  0.1842  0.3051 -0.0388
 1831SOL    HW1 5689   3.922   0.417   0.686 -0.1599 -1.3605 -1.1242
 1831SOL    HW2 5690   3.953   0.319   0.797  0.1935  0.7185  0.6671
 1832SOL     OW 5691   0.393   0.360   1.833 -0.5728  0.2516  0.1934
 1832SOL    HW1 5692   0.301   0.361   1.805 -0.7080  0.8045  0.6559
 1832SOL    HW2 5693   0.409   0.269   1.859 -0.3571 -0.3824 -1.9441
 1833SOL     OW 5694   0.086   4.351   1.064  0.0087  0.3915 -0.0009
 1833SOL    HW1 5695   0.142   4.311   0.998  0.4460  0.7927  0.1179
 1833SOL    HW2 5696   0.102   4.300   1.143  0.7686  0.9391  0.2202
 1834SOL     OW 5697   4.700   2.031   2.185 -0.0170  0.2259  0.7293
 1834SOL    HW1 5698   4.668   2.113   2.222 -1.3495  0.1737 -0.2452
 1834SOL    HW2 5699   4.748   2.057   2.106  0.5074  0.1365  1.0128
 1835SOL     OW 5700   2.717   0.821   1.136 -0.3942 -0.2712  0.3403
 1835SOL    HW1 5701   2.738   0.746   1.081 -0.8625 -1.1680  1.3596
 1835SOL    HW2 5702   2.639   0.860   1.096  0.7029  0.5918 -1.0448
 1836SOL     OW 5703   0.716   2.480   4.424 -0.4831  1.2162  0.1792
 1836SOL    HW1 5704   0.627   2.504   4.448  0.0654  1.3732  2.2680
 1836SOL    HW2 5705   0.726   2.389   4.454 -0.5995  0.3816 -2.0891
 1837SOL     OW 5706   1.421   3.156   4.938  0.7780 -0.7408  0.4625
 1837SOL    HW1 5707   1.389   3.085   4.883 -0.9790  0.3422 -0.0198
 1837SOL    HW2 5708   1.423   3.232   4.880  2.3396 -0.3266  1.0310
 1838SOL     OW 5709   1.788   1.285   1.415 -0.2583  0.2415 -0.8947
 1838SOL    HW1 5710   1.797   1.357   1.352 -0.0967 -0.0148 -1.1680
 1838SOL    HW2 5711   1.812   1.207   1.365 -1.8534 -0.1981 -1.0162
 1839SOL     OW 5712   0.182   2.552   0.841  0.1358 -0.4012  0.2265
 1839SOL    HW1 5713   0.227   2.505   0.911  2.0375  0.3233 -0.4476
 1839SOL    HW2 5714   0.206   2.504   0.761 -1.7170 -1.0065 -0.0096
 1840SOL     OW 5715   0.859   0.426   3.757 -0.8492  0.5541 -0.3608
 1840SOL    HW1 5716   0.809   0.397   3.681  1.1841 -0.7392 -1.2942
 1840SOL    HW2 5717   0.865   0.348   3.813  1.1906  0.2353 -0.9290
 1841SOL     OW 5718   3.528   1.552   2.524  0.3304 -0.1921 -0.4044
 1841SOL    HW1 5719   3.479   1.622   2.480  2.1702  0.4596 -1.5714
 1841SOL    HW2 5720   3.563   1.593   2.603  0.3728 -0.1676 -0.4361
 1842SOL     OW 5721   3.040   1.284   1.644  0.0858 -0.2243 -0.3230
 1842SOL    HW1 5722   2.953   1.325   1.651  0.1760 -0.2003  0.9574
 1842SOL    HW2 5723   3.024   1.191   1.659  0.3198 -0.1704  0.2883
 1843SOL     OW 5724   2.303   4.709   1.523  0.0199  0.1423 -0.2728
 1843SOL    HW1 5725   2.241   4.651   1.567  0.6512  0.2247  0.7443
 1843SOL    HW2 5726   2.372   4.724   1.587  0.6827  0.7192 -1.0992
 1844SOL     OW 5727   3.150   2.747   3.375  0.3785 -0.7160 -0.3056
 1844SOL    HW1 5728   3.191   2.765   3.459  0.8076  0.6525 -0.7957
 1844SOL    HW2 5729   3.060   2.720   3.398  0.3253  0.1577  0.5588
 1845SOL     OW 5730   0.288   3.445   1.703 -0.3219 -0.4320  0.2427
 1845SOL    HW1 5731   0.244   3.529   1.717 -1.8625 -1.2735  0.7437
 1845SOL    HW2 5732   0.295   3.437   1.608 -0.4954  0.1045  0.1857
 1846SOL     OW 5733   0.730   1.484   1.540  0.4139 -0.0491 -0.2274
 1846SOL    HW1 5734   0.806   1.434   1.509  0.9690  1.3856 -1.2946
 1846SOL    HW2 5735   0.713   1.548   1.471 -0.9405  0.5401  0.6045
 1847SOL     OW 5736   0.876   1.244   0.257 -0.2386  0.3997 -0.6958
 1847SOL    HW1 5737   0.887   1.255   0.352  2.3895  0.7936 -0.9647
 1847SOL    HW2 5738   0.848   1.330   0.226  1.2309  0.9954 -0.4939
 1848SOL     OW 5739   2.669   3.464   3.117  0.2037 -0.3069 -0.2859
 1848SOL    HW1 5740   2.761   3.437   3.113  0.4618  0.6350 -1.0879
 1848SOL    HW2 5741   2.657   3.516   3.037 -1.2184 -1.0236 -0.5655
 1849SOL     OW 5742   0.187   4.655   0.835 -0.0472  0.1527  0.2738
 1849SOL    HW1 5743   0.251   4.712   0.792 -1.3596  1.0325 -0.6065
 1849SOL    HW2 5744   0.233   4.572   0.848  1.0400  0.5268 -0.9856
 1850SOL     OW 5745   4.609   4.358   0.717  0.2244  0.2862  0.6169
 1850SOL    HW1 5746   4.659   4.333   0.639 -0.1947  1.0924  0.0710
 1850SOL    HW2 5747   4.670   4.346   0.789  1.1599  1.0466 -0.0164
 1851SOL     OW 5748   3.105   4.867   0.954  0.0559  0.0483 -0.2808
 1851SOL    HW1 5749   3.190   4.824   0.961  0.2251  0.3836 -0.3011
 1851SOL    HW2 5750   3.124   4.957   0.927 -0.3413 -0.0719 -1.0063
 1852SOL     OW 5751   0.905   4.865   2.175 -0.6157  0.1987  0.4783
 1852SOL    HW1 5752   0.818   4.830   2.157 -0.0344 -0.6728 -0.7957
 1852SOL    HW2 5753   0.909   4.945   2.123 -0.5723  0.1010  0.3293
 1853SOL     OW 5754   1.800   4.834   1.825  0.2258  0.2319  0.0783
 1853SOL    HW1 5755   1.833   4.780   1.753 -1.6361  0.5278 -1.0653
 1853SOL    HW2 5756   1.746   4.774   1.877  0.3963  0.3597  0.4064
 1854SOL     OW 5757   0.685   3.821   1.195 -0.1923  0.0347 -0.0111
 1854SOL    HW1 5758   0.750   3.788   1.258  0.0269 -0.7278 -0.6224
 1854SOL    HW2 5759   0.703   3.915   1.190 -0.8417  0.3021  1.7826
 1855SOL     OW 5760   1.179   1.199   0.302  0.0931 -0.0351  0.5742
 1855SOL    HW1 5761   1.134   1.116   0.318  0.0108  0.2527  2.0126
 1855SOL    HW2 5762   1.195   1.201   0.208 -2.3570 -0.4437  0.0810
 1856SOL     OW 5763   3.655   1.525   1.856 -0.0613 -0.2422  0.6162
 1856SOL    HW1 5764   3.581   1.583   1.836  0.2456 -0.3400 -0.8994
 1856SOL    HW2 5765   3.621   1.466   1.923 -1.8653 -1.2459 -1.0757
 1857SOL     OW 5766   2.336   2.293   2.276 -0.7779 -0.7378 -0.1579
 1857SOL    HW1 5767   2.424   2.294   2.238 -0.7369 -0.1223 -0.0477
 1857SOL    HW2 5768   2.328   2.206   2.316 -0.4234 -0.9925 -0.6355
 1858SOL     OW 5769   3.225   1.120   3.265  0.4126  0.1247  0.1420
 1858SOL    HW1 5770   3.185   1.177   3.199 -2.3593 -0.5154  1.1049
 1858SOL    HW2 5771   3.313   1.155   3.277  0.4118  1.3382 -2.5724
 1859SOL     OW 5772   3.018   3.630   0.779  0.1365 -0.2841 -0.0227
 1859SOL    HW1 5773   2.995   3.686   0.705  0.5138  0.3071  0.3021
 1859SOL    HW2 5774   3.106   3.600   0.760  1.3245  2.0191  1.4298
 1860SOL     OW 5775   1.915   4.082   2.621  0.4561 -0.3251 -0.3290
 1860SOL    HW1 5776   1.833   4.032   2.615  0.4103 -0.5414  1.6265
 1860SOL    HW2 5777   1.976   4.034   2.565 -0.9621  0.4361 -2.7383
 1861SOL     OW 5778   3.910   3.727   2.451  0.2945 -0.0465  0.0243
 1861SOL    HW1 5779   3.883   3.643   2.414  0.9626 -0.5048  0.5435
 1861SOL    HW2 5780   3.999   3.712   2.482  0.9913  1.3077 -1.2432
 1862SOL     OW 5781   1.675   3.322   4.070  0.6855 -0.4007  0.1502
 1862SOL    HW1 5782   1.649   3.246   4.121 -2.4243  1.4654  1.6278
 1862SOL    HW2 5783   1.683   3.392   4.134 -1.1744  1.5433 -1.5830
 1863SOL     OW 5784   0.107   0.617   0.479 -0.1014  0.2120  0.0353
 1863SOL    HW1 5785   0.179   0.636   0.419  0.6501  1.0429  1.1438
 1863SOL    HW2 5786   0.144   0.635   0.566 -0.5597 -2.6174  0.9329
 1864SOL     OW 5787   1.585   2.257   3.584 -0.2146 -0.6097  0.0334
 1864SOL    HW1 5788   1.643   2.333   3.589  0.2397 -1.0008  0.9711
 1864SOL    HW2 5789   1.584   2.234   3.491  3.2918 -2.1850  0.2332
 1865SOL     OW 5790   4.764   2.520   2.416 -0.1814  0.0690 -0.1188
 1865SOL    HW1 5791   4.787   2.439   2.462 -1.1637 -0.6105 -0.7655
 1865SOL    HW2 5792   4.848   2.557   2.389  0.3768  0.1998  1.7015
 1866SOL     OW 5793   2.488   3.274   1.650  0.4352 -0.0457  0.2182
 1866SOL    HW1 5794   2.485   3.231   1.735  1.4892  0.0638  0.3265
 1866SOL    HW2 5795   2.457   3.363   1.667 -2.2387 -0.8303 -0.1003
 1867SOL     OW 5796   1.291   1.501   4.126  0.4244  0.3758  0.2641
 1867SOL    HW1 5797   1.236   1.529   4.199  0.0978 -0.4344  0.3425
 1867SOL    HW2 5798   1.380   1.498   4.163  0.0859 -1.3529  1.0473
 1868SOL     OW 5799   1.336   3.484   4.065 -0.2271  0.0726  0.0076
 1868SOL    HW1 5800   1.250   3.511   4.098  0.0929 -0.7239  1.5663
 1868SOL    HW2 5801   1.397   3.545   4.106 -0.0860  1.3678 -1.9789
 1869SOL     OW 5802   4.201   0.415   1.894  0.1936 -0.2591  0.2273
 1869SOL    HW1 5803   4.199   0.491   1.951 -1.2359  0.3310 -0.5572
 1869SOL    HW2 5804   4.293   0.408   1.866  0.0191  2.5317 -1.4000
 1870SOL     OW 5805   2.776   3.127   4.195 -0.1119 -0.1457 -0.0573
 1870SOL    HW1 5806   2.687   3.141   4.225  0.4501  1.4264  1.0205
 1870SOL    HW2 5807   2.767   3.071   4.117 -1.8461 -1.7811  1.2330
 1871SOL     OW 5808   4.663   1.409   1.098  0.6711  0.4630  0.3907
 1871SOL    HW1 5809   4.643   1.359   1.177  0.4744 -0.0179  0.0405
 1871SOL    HW2 5810   4.580   1.409   1.049  0.9978  0.1067 -0.1688
 1872SOL     OW 5811   4.855   0.412   2.127 -0.1823  0.8894 -0.1492
 1872SOL    HW1 5812   4.910   0.380   2.198 -2.2949 -2.5963  0.1433
 1872SOL    HW2 5813   4.879   0.358   2.051 -2.0725  0.3080 -0.3983
 1873SOL     OW 5814   0.712   4.453   1.851  0.0351 -0.0286  0.4574
 1873SOL    HW1 5815   0.631   4.472   1.802 -0.6057 -1.5570  0.8438
 1873SOL    HW2 5816   0.739   4.367   1.818 -0.5696 -1.2349  2.9071
 1874SOL     OW 5817   2.239   0.108   1.727 -0.7655  0.3896 -0.5909
 1874SOL    HW1 5818   2.305   0.048   1.763 -0.0786  0.8950 -0.9741
 1874SOL    HW2 5819   2.236   0.087   1.634 -1.4289  0.1170 -0.5107
 1875SOL     OW 5820   3.917   0.216   4.826 -0.2416 -0.5008  0.0765
 1875SOL    HW1 5821   4.012   0.215   4.825 -0.2295 -0.4462  0.6177
 1875SOL    HW2 5822   3.892   0.124   4.836 -0.2696 -0.6105 -0.9273
 1876SOL     OW 5823   0.921   0.076   0.140 -0.1759  0.2751 -0.7218
 1876SOL    HW1 5824   0.910   0.011   0.071  0.0526  0.3803 -0.8585
 1876SOL    HW2 5825   1.014   0.098   0.138  0.0517 -0.5007  0.3311
 1877SOL     OW 5826   2.458   1.463   4.578 -0.5622  0.1895  0.1991
 1877SOL    HW1 5827   2.496   1.517   4.509 -0.8089  1.7751  1.2616
 1877SOL    HW2 5828   2.456   1.519   4.655 -0.7857 -1.3662  1.3842
 1878SOL     OW 5829   2.333   3.710   2.942 -0.0087 -0.0657  0.1698
 1878SOL    HW1 5830   2.413   3.657   2.934  0.0729  0.1729 -0.7520
 1878SOL    HW2 5831   2.334   3.767   2.865 -1.1376 -0.1575  0.0645
 1879SOL     OW 5832   3.489   0.394   4.102  0.3056  0.2470  0.0632
 1879SOL    HW1 5833   3.502   0.330   4.172  1.4058  1.1141  0.6930
 1879SOL    HW2 5834   3.526   0.352   4.024 -1.2316 -0.8610 -0.1076
 1880SOL     OW 5835   0.366   4.853   1.406 -0.2681 -0.5346 -0.6204
 1880SOL    HW1 5836   0.410   4.922   1.357  1.3614 -1.5460 -0.6465
 1880SOL    HW2 5837   0.359   4.888   1.495 -0.1259 -0.0434 -0.7985
 1881SOL     OW 5838   1.039   0.347   1.287 -0.0308 -1.0378 -0.0544
 1881SOL    HW1 5839   1.100   0.354   1.213  1.3522  1.3271  1.2018
 1881SOL    HW2 5840   0.952   0.345   1.247  0.7291 -1.2456 -1.7786
 1882SOL     OW 5841   0.578   4.349   4.734  0.0586 -0.5084 -0.2959
 1882SOL    HW1 5842   0.488   4.329   4.707 -0.5229  0.9644  0.4155
 1882SOL    HW2 5843   0.592   4.296   4.813 -0.4316 -0.2711 -0.0429
 1883SOL     OW 5844   3.510   0.232   3.333 -0.4982  0.4495 -0.0433
 1883SOL    HW1 5845   3.500   0.140   3.360 -1.0209 -0.2175 -2.3156
 1883SOL    HW2 5846   3.436   0.248   3.275  0.5708  1.7415 -1.1015
 1884SOL     OW 5847   4.057   4.331   1.150 -0.2954 -0.4668  0.7831
 1884SOL    HW1 5848   4.101   4.375   1.222 -0.2408  0.1839  0.3577
 1884SOL    HW2 5849   3.982   4.386   1.129  1.4160  1.1182 -1.7332
 1885SOL     OW 5850   0.010   4.630   2.522 -0.1301  0.2695 -0.3662
 1885SOL    HW1 5851  -0.037   4.552   2.550  0.5312 -0.0275 -0.0665
 1885SOL    HW2 5852  -0.048   4.671   2.458 -0.7095 -0.1883 -0.1400
 1886SOL     OW 5853   1.054   3.380   1.400 -0.8235  0.3398 -0.1776
 1886SOL    HW1 5854   0.976   3.364   1.348 -0.5394  2.2223 -1.2583
 1886SOL    HW2 5855   1.127   3.361   1.340 -0.4960  2.1725 -0.4354
 1887SOL     OW 5856   1.047   2.336   4.355 -0.2117  0.4300  1.0684
 1887SOL    HW1 5857   1.011   2.283   4.426 -0.1165  0.1541  0.9134
 1887SOL    HW2 5858   0.970   2.370   4.310 -0.3000 -0.5451  0.4495
 1888SOL     OW 5859   3.708   0.213   0.224  0.2967  0.6233  0.6364
 1888SOL    HW1 5860   3.795   0.175   0.211  1.8767  3.5847  1.4895
 1888SOL    HW2 5861   3.692   0.203   0.318  0.5733  1.5908  0.8062
 1889SOL     OW 5862   1.790   2.423   1.401 -0.3970  0.2290 -0.1956
 1889SOL    HW1 5863   1.767   2.331   1.393 -1.4825  0.4864 -0.2459
 1889SOL    HW2 5864   1.805   2.453   1.311 -2.0742  0.5708 -0.3989
 1890SOL     OW 5865   0.179   4.896   0.057  0.3292  0.2632  0.1295
 1890SOL    HW1 5866   0.091   4.933   0.063  0.1465 -0.1694  0.1308
 1890SOL    HW2 5867   0.229   4.941   0.125 -0.8293 -2.1123  2.7360
 1891SOL     OW 5868   1.578   1.534   1.500  0.0451 -0.0911 -0.0100
 1891SOL    HW1 5869   1.654   1.513   1.555 -1.2559 -0.8996  1.5457
 1891SOL    HW2 5870   1.604   1.614   1.454  1.7531 -0.2115  0.6509
 1892SOL     OW 5871   3.664   0.931   4.281  0.1610  0.9421  0.0204
 1892SOL    HW1 5872   3.627   0.912   4.368 -1.4164  1.7654 -0.4394
 1892SOL    HW2 5873   3.759   0.921   4.293 -0.1206 -0.4372  1.4559
 1893SOL     OW 5874   2.593   1.915   1.112  0.4364 -0.0060 -0.0624
 1893SOL    HW1 5875   2.633   1.899   1.026  0.8466 -1.5654  0.3792
 1893SOL    HW2 5876   2.619   2.004   1.135  0.2426  0.4763 -1.5852
 1894SOL     OW 5877   2.273   0.039   4.414 -1.0071 -0.0344  0.8304
 1894SOL    HW1 5878   2.182   0.068   4.402 -0.7803  0.3677  0.0524
 1894SOL    HW2 5879   2.307   0.026   4.326  0.3213  1.8356  1.0060
 1895SOL     OW 5880   4.122   1.593   3.747  0.0381  0.1733  0.7163
 1895SOL    HW1 5881   4.183   1.550   3.808 -2.0636 -0.8391  2.2285
 1895SOL    HW2 5882   4.118   1.684   3.778  3.3080  1.2756 -1.5456
 1896SOL     OW 5883   2.305   4.675   1.819 -0.0161 -0.0560 -0.0560
 1896SOL    HW1 5884   2.286   4.582   1.830  1.6906 -0.3940  0.3043
 1896SOL    HW2 5885   2.246   4.718   1.881 -1.7189 -0.7709 -1.1258
 1897SOL     OW 5886   1.869   3.700   2.538  0.3587 -0.4244  0.2582
 1897SOL    HW1 5887   1.820   3.782   2.536 -2.2286 -1.8489 -1.9619
 1897SOL    HW2 5888   1.848   3.661   2.622  0.6978  0.6352  0.8579
 1898SOL     OW 5889   3.837   2.048   4.164  0.4798  0.6410  0.2240
 1898SOL    HW1 5890   3.879   2.115   4.110 -0.6980  0.4636 -0.9403
 1898SOL    HW2 5891   3.838   1.969   4.110  2.8642 -0.6987  1.9766
 1899SOL     OW 5892   4.342   2.537   2.120 -0.1169  0.3746  0.5257
 1899SOL    HW1 5893   4.257   2.579   2.129 -0.7839 -1.2041  2.1441
 1899SOL    HW2 5894   4.381   2.542   2.207  1.0311  0.1968  0.0445
 1900SOL     OW 5895   4.640   4.804   1.067 -0.1341 -0.0826 -0.1126
 1900SOL    HW1 5896   4.655   4.859   1.144 -1.4712 -0.3699  0.3762
 1900SOL    HW2 5897   4.703   4.732   1.078  1.8262  1.4113 -0.9015
 1901SOL     OW 5898   4.324   4.113   1.028  0.4600  0.3380 -0.2239
 1901SOL    HW1 5899   4.361   4.026   1.037 -0.6399 -0.1753 -0.4913
 1901SOL    HW2 5900   4.281   4.130   1.112 -0.3655  0.1089 -0.5896
 1902SOL     OW 5901   1.352   2.599   4.861 -0.3264 -0.5113 -0.0632
 1902SOL    HW1 5902   1.285   2.657   4.824  0.8409  1.0957  0.2169
 1902SOL    HW2 5903   1.325   2.511   4.835 -2.6165  0.0578  0.1733
 1903SOL     OW 5904   1.256   4.445   2.830 -0.1613  0.4618 -0.1269
 1903SOL    HW1 5905   1.344   4.407   2.837 -0.4713 -0.3489 -0.4882
 1903SOL    HW2 5906   1.269   4.528   2.785  0.3589  0.0987 -0.6632
 1904SOL     OW 5907   3.097   1.931   2.074  0.0613 -0.0129  0.1304
 1904SOL    HW1 5908   3.154   1.894   2.006 -1.7883 -0.8277 -1.0610
 1904SOL    HW2 5909   3.083   2.022   2.047  0.0570 -0.0814 -0.1069
 1905SOL     OW 5910   2.267   2.752   4.647 -0.0751 -0.1461 -0.2642
 1905SOL    HW1 5911   2.303   2.666   4.667  0.1469  0.4061  1.9150
 1905SOL    HW2 5912   2.172   2.738   4.644 -0.3728  0.0410  3.5864
 1906SOL     OW 5913   1.986   2.939   4.403 -0.0064  0.1745 -0.0222
 1906SOL    HW1 5914   1.960   2.987   4.482 -0.6458 -1.7512  0.9805
 1906SOL    HW2 5915   2.010   2.852   4.433 -0.5345 -0.7204 -1.9917
 1907SOL     OW 5916   3.387   4.050   4.130 -0.5640 -0.3192  0.2396
 1907SOL    HW1 5917   3.296   4.077   4.133 -0.4131  0.1135  1.6505
 1907SOL    HW2 5918   3.404   4.012   4.217  0.3054 -1.3924 -0.3709
 1908SOL     OW 5919   2.330   4.306   0.165 -0.1977 -0.0461  0.2366
 1908SOL    HW1 5920   2.344   4.346   0.251  1.0642 -0.3712  0.1966
 1908SOL    HW2 5921   2.379   4.362   0.104  0.6069 -0.9638  0.0197
 1909SOL     OW 5922   1.315   0.420   3.571  0.3422  0.7391  0.4640
 1909SOL    HW1 5923   1.389   0.439   3.628 -0.6607  0.9735  1.7307
 1909SOL    HW2 5924   1.285   0.506   3.541  1.4385  0.5819 -1.2384
 1910SOL     OW 5925   3.940   1.408   0.583 -0.1492  0.2937 -0.2297
 1910SOL    HW1 5926   3.985   1.337   0.538  1.0653  1.8431 -1.5886
 1910SOL    HW2 5927   3.960   1.394   0.676  2.0054  0.1282 -0.6739
 1911SOL     OW 5928   1.658   4.004   1.846  0.0824 -0.3672  0.5248
 1911SOL    HW1 5929   1.664   3.977   1.938  0.2462 -0.2401  0.5515
 1911SOL    HW2 5930   1.739   3.972   1.807 -0.8372 -2.1508 -0.0304
 1912SOL     OW 5931   0.120   1.979   4.801  0.3936  0.0104  0.0248
 1912SOL    HW1 5932   0.188   1.946   4.743  0.2285  0.2782 -0.3257
 1912SOL    HW2 5933   0.088   2.059   4.758 -1.3109 -1.0069 -0.6977
 1913SOL     OW 5934   1.018   2.346   2.212  0.0805 -0.1863  0.0657
 1913SOL    HW1 5935   1.080   2.273   2.218  0.8479  0.3663 -0.7744
 1913SOL    HW2 5936   1.069   2.417   2.173 -0.8725  0.5456  0.1147
 1914SOL     OW 5937   3.654   1.935   4.372 -0.2026  0.2319  0.0991
 1914SOL    HW1 5938   3.733   1.957   4.323 -0.3861  0.5803 -0.0329
 1914SOL    HW2 5939   3.612   1.866   4.321  0.7118 -0.9264  0.8442
 1915SOL     OW 5940   2.784   0.038   3.378  0.2580  0.3475  1.1312
 1915SOL    HW1 5941   2.774   0.119   3.427  1.9828  1.1233  0.2781
 1915SOL    HW2 5942   2.771   0.063   3.286  0.1824 -0.4698  0.9100
 1916SOL     OW 5943   3.429   2.462   3.744  0.4870  0.0289 -0.7563
 1916SOL    HW1 5944   3.500   2.517   3.778  1.0458 -2.0771  1.7891
 1916SOL    HW2 5945   3.369   2.453   3.818  0.4948 -2.7967 -0.9970
 1917SOL     OW 5946   4.403   1.461   2.409  0.3378  0.0056 -0.2227
 1917SOL    HW1 5947   4.313   1.483   2.433  0.8504  1.3449  0.5295
 1917SOL    HW2 5948   4.413   1.369   2.436 -1.8030 -1.3111 -3.3298
 1918SOL     OW 5949   4.092   0.935   2.044 -0.1740  0.0349  0.3295
 1918SOL    HW1 5950   4.017   0.990   2.066  0.1479  0.5090  0.2661
 1918SOL    HW2 5951   4.163   0.997   2.026  0.7214 -0.4106  2.1003
 1919SOL     OW 5952   1.422   0.193   0.145  0.4126 -0.0887  0.2644
 1919SOL    HW1 5953   1.496   0.253   0.145  0.5845 -0.2471  2.1202
 1919SOL    HW2 5954   1.401   0.180   0.238 -1.7049 -0.3396 -0.1929
 1920SOL     OW 5955   0.869   2.836   0.765 -0.7496  0.2186  0.2008
 1920SOL    HW1 5956   0.932   2.790   0.711 -1.6600 -0.1157 -0.6012
 1920SOL    HW2 5957   0.904   2.829   0.854 -0.7125 -1.8032  0.0703
 1921SOL     OW 5958   1.907   4.746   4.865 -0.2151  0.6235  0.0188
 1921SOL    HW1 5959   1.976   4.789   4.815 -0.3331  2.6612  1.4608
 1921SOL    HW2 5960   1.908   4.655   4.836  1.9632  0.9733 -1.1708
 1922SOL     OW 5961   0.463   3.982   4.458 -0.0302 -0.0161  0.1275
 1922SOL    HW1 5962   0.420   3.897   4.459  1.0859 -0.6159  1.4964
 1922SOL    HW2 5963   0.493   3.993   4.368  0.3380 -1.3747  0.0587
 1923SOL     OW 5964   1.301   0.337   3.059 -0.1828 -0.5786 -0.3846
 1923SOL    HW1 5965   1.290   0.245   3.036 -3.6479 -0.1927 -0.8652
 1923SOL    HW2 5966   1.247   0.348   3.138 -1.0685  1.3040 -1.1916
 1924SOL     OW 5967   2.118   1.201   4.867  0.2913 -0.1114  0.6247
 1924SOL    HW1 5968   2.191   1.240   4.819  0.0913 -0.7177 -0.1878
 1924SOL    HW2 5969   2.159   1.139   4.927  0.4774 -0.1190  0.4906
 1925SOL     OW 5970   3.550   1.059   1.571  0.1129 -0.4382 -0.5312
 1925SOL    HW1 5971   3.592   1.141   1.545  0.5868 -0.0609  1.3182
 1925SOL    HW2 5972   3.456   1.078   1.568  0.2097  0.0584 -0.4567
 1926SOL     OW 5973   0.798   3.378   2.377  0.2891 -0.1635 -0.3150
 1926SOL    HW1 5974   0.796   3.448   2.311  0.7138 -0.7966 -1.0120
 1926SOL    HW2 5975   0.722   3.323   2.355 -0.2784  0.2819  0.4753
 1927SOL     OW 5976   1.562   0.131   0.989  0.4055  0.5723 -0.3764
 1927SOL    HW1 5977   1.553   0.058   0.927 -0.6056  1.7219 -1.6448
 1927SOL    HW2 5978   1.583   0.206   0.934 -0.2012  1.5717  0.7193
 1928SOL     OW 5979   2.472   0.369   0.085 -0.1834 -0.3015  0.1543
 1928SOL    HW1 5980   2.539   0.301   0.085  1.5825  1.3222  0.1105
 1928SOL    HW2 5981   2.402   0.335   0.029  1.0731 -1.6624 -0.6587
 1929SOL     OW 5982   4.895   0.208   4.608 -0.0488  0.1778 -0.1960
 1929SOL    HW1 5983   4.933   0.120   4.609 -0.1088  0.1231 -1.1413
 1929SOL    HW2 5984   4.804   0.195   4.635  0.1517  0.0626  0.4231
 1930SOL     OW 5985   2.118   0.791   2.407 -0.0033  0.2977  0.6460
 1930SOL    HW1 5986   2.040   0.818   2.456 -0.3945  0.8991 -0.2901
 1930SOL    HW2 5987   2.117   0.695   2.411 -1.9380  0.1902 -1.0747
 1931SOL     OW 5988   3.105   3.891   1.776 -0.0209  0.0161 -0.2242
 1931SOL    HW1 5989   3.128   3.886   1.683 -0.9926 -0.5176 -0.4514
 1931SOL    HW2 5990   3.026   3.837   1.784 -0.1728  0.3744  0.8396
 1932SOL     OW 5991   0.479   3.159   4.163 -0.1494 -0.0606  0.3556
 1932SOL    HW1 5992   0.414   3.168   4.094  0.0396 -1.7725 -0.0967
 1932SOL    HW2 5993   0.441   3.096   4.224  0.3176  0.3007  1.0324
 1933SOL     OW 5994   2.687   2.664   4.655 -0.9174  0.2630  0.2479
 1933SOL    HW1 5995   2.687   2.629   4.566 -0.7081 -1.1117  0.7591
 1933SOL    HW2 5996   2.736   2.745   4.649  0.3471 -0.5232 -0.6394
 1934SOL     OW 5997   2.247   3.961   1.763 -0.1527 -0.1486  0.3657
 1934SOL    HW1 5998   2.239   4.054   1.781  0.3174  0.3964 -1.8858
 1934SOL    HW2 5999   2.161   3.935   1.731 -0.4048 -0.6117  1.3788
 1935SOL     OW 6000   1.019   2.687   0.082 -0.4720 -0.8305 -0.4243
 1935SOL    HW1 6001   1.092   2.710   0.140 -1.4105 -0.8762  0.7997
 1935SOL    HW2 6002   1.045   2.723  -0.003  0.9917 -0.8830 -0.0311
 1936SOL     OW 6003   3.565   2.004   3.287  0.4369  0.1813  0.0405
 1936SOL    HW1 6004   3.634   2.030   3.348  1.2741 -0.0856 -0.7731
 1936SOL    HW2 6005   3.484   2.031   3.330  0.9397 -0.7823  1.6868
 1937SOL     OW 6006   2.692   1.343   0.289  0.0366 -1.1733 -0.1510
 1937SOL    HW1 6007   2.604   1.361   0.322  0.4555 -0.3376  0.5631
 1937SOL    HW2 6008   2.739   1.303   0.362  0.5234 -0.7226 -0.2018
 1938SOL     OW 6009   4.752   1.260   1.328 -0.0976  0.2237 -0.0479
 1938SOL    HW1 6010   4.743   1.349   1.363 -0.4016 -0.2852  1.2463
 1938SOL    HW2 6011   4.786   1.209   1.402  0.6970 -0.6150 -0.9587
 1939SOL     OW 6012   0.305   3.439   3.709 -0.0260 -0.0922  0.1429
 1939SOL    HW1 6013   0.264   3.404   3.630  0.0874  0.5047 -0.1885
 1939SOL    HW2 6014   0.236   3.490   3.752  0.1877  0.3845 -0.0799
 1940SOL     OW 6015   3.428   2.425   1.199  0.0456 -0.5369 -0.1353
 1940SOL    HW1 6016   3.440   2.395   1.289  2.2175 -1.6090 -0.7364
 1940SOL    HW2 6017   3.513   2.461   1.174 -1.2087  2.1656 -0.9587
 1941SOL     OW 6018   2.238   4.158   3.919  0.3756 -0.1937  0.0566
 1941SOL    HW1 6019   2.278   4.207   3.991 -0.8148 -0.9924  1.3128
 1941SOL    HW2 6020   2.250   4.066   3.942  0.3694 -0.4837 -1.0151
 1942SOL     OW 6021   1.097   2.072   2.421 -0.4394  0.1088  0.0886
 1942SOL    HW1 6022   1.166   2.058   2.486  3.0511  1.4136 -2.9887
 1942SOL    HW2 6023   1.064   2.160   2.439 -1.1070 -0.3714  1.3328
 1943SOL     OW 6024   4.397   0.571   1.279  0.2334  0.2982 -0.4108
 1943SOL    HW1 6025   4.404   0.658   1.239  1.4002  0.4793  0.1548
 1943SOL    HW2 6026   4.420   0.584   1.371  1.6805 -0.7974 -0.5817
 1944SOL     OW 6027   0.919   0.740   2.059  0.6611 -0.9253 -0.0567
 1944SOL    HW1 6028   0.825   0.748   2.041  0.8550  0.8453 -0.4150
 1944SOL    HW2 6029   0.931   0.783   2.144  1.3556  0.2665 -0.7306
 1945SOL     OW 6030   1.405   3.795   1.178 -0.5345  0.2550  0.3369
 1945SOL    HW1 6031   1.444   3.815   1.264 -0.4379  0.3947  0.2595
 1945SOL    HW2 6032   1.471   3.824   1.115 -1.4451  2.0474  0.1468
 1946SOL     OW 6033   2.029   3.619   2.051  0.0389 -0.4332 -0.1957
 1946SOL    HW1 6034   1.976   3.694   2.080 -1.3376 -0.9078 -1.3672
 1946SOL    HW2 6035   1.972   3.543   2.063  0.7523 -1.0702 -0.7643
 1947SOL     OW 6036   0.658   0.484   0.253  0.8451  0.0571  0.3898
 1947SOL    HW1 6037   0.644   0.401   0.206 -0.3796  0.1988  0.4914
 1947SOL    HW2 6038   0.746   0.475   0.290  0.4339 -1.5218  1.0499
 1948SOL     OW 6039   2.732   4.345   3.830  0.3550 -0.0849 -0.1086
 1948SOL    HW1 6040   2.761   4.388   3.749  0.0472 -0.0742 -0.2120
 1948SOL    HW2 6041   2.686   4.413   3.879  2.3469  0.5199  1.0541
 1949SOL     OW 6042   1.083   1.254   2.331  0.5473 -0.0922 -0.2096
 1949SOL    HW1 6043   0.993   1.260   2.300  0.2800  2.0175  0.8494
 1949SOL    HW2 6044   1.118   1.177   2.285 -0.5978  1.2519 -3.6785
 1950SOL     OW 6045   4.891   0.691   0.106  0.0935 -0.4185  0.2953
 1950SOL    HW1 6046   4.827   0.628   0.073 -0.6297 -0.3044  1.4367
 1950SOL    HW2 6047   4.862   0.775   0.070 -0.3500 -0.3823  0.7266
 1951SOL     OW 6048   0.095   4.096   3.537  0.7974 -0.1123  0.7366
 1951SOL    HW1 6049   0.014   4.136   3.503  1.2841 -0.4814 -0.9624
 1951SOL    HW2 6050   0.065   4.024   3.592 -0.0466  0.6700  1.3223
 1952SOL     OW 6051   1.931   1.184   3.628  0.0297  0.1668  0.1951
 1952SOL    HW1 6052   1.915   1.231   3.710 -0.9543  0.7142 -0.2857
 1952SOL    HW2 6053   1.978   1.105   3.653  1.0313  1.0186  1.1226
 1953SOL     OW 6054   2.070   4.411   0.563 -0.6333 -0.1195  0.3244
 1953SOL    HW1 6055   2.083   4.373   0.476  2.4714 -0.4601  0.8506
 1953SOL    HW2 6056   1.994   4.364   0.598 -1.0539 -0.9866 -1.6447
 1954SOL     OW 6057   3.074   4.355   0.594 -0.1729  0.1153 -0.7488
 1954SOL    HW1 6058   3.118   4.363   0.679  0.1700 -2.2441 -0.6256
 1954SOL    HW2 6059   3.094   4.436   0.548  0.0734  1.2207  1.2172
 1955SOL     OW 6060   0.828   3.714   3.990  0.4563 -0.4009  0.2628
 1955SOL    HW1 6061   0.892   3.688   3.924 -0.6598 -2.4154 -0.0987
 1955SOL    HW2 6062   0.744   3.684   3.955 -0.0394 -2.7916  3.1555
 1956SOL     OW 6063   1.113   4.309   1.186 -0.4875  0.0557  0.0725
 1956SOL    HW1 6064   1.132   4.282   1.096 -1.6692  0.2058 -0.2436
 1956SOL    HW2 6065   1.072   4.395   1.177  1.1602  0.9966  0.9109
 1957SOL     OW 6066   0.409   2.770   1.615  0.2213 -0.3723 -0.7718
 1957SOL    HW1 6067   0.316   2.757   1.596 -0.5428 -1.1631  2.8469
 1957SOL    HW2 6068   0.450   2.687   1.590 -0.8577 -1.6934  1.5711
 1958SOL     OW 6069   4.203   4.712   2.009 -0.1424  0.1137  0.6011
 1958SOL    HW1 6070   4.260   4.785   2.032  1.3608 -1.2761  1.5240
 1958SOL    HW2 6071   4.196   4.715   1.914  0.6983  0.8809  0.5560
 1959SOL     OW 6072   0.298   0.556   2.270  0.3054 -0.1313 -0.2044
 1959SOL    HW1 6073   0.355   0.632   2.258 -1.8010  1.7115  0.7569
 1959SOL    HW2 6074   0.339   0.506   2.340  1.9840 -0.1949 -1.1819
 1960SOL     OW 6075   2.120   2.523   1.018 -0.1553 -0.2039 -0.8123
 1960SOL    HW1 6076   2.149   2.446   0.969 -0.6611 -1.2377  0.4527
 1960SOL    HW2 6077   2.189   2.538   1.083 -0.6863 -0.4232 -0.1864
 1961SOL     OW 6078   2.070   3.819   1.144  0.2002  0.0546 -0.2190
 1961SOL    HW1 6079   2.014   3.834   1.220 -0.3700 -0.5606 -0.5142
 1961SOL    HW2 6080   2.132   3.752   1.173  0.1337 -0.0083 -0.2226
 1962SOL     OW 6081   3.562   2.185   2.203  0.4220  0.1148 -0.2818
 1962SOL    HW1 6082   3.477   2.152   2.230  0.2715  1.0079  0.3724
 1962SOL    HW2 6083   3.559   2.185   2.107 -0.4984  0.6055 -0.2569
 1963SOL     OW 6084   4.791   2.896   2.933  0.4245 -0.2899  0.1502
 1963SOL    HW1 6085   4.711   2.912   2.884  0.5048 -0.1743  0.0559
 1963SOL    HW2 6086   4.761   2.872   3.021  0.3087  0.9506  0.4647
 1964SOL     OW 6087   0.258   3.500   0.402 -0.1813  0.1903 -0.5751
 1964SOL    HW1 6088   0.335   3.444   0.404  1.3527  2.1604 -1.6322
 1964SOL    HW2 6089   0.235   3.513   0.494  0.6674 -0.5068 -0.2487
 1965SOL     OW 6090   4.524   1.710   0.750  0.3775  0.3325  0.1171
 1965SOL    HW1 6091   4.568   1.662   0.820 -0.0726 -0.5533 -0.1830
 1965SOL    HW2 6092   4.551   1.801   0.762  2.9380 -0.2633 -0.5367
 1966SOL     OW 6093   4.424   4.574   4.292 -0.2560 -0.4133  0.8264
 1966SOL    HW1 6094   4.509   4.616   4.277 -0.0869 -0.4843  1.5542
 1966SOL    HW2 6095   4.404   4.531   4.209 -0.2638  0.7953  0.1913
 1967SOL     OW 6096   3.372   2.960   4.853  0.2075  0.1786 -0.3291
 1967SOL    HW1 6097   3.391   2.905   4.777  1.8927  0.8102 -0.4086
 1967SOL    HW2 6098   3.377   3.050   4.820 -0.0163  0.4368  0.3237
 1968SOL     OW 6099   1.342   1.090   1.282 -0.3269  0.0321 -0.4998
 1968SOL    HW1 6100   1.335   1.086   1.186 -2.2931  1.0186 -0.4334
 1968SOL    HW2 6101   1.400   1.164   1.299  1.6165 -1.3146 -0.9095
 1969SOL     OW 6102   2.359   2.109   0.781  0.3102  0.1269  0.4743
 1969SOL    HW1 6103   2.276   2.147   0.751  0.3803 -0.3950 -0.4435
 1969SOL    HW2 6104   2.376   2.150   0.865 -1.0299  0.0468  0.8105
 1970SOL     OW 6105   0.121   2.654   3.486  0.0271  0.1731  0.0933
 1970SOL    HW1 6106   0.054   2.721   3.471  1.2465  1.4668  0.1708
 1970SOL    HW2 6107   0.126   2.606   3.403 -0.5323  0.5126 -0.1419
 1971SOL     OW 6108   0.844   3.356   0.041 -0.7616  0.1179 -0.0221
 1971SOL    HW1 6109   0.754   3.344   0.009 -2.4294  0.1250  4.0281
 1971SOL    HW2 6110   0.887   3.273   0.025 -1.6186 -0.0623 -1.5786
 1972SOL     OW 6111   2.815   3.723   1.304 -0.0166  0.0355 -0.5516
 1972SOL    HW1 6112   2.876   3.654   1.278  0.5691  0.4749 -0.3694
 1972SOL    HW2 6113   2.847   3.752   1.390 -0.5362  0.2140 -0.4097
 1973SOL     OW 6114   2.695   1.084   1.451  0.0130  0.0765 -0.2701
 1973SOL    HW1 6115   2.674   1.094   1.358  0.6515 -0.2284 -0.4515
 1973SOL    HW2 6116   2.789   1.064   1.452  0.5888  2.5113  0.5842
 1974SOL     OW 6117   2.365   3.166   3.202 -0.0715  0.0095  0.0145
 1974SOL    HW1 6118   2.341   3.124   3.285  0.3658 -0.8325 -0.2656
 1974SOL    HW2 6119   2.316   3.248   3.201  0.2845  0.2707  1.3302
 1975SOL     OW 6120   4.439   2.544   2.723 -0.1929  0.4028 -0.4571
 1975SOL    HW1 6121   4.404   2.577   2.640 -0.8330  2.1720  0.4620
 1975SOL    HW2 6122   4.528   2.579   2.726 -0.6836  1.6872  0.2577
 1976SOL     OW 6123   0.985   4.105   4.196  0.2339  0.2343  0.1984
 1976SOL    HW1 6124   0.995   4.178   4.135  0.7771 -0.8534 -1.0435
 1976SOL    HW2 6125   0.904   4.062   4.168  1.3517 -1.2555 -0.8600
 1977SOL     OW 6126   0.573   4.595   2.806  0.4967  0.5071  0.3297
 1977SOL    HW1 6127   0.505   4.547   2.853  0.7680  0.3490  0.5582
 1977SOL    HW2 6128   0.653   4.578   2.855  0.3491  2.4499  1.3458
 1978SOL     OW 6129   4.697   1.276   3.036  0.4517  0.4192 -0.0026
 1978SOL    HW1 6130   4.645   1.351   3.006  0.4826  1.0578  1.4338
 1978SOL    HW2 6131   4.777   1.279   2.984 -0.9995 -0.7926 -2.5327
 1979SOL     OW 6132   2.347   2.697   3.103 -0.4304 -0.0073  0.1275
 1979SOL    HW1 6133   2.352   2.617   3.051 -0.3765 -1.0793  1.7329
 1979SOL    HW2 6134   2.402   2.759   3.055  0.6391 -1.3288 -0.4392
 1980SOL     OW 6135   1.542   3.907   0.970  0.5133 -0.1621 -0.5793
 1980SOL    HW1 6136   1.598   3.853   0.914 -1.5448 -0.6162 -2.3160
 1980SOL    HW2 6137   1.522   3.984   0.917 -1.3601 -0.5144 -0.4375
 1981SOL     OW 6138   2.849   1.877   4.676 -0.2437  0.0012 -0.4492
 1981SOL    HW1 6139   2.909   1.869   4.750  0.1888 -0.4852 -0.8434
 1981SOL    HW2 6140   2.849   1.970   4.655  0.3349  0.0141 -0.4056
 1982SOL     OW 6141   1.845   3.984   0.790 -0.1734 -0.1204  0.2096
 1982SOL    HW1 6142   1.857   3.895   0.823 -2.0523 -0.3962  0.2760
 1982SOL    HW2 6143   1.812   3.973   0.701  0.2488  0.5379 -0.0426
 1983SOL     OW 6144   1.591   4.052   2.834 -0.6192  0.7621  0.1523
 1983SOL    HW1 6145   1.535   3.978   2.809 -0.2735 -0.3913  2.5261
 1983SOL    HW2 6146   1.670   4.011   2.869  0.9688  2.3402 -1.3866
 1984SOL     OW 6147   2.334   1.123   0.457  0.7029 -0.3083  0.3214
 1984SOL    HW1 6148   2.251   1.094   0.420  0.9911 -0.5982 -0.1078
 1984SOL    HW2 6149   2.354   1.204   0.409  0.8531 -0.4387  0.1657
 1985SOL     OW 6150   2.167   4.656   3.326 -0.1668 -0.3941 -0.2721
 1985SOL    HW1 6151   2.177   4.690   3.237  0.3014 -0.8015 -0.3766
 1985SOL    HW2 6152   2.216   4.717   3.381 -1.0831  0.2844 -0.1952
 1986SOL     OW 6153   4.429   2.969   1.172  0.0622 -0.3252  0.0814
 1986SOL    HW1 6154   4.452   3.061   1.160 -1.5052  0.3072  1.5027
 1986SOL    HW2 6155   4.497   2.934   1.229  0.0351  0.2671  0.4804
 1987SOL     OW 6156   1.167   4.786   1.909 -0.4326  0.2787 -0.7581
 1987SOL    HW1 6157   1.078   4.755   1.926  0.2765 -1.9008 -0.7132
 1987SOL    HW2 6158   1.165   4.819   1.819 -1.3076  0.3845 -0.7046
 1988SOL     OW 6159   4.353   3.464   3.551  0.2886 -0.1780 -0.4780
 1988SOL    HW1 6160   4.332   3.539   3.495  2.6033  0.6174 -0.4053
 1988SOL    HW2 6161   4.438   3.433   3.519  0.6680 -1.0366  1.2437
 1989SOL     OW 6162   3.623   3.307   3.856 -0.2070 -0.1926  0.1431
 1989SOL    HW1 6163   3.633   3.248   3.781  2.1438 -0.6020  0.6772
 1989SOL    HW2 6164   3.590   3.389   3.818 -1.0131 -1.0193 -1.0067
 1990SOL     OW 6165   2.926   0.202   0.831 -0.3128  0.5405 -0.0074
 1990SOL    HW1 6166   2.856   0.176   0.891 -1.1489 -0.3120 -1.3049
 1990SOL    HW2 6167   2.899   0.287   0.797 -1.1140 -0.0893 -1.0250
 1991SOL     OW 6168   0.708   0.249   0.144 -0.4137  0.5412 -0.8398
 1991SOL    HW1 6169   0.705   0.229   0.050 -0.3528  1.3290 -1.0220
 1991SOL    HW2 6170   0.785   0.203   0.176 -0.6161  0.0047 -1.1106
 1992SOL     OW 6171   0.830   2.180   3.416  0.5130 -0.3352  0.1142
 1992SOL    HW1 6172   0.924   2.196   3.420  1.1016 -3.1239 -0.1646
 1992SOL    HW2 6173   0.815   2.145   3.327 -0.6705 -0.4674  0.3423
 1993SOL     OW 6174   2.155   4.866   0.914  0.2911 -0.3946 -0.4338
 1993SOL    HW1 6175   2.072   4.883   0.958  0.0954  0.9273 -1.2655
 1993SOL    HW2 6176   2.135   4.794   0.853  0.0041 -0.7206  0.0415
 1994SOL     OW 6177   2.991   3.053   4.385  0.1429  0.0471  0.0305
 1994SOL    HW1 6178   2.929   3.080   4.317  0.4731 -0.5157 -0.5082
 1994SOL    HW2 6179   3.002   2.959   4.370  1.6592  0.2565 -0.3311
 1995SOL     OW 6180   3.654   2.515   1.120  0.4572  0.0879 -0.2379
 1995SOL    HW1 6181   3.748   2.530   1.133  0.3887  0.5991 -0.3069
 1995SOL    HW2 6182   3.647   2.487   1.028  0.7745 -2.0766  0.3411
 1996SOL     OW 6183   4.753   4.659   0.420 -0.7684 -0.4385  0.2489
 1996SOL    HW1 6184   4.766   4.735   0.476 -0.7895 -0.3143  0.0863
 1996SOL    HW2 6185   4.661   4.636   0.431 -0.1936 -2.1132  2.4116
 1997SOL     OW 6186   0.671   1.545   2.281  0.1790  0.8437 -0.2890
 1997SOL    HW1 6187   0.630   1.477   2.334  1.0557 -0.4967 -1.2659
 1997SOL    HW2 6188   0.695   1.614   2.344 -1.7343  0.7908  0.5565
 1998SOL     OW 6189   0.278   4.763   2.818  0.4862  0.2671  0.1874
 1998SOL    HW1 6190   0.295   4.857   2.824 -0.1639  0.7455 -3.3045
 1998SOL    HW2 6191   0.356   4.727   2.776 -0.0589 -0.3825 -0.3012
 1999SOL     OW 6192   2.163   3.318   3.136  0.0620 -0.7238  0.4203
 1999SOL    HW1 6193   2.114   3.383   3.185  1.5857  0.1793  0.8112
 1999SOL    HW2 6194   2.181   3.359   3.052  0.7220 -0.7711  0.5319
 2000SOL     OW 6195   0.591   3.230   2.251 -0.3373  0.4118  0.2219
 2000SOL    HW1 6196   0.620   3.149   2.209 -0.9135  0.8327 -1.0376
 2000SOL    HW2 6197   0.501   3.243   2.220 -0.2285  1.5723  0.3214
 2001SOL     OW 6198   1.444   4.685   3.165  0.2180  0.0987  0.3292
 2001SOL    HW1 6199   1.477   4.682   3.075 -0.6689 -0.5085  0.0008
 2001SOL    HW2 6200   1.353   4.655   3.157 -0.0511  0.6092  1.3493
 2002SOL     OW 6201   2.359   4.732   0.687  0.0553  0.2100 -1.1375
 2002SOL    HW1 6202   2.396   4.820   0.681 -0.7711  0.7648  0.9508
 2002SOL    HW2 6203   2.413   4.679   0.629  1.4954  1.7992 -1.3243
 2003SOL     OW 6204   0.910   4.444   4.103 -0.2410  0.3592 -0.0589
 2003SOL    HW1 6205   0.991   4.411   4.142  0.7190  2.2170 -0.3625
 2003SOL    HW2 6206   0.938   4.494   4.026 -2.0292 -3.0010 -3.2241
 2004SOL     OW 6207   4.208   4.829   1.605 -0.3058  0.6389 -0.2021
 2004SOL    HW1 6208   4.188   4.887   1.532 -1.3282  2.0372  1.1092
 2004SOL    HW2 6209   4.204   4.886   1.682  1.0966 -0.6911  0.9330
 2005SOL     OW 6210   3.661   0.045   4.560  0.1047  0.1151  0.0346
 2005SOL    HW1 6211   3.743   0.002   4.583  0.3986 -0.0215 -1.2189
 2005SOL    HW2 6212   3.625  -0.007   4.488  0.2915  1.7083 -1.2759
 2006SOL     OW 6213   2.929   1.559   3.044  0.0635  0.3673  0.4137
 2006SOL    HW1 6214   2.948   1.551   2.951 -0.1349  2.3401  0.1461
 2006SOL    HW2 6215   2.913   1.470   3.074  2.5393 -0.5940 -0.8834
 2007SOL     OW 6216   1.348   2.924   4.792  0.0474 -0.0410 -0.1463
 2007SOL    HW1 6217   1.400   2.849   4.820 -1.4639 -0.3793  2.0858
 2007SOL    HW2 6218   1.268   2.885   4.755  0.0303  0.4719 -0.6606
 2008SOL     OW 6219   4.148   3.531   1.745 -0.8027  0.2509  0.8549
 2008SOL    HW1 6220   4.072   3.523   1.802 -1.0685 -0.8355  0.3811
 2008SOL    HW2 6221   4.157   3.625   1.730 -0.3176  0.6346  3.1833
 2009SOL     OW 6222   0.340   4.633   0.007  0.7383 -0.3078 -0.2115
 2009SOL    HW1 6223   0.339   4.635  -0.089 -1.3596  0.1135 -0.2339
 2009SOL    HW2 6224   0.283   4.706   0.033 -1.0046 -2.0798  1.2489
 2010SOL     OW 6225   3.706   1.707   2.242 -0.5601 -0.3293  0.4262
 2010SOL    HW1 6226   3.636   1.745   2.189 -0.4023  1.7373  1.5926
 2010SOL    HW2 6227   3.783   1.761   2.223  0.4730 -1.9056 -0.0421
 2011SOL     OW 6228   1.685   1.249   4.580  0.1945 -0.4751  0.0337
 2011SOL    HW1 6229   1.611   1.283   4.529  1.0983  2.0101  0.2230
 2011SOL    HW2 6230   1.644   1.215   4.660 -0.7574  1.5383  0.4741
 2012SOL     OW 6231   2.862   0.109   3.816  0.4319 -0.7049 -0.3984
 2012SOL    HW1 6232   2.919   0.066   3.752 -1.5988 -0.1863 -2.6851
 2012SOL    HW2 6233   2.810   0.171   3.765 -0.5037  0.6061  1.9659
 2013SOL     OW 6234   1.260   0.564   0.525 -0.3866 -0.0152 -0.7085
 2013SOL    HW1 6235   1.312   0.628   0.476 -0.2185  2.1374  2.0263
 2013SOL    HW2 6236   1.176   0.561   0.479  0.0873  1.0776 -1.7150
 2014SOL     OW 6237   4.673   1.705   0.486  0.2453 -0.2464 -0.2914
 2014SOL    HW1 6238   4.674   1.622   0.437 -1.0130  0.4225 -1.5352
 2014SOL    HW2 6239   4.644   1.681   0.574  0.5577 -1.2167 -0.4436
 2015SOL     OW 6240   1.106   4.459   0.337 -0.3473 -0.2105  0.4230
 2015SOL    HW1 6241   1.124   4.395   0.269  2.0960 -0.0489  0.8297
 2015SOL    HW2 6242   1.064   4.409   0.407 -1.3694 -0.6839 -0.4921
 2016SOL     OW 6243   1.719   1.647   0.926 -0.3184  0.5351 -0.2861
 2016SOL    HW1 6244   1.693   1.581   0.861  0.1072  0.8085 -0.7408
 2016SOL    HW2 6245   1.704   1.730   0.882 -0.1233  0.7266  0.0071
 2017SOL     OW 6246   2.668   0.017   1.597  0.2016  0.0314 -0.2224
 2017SOL    HW1 6247   2.603  -0.032   1.647  0.1453  0.6171  0.3012
 2017SOL    HW2 6248   2.628   0.031   1.511  0.0352 -0.4396 -0.2205
 2018SOL     OW 6249   3.213   1.251   2.641  0.2934  0.0536  0.6205
 2018SOL    HW1 6250   3.153   1.299   2.583  0.2490 -0.5478  0.1546
 2018SOL    HW2 6251   3.300   1.269   2.604  0.1931 -1.1080 -0.2390
 2019SOL     OW 6252   4.902   2.437   4.556  0.6653  0.2165  0.1594
 2019SOL    HW1 6253   4.877   2.509   4.499 -0.6140  0.8898  1.5033
 2019SOL    HW2 6254   4.820   2.405   4.592  1.1625 -2.1337 -0.6036
 2020SOL     OW 6255   3.536   3.817   0.040 -0.2061 -0.1408 -0.0892
 2020SOL    HW1 6256   3.524   3.820   0.135  0.3934  1.8340 -0.0305
 2020SOL    HW2 6257   3.631   3.814   0.028 -0.0402  3.2382 -0.5709
 2021SOL     OW 6258   3.921   1.243   1.710 -0.2059  0.1084 -0.0249
 2021SOL    HW1 6259   3.851   1.288   1.662 -0.1607 -1.5345 -1.7644
 2021SOL    HW2 6260   3.892   1.152   1.715  1.2230 -0.3552  0.3672
 2022SOL     OW 6261   3.433   0.527   3.233 -0.2131  0.5051  0.5189
 2022SOL    HW1 6262   3.477   0.496   3.154  0.3378  1.2866  0.5023
 2022SOL    HW2 6263   3.351   0.479   3.236  0.5994 -0.9195  0.4935
 2023SOL     OW 6264   3.835   2.660   4.497  0.7414  0.6511 -0.0791
 2023SOL    HW1 6265   3.890   2.657   4.419 -0.2037  0.6728 -0.7729
 2023SOL    HW2 6266   3.833   2.753   4.522  0.0163  0.8459 -0.8121
 2024SOL     OW 6267   4.555   3.694   0.690 -0.5160 -0.0986 -0.2394
 2024SOL    HW1 6268   4.585   3.608   0.720  0.8533 -1.1276 -4.0687
 2024SOL    HW2 6269   4.625   3.754   0.716  1.7160 -1.3261 -2.9263
 2025SOL     OW 6270   4.305   4.306   2.435  0.0100 -0.5878  0.5826
 2025SOL    HW1 6271   4.219   4.270   2.457  0.5872 -1.2291  1.8843
 2025SOL    HW2 6272   4.340   4.337   2.518  1.2933 -0.9038  0.1810
 2026SOL     OW 6273   0.152   3.357   1.113  0.2271  0.2092 -0.0257
 2026SOL    HW1 6274   0.152   3.302   1.034  2.1234  0.2032 -0.0729
 2026SOL    HW2 6275   0.196   3.438   1.087 -1.1639  1.1465  0.4535
 2027SOL     OW 6276   0.212   1.793   2.922 -0.1922  0.2886  0.1457
 2027SOL    HW1 6277   0.165   1.873   2.900 -3.3159 -1.0811  1.1934
 2027SOL    HW2 6278   0.205   1.787   3.018 -1.7708 -2.0754 -0.0228
 2028SOL     OW 6279   2.358   3.876   2.709 -0.1608  0.5008  0.2296
 2028SOL    HW1 6280   2.403   3.934   2.648 -0.5216  0.2895 -0.2446
 2028SOL    HW2 6281   2.281   3.846   2.661  0.0855 -0.4721  0.4250
 2029SOL     OW 6282   3.037   4.307   1.913  0.2463  0.3332 -0.0769
 2029SOL    HW1 6283   3.124   4.298   1.952 -0.6544  0.1590  2.0323
 2029SOL    HW2 6284   3.014   4.399   1.927 -0.1350  0.2387 -0.0648
 2030SOL     OW 6285   1.518   2.425   0.709  0.4014  0.3279 -0.2860
 2030SOL    HW1 6286   1.603   2.457   0.738 -0.2322  1.2384  0.6309
 2030SOL    HW2 6287   1.454   2.479   0.756 -0.6921 -1.0803 -0.0745
 2031SOL     OW 6288   2.045   2.670   4.182  0.4768  0.4349  0.2346
 2031SOL    HW1 6289   2.041   2.577   4.204  2.1042 -0.6358 -3.3808
 2031SOL    HW2 6290   2.138   2.692   4.186  0.3902  1.2182 -1.3922
 2032SOL     OW 6291   3.333   2.853   2.604 -0.1009 -0.3153 -0.0340
 2032SOL    HW1 6292   3.311   2.782   2.543  0.9210  1.6017 -2.8191
 2032SOL    HW2 6293   3.428   2.844   2.616  0.4032  1.6364 -2.0037
 2033SOL     OW 6294   1.002   3.653   4.341 -0.2887  0.5413 -0.2168
 2033SOL    HW1 6295   0.996   3.595   4.417  2.0819  1.1800  0.5535
 2033SOL    HW2 6296   0.969   3.737   4.373 -1.0056  0.3652 -0.4707
 2034SOL     OW 6297   1.502   3.670   4.183  0.0703  0.5285  0.1297
 2034SOL    HW1 6298   1.451   3.737   4.136 -1.3238 -0.6894 -0.1787
 2034SOL    HW2 6299   1.518   3.708   4.269 -1.3138  1.0126  0.2012
 2035SOL     OW 6300   2.940   2.844   4.177  0.6471 -0.2212  0.0381
 2035SOL    HW1 6301   2.860   2.889   4.152  0.6457  0.4265  1.1434
 2035SOL    HW2 6302   2.930   2.755   4.142  1.0991  0.8240 -3.0709
 2036SOL     OW 6303   1.904   0.772   0.542  0.3064  0.3295 -0.0887
 2036SOL    HW1 6304   1.854   0.742   0.617  1.1132 -1.0203 -0.0523
 2036SOL    HW2 6305   1.994   0.747   0.562  0.4638 -0.5549 -1.7333
 2037SOL     OW 6306   0.695   3.398   1.663  0.2321 -0.4296 -0.3437
 2037SOL    HW1 6307   0.698   3.490   1.635  1.4165 -0.1977  0.4649
 2037SOL    HW2 6308   0.676   3.350   1.582  0.2175  0.4834 -0.9044
 2038SOL     OW 6309   2.556   0.100   1.358 -0.4685  0.3580 -0.0544
 2038SOL    HW1 6310   2.610   0.177   1.339 -0.3359 -0.0562 -1.4680
 2038SOL    HW2 6311   2.557   0.049   1.277  0.2750 -1.6525  1.1472
 2039SOL     OW 6312   3.654   3.525   0.268  0.3160  0.1247 -0.1378
 2039SOL    HW1 6313   3.580   3.587   0.268  0.4425  0.2785 -0.5170
 2039SOL    HW2 6314   3.631   3.460   0.201  0.3921  0.0164 -0.0583
 2040SOL     OW 6315   0.351   2.556   1.820 -0.0918  0.4389 -0.1726
 2040SOL    HW1 6316   0.414   2.504   1.770 -1.4466 -0.8769 -0.6262
 2040SOL    HW2 6317   0.349   2.641   1.776 -0.0621 -0.1590 -1.3799
 2041SOL     OW 6318   2.719   1.580   0.932 -0.0071 -0.4170  0.0480
 2041SOL    HW1 6319   2.760   1.660   0.898  0.2522 -0.7528 -0.4427
 2041SOL    HW2 6320   2.721   1.519   0.858 -0.5738 -0.7427  0.2973
 2042SOL     OW 6321   3.582   2.894   3.537 -0.5044 -0.1382  0.6905
 2042SOL    HW1 6322   3.543   2.810   3.562 -1.4871 -0.9738 -3.0275
 2042SOL    HW2 6323   3.668   2.870   3.502 -1.2900  0.1390 -1.5752
 2043SOL     OW 6324   3.953   4.844   0.644  0.2085  1.0386 -1.0168
 2043SOL    HW1 6325   3.894   4.797   0.585  0.7779  0.9257 -1.5124
 2043SOL    HW2 6326   3.957   4.932   0.607  1.4073  0.6821 -1.8042
 2044SOL     OW 6327   0.438   3.567   2.832  0.5031 -0.5079 -0.5070
 2044SOL    HW1 6328   0.506   3.523   2.781  0.5317  0.1639 -1.0529
 2044SOL    HW2 6329   0.422   3.649   2.785 -0.0496 -0.2568  0.1141
 2045SOL     OW 6330   2.925   0.857   2.653  0.0194 -0.5432  0.4635
 2045SOL    HW1 6331   2.882   0.932   2.694 -0.0842 -0.7632  0.7612
 2045SOL    HW2 6332   2.973   0.895   2.579  3.0618  0.4527  2.7138
 2046SOL     OW 6333   2.414   4.740   2.177 -0.3017 -0.7371  0.0413
 2046SOL    HW1 6334   2.326   4.736   2.215 -0.3278  1.5242  0.3414
 2046SOL    HW2 6335   2.430   4.651   2.145 -2.1768 -1.5213  1.1008
 2047SOL     OW 6336   2.489   0.350   2.855 -0.0136  0.5263  0.1940
 2047SOL    HW1 6337   2.524   0.261   2.845 -1.0433  0.1376 -0.0936
 2047SOL    HW2 6338   2.394   0.338   2.858 -0.1443  1.5665  0.7673
 2048SOL     OW 6339   0.986   1.561   2.736  0.1133  0.1544 -0.6553
 2048SOL    HW1 6340   0.946   1.497   2.795  0.6942  0.0280 -0.3926
 2048SOL    HW2 6341   1.028   1.624   2.795 -0.8879  1.0835 -0.8878
 2049SOL     OW 6342   4.748   3.154   4.799  0.5675 -0.0258  0.5817
 2049SOL    HW1 6343   4.662   3.162   4.758  0.4254  0.1901  0.9198
 2049SOL    HW2 6344   4.754   3.231   4.856  1.0450  0.0434  0.4437
 2050SOL     OW 6345   1.043   0.951   4.327  0.4848 -0.0354 -0.1778
 2050SOL    HW1 6346   0.972   0.942   4.391 -0.2830  2.3733 -0.5975
 2050SOL    HW2 6347   1.039   0.871   4.275 -1.4143 -0.3042  0.3091
 2051SOL     OW 6348   4.653   1.743   2.024  0.3553 -0.2070 -0.2884
 2051SOL    HW1 6349   4.603   1.781   1.951  0.3360  0.2091 -0.0607
 2051SOL    HW2 6350   4.726   1.803   2.036 -0.4710  0.5905  1.0339
 2052SOL     OW 6351   1.435   3.433   0.634  0.0525 -0.1288 -0.6226
 2052SOL    HW1 6352   1.405   3.390   0.713  0.5178  0.1114 -0.3122
 2052SOL    HW2 6353   1.406   3.376   0.563 -1.9451  0.5454 -0.4095
 2053SOL     OW 6354   4.886   0.514   2.557  0.1985 -0.2578 -0.4068
 2053SOL    HW1 6355   4.824   0.519   2.630  0.7887 -0.9238  0.1606
 2053SOL    HW2 6356   4.930   0.599   2.558 -0.2176 -0.0402 -0.3695
 2054SOL     OW 6357   3.287   0.904   3.545  0.5563 -0.6169  0.4917
 2054SOL    HW1 6358   3.342   0.921   3.468  1.3952 -0.0291  1.2018
 2054SOL    HW2 6359   3.197   0.920   3.514  0.9426  0.3714 -0.1636
 2055SOL     OW 6360   2.455   0.996   1.118 -0.1740 -0.2410 -0.1023
 2055SOL    HW1 6361   2.394   1.006   1.045 -0.1731 -1.3466 -0.2757
 2055SOL    HW2 6362   2.402   0.954   1.186 -0.0158  0.2434  0.3262
 2056SOL     OW 6363   4.189   4.682   0.537  0.5390 -0.3170  0.3758
 2056SOL    HW1 6364   4.109   4.717   0.575  0.5465 -0.1870  0.2700
 2056SOL    HW2 6365   4.243   4.657   0.613  0.2509 -0.7443  0.4461
 2057SOL     OW 6366   0.747   1.455   0.134  0.5404  0.2699 -0.0356
 2057SOL    HW1 6367   0.740   1.523   0.201  2.3030  1.4063 -0.8964
 2057SOL    HW2 6368   0.684   1.481   0.066 -0.0477  0.0550  0.4270
 2058SOL     OW 6369   4.776   0.710   1.549  0.0996 -0.0015 -0.0790
 2058SOL    HW1 6370   4.832   0.718   1.471 -0.5822  1.3799 -0.4648
 2058SOL    HW2 6371   4.723   0.790   1.548  0.1426  0.0775  1.8731
 2059SOL     OW 6372   0.129   1.233   3.331 -0.2330  0.1248  0.3700
 2059SOL    HW1 6373   0.160   1.261   3.245 -0.2565 -0.0738  0.2976
 2059SOL    HW2 6374   0.098   1.144   3.318 -0.8162  0.3154  0.4517
 2060SOL     OW 6375   2.702   0.345   2.344  0.0329  0.1337  0.4581
 2060SOL    HW1 6376   2.757   0.348   2.267  0.3299 -0.9629  0.6118
 2060SOL    HW2 6377   2.696   0.436   2.374  0.1468  0.5204 -0.6791
 2061SOL     OW 6378   0.275   3.714   1.436 -0.1691 -0.4447  0.3669
 2061SOL    HW1 6379   0.234   3.628   1.424 -0.3567 -0.0385 -2.4405
 2061SOL    HW2 6380   0.364   3.703   1.401  0.2478  0.1842  1.1905
 2062SOL     OW 6381   2.208   0.541   2.903  0.5654 -0.5717  0.3657
 2062SOL    HW1 6382   2.143   0.534   2.973  0.0494 -2.1583 -0.2161
 2062SOL    HW2 6383   2.164   0.592   2.835  0.6988  0.1116  0.7854
 2063SOL     OW 6384   2.364   0.943   2.460 -0.6263  0.2214 -0.2079
 2063SOL    HW1 6385   2.290   0.885   2.476  0.3484 -1.1226 -0.3496
 2063SOL    HW2 6386   2.327   1.031   2.460 -2.0885 -0.3691  0.4266
 2064SOL     OW 6387   3.410   1.004   0.053 -0.1538  0.2908 -0.1877
 2064SOL    HW1 6388   3.352   1.052  -0.007 -0.2406 -0.4892 -0.7457
 2064SOL    HW2 6389   3.496   1.007   0.011 -0.3105 -0.6566 -0.6014
 2065SOL     OW 6390   0.173   0.210   1.081  0.8739  0.6381  0.4760
 2065SOL    HW1 6391   0.218   0.291   1.054  0.5268  0.3788 -1.0058
 2065SOL    HW2 6392   0.164   0.218   1.176 -1.1122  3.3967  0.1946
 2066SOL     OW 6393   1.989   1.192   4.593 -0.0356  0.3367  0.0975
 2066SOL    HW1 6394   1.927   1.264   4.604  0.4061  0.6526  0.5708
 2066SOL    HW2 6395   2.058   1.210   4.657 -0.4531 -1.0785  0.9873
 2067SOL     OW 6396   1.082   0.807   0.671  0.1271 -0.4449  0.4096
 2067SOL    HW1 6397   1.153   0.802   0.735  0.4495  0.6550  0.1526
 2067SOL    HW2 6398   1.108   0.877   0.611 -1.7067  0.7725  0.9584
 2068SOL     OW 6399   3.065   2.190   2.281  0.1291 -0.0242  0.2082
 2068SOL    HW1 6400   3.037   2.196   2.190  0.7239 -0.3071 -0.0046
 2068SOL    HW2 6401   2.985   2.180   2.331 -0.2681  0.9826 -0.2062
 2069SOL     OW 6402   4.164   4.909   2.791 -1.0934 -0.4042  0.3448
 2069SOL    HW1 6403   4.171   4.985   2.733  2.4850 -0.1887  0.8517
 2069SOL    HW2 6404   4.152   4.835   2.732  4.8809 -0.5601 -1.3049
 2070SOL     OW 6405   4.790   4.669   4.774 -0.2121 -0.4723 -0.0634
 2070SOL    HW1 6406   4.841   4.606   4.825 -1.1178 -1.3695 -0.2401
 2070SOL    HW2 6407   4.755   4.618   4.701 -2.4849 -0.2370  0.7996
 2071SOL     OW 6408   0.505   4.816   0.445  0.2116  0.1408  0.2321
 2071SOL    HW1 6409   0.592   4.835   0.411  0.1493  0.8643  0.4594
 2071SOL    HW2 6410   0.459   4.900   0.443 -0.0839  0.0185  1.2416
 2072SOL     OW 6411   4.635   4.817   1.943  0.0577  0.2424  0.4010
 2072SOL    HW1 6412   4.588   4.800   2.025  0.7078  0.0581  0.7446
 2072SOL    HW2 6413   4.570   4.802   1.874  0.1775 -2.2454  0.7294
 2073SOL     OW 6414   1.009   0.405   4.039 -0.5424  0.0725  0.0782
 2073SOL    HW1 6415   1.045   0.465   3.974 -0.2874  1.7718  1.6780
 2073SOL    HW2 6416   1.048   0.321   4.019  1.3132  1.0376 -0.5843
 2074SOL     OW 6417   0.766   1.200   1.220 -0.3851 -0.6846  0.4261
 2074SOL    HW1 6418   0.799   1.172   1.305 -0.3281 -0.1759  0.5703
 2074SOL    HW2 6419   0.841   1.193   1.161 -0.0116  0.4494  0.7489
 2075SOL     OW 6420   3.139   0.262   3.945 -0.2791 -0.3749 -0.5775
 2075SOL    HW1 6421   3.231   0.241   3.927 -0.1562 -0.9308  0.6022
 2075SOL    HW2 6422   3.094   0.243   3.863  0.0428 -4.0897 -0.0947
 2076SOL     OW 6423   2.533   3.564   0.409  0.7875  0.0841  0.1182
 2076SOL    HW1 6424   2.494   3.524   0.487 -1.0620  0.8930 -0.3353
 2076SOL    HW2 6425   2.603   3.619   0.444  1.4608 -1.2871  0.9891
 2077SOL     OW 6426   0.855   1.066   0.055 -0.0760 -0.4232  0.4326
 2077SOL    HW1 6427   0.860   1.107   0.141 -1.5362  1.1396 -0.1777
 2077SOL    HW2 6428   0.917   1.114   0.001  0.8841 -1.4418  0.5825
 2078SOL     OW 6429   3.367   4.024   0.481 -0.4972  0.5078  0.1205
 2078SOL    HW1 6430   3.445   4.029   0.536  0.0936  0.6416 -0.7097
 2078SOL    HW2 6431   3.294   4.040   0.541  0.1930  1.6041  0.6939
 2079SOL     OW 6432   2.629   2.368   3.034  0.3550 -0.3937 -0.4510
 2079SOL    HW1 6433   2.617   2.459   3.006 -1.3428 -0.8209 -1.2431
 2079SOL    HW2 6434   2.656   2.375   3.126  1.8050  0.9293 -0.9363
 2080SOL     OW 6435   2.224   1.753   0.118  0.3707  0.0748  0.4861
 2080SOL    HW1 6436   2.229   1.663   0.152  3.2673 -0.4350 -0.9398
 2080SOL    HW2 6437   2.198   1.742   0.027  2.6538  0.3986 -0.2759
 2081SOL     OW 6438   1.352   1.131   0.649  0.8850  0.3126  0.1581
 2081SOL    HW1 6439   1.368   1.224   0.631  0.2166  0.3820 -0.1043
 2081SOL    HW2 6440   1.373   1.121   0.742  0.2128  0.9040  0.3814
 2082SOL     OW 6441   2.945   3.178   1.233  0.7729  0.1300  0.0561
 2082SOL    HW1 6442   2.994   3.104   1.197  3.1115  1.5743  0.1206
 2082SOL    HW2 6443   3.011   3.244   1.254 -0.9840  1.3031  2.3600
 2083SOL     OW 6444   1.386   0.363   3.950  0.3365  0.4713 -0.2869
 2083SOL    HW1 6445   1.291   0.375   3.945  0.1216 -0.4578  1.0349
 2083SOL    HW2 6446   1.414   0.348   3.860 -0.5261  2.3039 -0.9159
 2084SOL     OW 6447   3.684   2.877   1.324 -0.3813  0.2316 -0.2431
 2084SOL    HW1 6448   3.658   2.869   1.232  1.1111 -2.1549 -0.5485
 2084SOL    HW2 6449   3.777   2.857   1.325 -0.1712  1.0529  1.7034
 2085SOL     OW 6450   3.162   0.593   4.835  0.6485 -0.0861  0.4302
 2085SOL    HW1 6451   3.133   0.653   4.903  2.0240  2.2549 -0.9143
 2085SOL    HW2 6452   3.114   0.619   4.757  2.0123 -0.0195 -0.4272
 2086SOL     OW 6453   0.219   2.835   0.920 -0.2390  0.3983  0.2603
 2086SOL    HW1 6454   0.311   2.818   0.941  0.0508  1.5511 -0.0191
 2086SOL    HW2 6455   0.181   2.748   0.907  0.9068 -0.0758 -0.0020
 2087SOL     OW 6456   0.961   4.150   0.656  0.0175 -0.6894  0.0882
 2087SOL    HW1 6457   1.004   4.228   0.620 -0.2766  0.9216  2.9563
 2087SOL    HW2 6458   0.877   4.182   0.688 -0.5071 -2.4160  0.5048
 2088SOL     OW 6459   4.768   4.698   2.319 -0.4677 -0.7715 -0.2289
 2088SOL    HW1 6460   4.744   4.618   2.272 -0.4791 -0.5823 -0.5490
 2088SOL    HW2 6461   4.687   4.748   2.325 -0.2364 -0.2983 -0.9857
 2089SOL     OW 6462   4.126   2.644   0.208 -0.1949 -0.1776  0.1688
 2089SOL    HW1 6463   4.178   2.679   0.136 -1.0695 -0.8518 -0.8230
 2089SOL    HW2 6464   4.070   2.717   0.235  0.0286  0.0334  0.0614
 2090SOL     OW 6465   3.189   3.564   0.475 -0.0125 -0.2780  0.5224
 2090SOL    HW1 6466   3.140   3.513   0.411 -2.1427 -0.8857  2.5426
 2090SOL    HW2 6467   3.245   3.500   0.520 -1.4210 -0.6078  1.8828
 2091SOL     OW 6468   1.368   0.128   0.409  0.4037  0.2418 -0.0016
 2091SOL    HW1 6469   1.360   0.055   0.471 -0.8133 -0.7015 -1.2113
 2091SOL    HW2 6470   1.420   0.193   0.456 -1.4202  0.0591  2.4638
 2092SOL     OW 6471   4.051   3.695   3.648  0.2600  1.3074 -0.4494
 2092SOL    HW1 6472   4.090   3.745   3.577 -0.2654  0.2301 -1.5263
 2092SOL    HW2 6473   4.022   3.761   3.711 -0.2317  2.3449 -1.7334
 2093SOL     OW 6474   3.961   3.084   1.964 -0.4036 -0.2032  0.3987
 2093SOL    HW1 6475   3.875   3.122   1.981 -0.3121 -0.6110  1.9511
 2093SOL    HW2 6476   4.019   3.159   1.955 -0.8689  0.0725 -0.3857
 2094SOL     OW 6477   2.438   3.829   0.586 -0.5222 -0.4647  0.0488
 2094SOL    HW1 6478   2.525   3.854   0.616  0.0405 -2.1953 -0.0458
 2094SOL    HW2 6479   2.395   3.792   0.663 -0.5731 -1.0916 -0.2675
 2095SOL     OW 6480   3.767   3.407   2.481 -0.3083 -0.7788  0.3232
 2095SOL    HW1 6481   3.774   3.459   2.561  0.4816  1.6421 -1.1878
 2095SOL    HW2 6482   3.688   3.355   2.492 -0.2443 -0.4874  2.6130
 2096SOL     OW 6483   0.371   1.616   0.158  0.5505  0.2910  0.5219
 2096SOL    HW1 6484   0.315   1.688   0.126  0.0911 -0.2407  0.1176
 2096SOL    HW2 6485   0.388   1.639   0.249  1.1191  1.3592  0.1678
 2097SOL     OW 6486   1.083   3.838   2.338 -0.1144 -0.1205 -0.1535
 2097SOL    HW1 6487   1.047   3.909   2.390 -1.5162 -0.1341 -1.0497
 2097SOL    HW2 6488   1.131   3.881   2.267  1.7870 -0.1018  1.0704
 2098SOL     OW 6489   2.834   0.500   2.658 -0.3014  0.6494  0.0328
 2098SOL    HW1 6490   2.768   0.508   2.589  0.1902  1.1148 -0.3980
 2098SOL    HW2 6491   2.914   0.538   2.619  0.5634 -1.0287  0.0893
 2099SOL     OW 6492   1.502   0.193   4.796  0.2352  1.1713  0.0802
 2099SOL    HW1 6493   1.437   0.219   4.861 -0.4442 -0.9304  0.2959
 2099SOL    HW2 6494   1.492   0.258   4.725 -1.1300  1.6815  0.7192
 2100SOL     OW 6495   4.838   4.271   1.433  0.2889 -0.1690 -0.2626
 2100SOL    HW1 6496   4.886   4.351   1.454 -0.3925  0.6830 -1.7968
 2100SOL    HW2 6497   4.749   4.300   1.413 -0.2449 -1.4376  0.1769
 2101SOL     OW 6498   2.111   1.332   0.530  0.2605 -0.0042  0.1832
 2101SOL    HW1 6499   2.114   1.257   0.470 -0.5685 -0.5876  0.8396
 2101SOL    HW2 6500   2.162   1.303   0.606  0.1427  0.1848  0.3338
 2102SOL     OW 6501   4.361   2.931   1.786  0.3801 -0.1523 -0.2672
 2102SOL    HW1 6502   4.310   3.011   1.802 -0.2314 -0.6119  0.1035
 2102SOL    HW2 6503   4.371   2.891   1.872 -0.3812 -1.1128 -0.6111
 2103SOL     OW 6504   2.492   3.219   3.892  0.0276  0.0166  0.2771
 2103SOL    HW1 6505   2.524   3.146   3.944  0.9027  0.9290  1.0607
 2103SOL    HW2 6506   2.498   3.189   3.802  2.6623 -0.0562  0.4036
 2104SOL     OW 6507   0.855   1.606   1.026  0.0206  0.3422  0.6978
 2104SOL    HW1 6508   0.903   1.523   1.033 -2.3882 -1.3404 -0.9275
 2104SOL    HW2 6509   0.910   1.670   1.071  2.7655 -1.7977  0.6518
 2105SOL     OW 6510   0.261   2.533   4.858  0.8967  0.2750 -0.0788
 2105SOL    HW1 6511   0.286   2.612   4.906 -1.7533  0.5079  1.0494
 2105SOL    HW2 6512   0.277   2.462   4.920  0.8491  0.1955 -0.1581
 2106SOL     OW 6513   1.432   4.556   0.766  0.1344  0.4001  0.1285
 2106SOL    HW1 6514   1.409   4.551   0.673  1.8820 -0.7573 -0.2818
 2106SOL    HW2 6515   1.391   4.479   0.805 -0.3834  0.7486  0.2882
 2107SOL     OW 6516   0.321   2.001   0.387 -0.1310  0.1724  0.2729
 2107SOL    HW1 6517   0.299   2.059   0.459 -0.9299  0.3850 -0.1276
 2107SOL    HW2 6518   0.406   1.963   0.411 -0.4565  0.1292  1.3769
 2108SOL     OW 6519   3.235   1.420   4.343 -0.3578  0.2813  0.0031
 2108SOL    HW1 6520   3.311   1.443   4.397 -0.3882 -0.9980  0.6328
 2108SOL    HW2 6521   3.231   1.324   4.347 -1.7905  0.3046 -0.3220
 2109SOL     OW 6522   0.680   2.319   0.833  0.8351  0.5388  0.2248
 2109SOL    HW1 6523   0.593   2.356   0.841 -0.3580 -1.6397 -1.5377
 2109SOL    HW2 6524   0.720   2.368   0.761 -0.1031 -0.3838 -0.9694
 2110SOL     OW 6525   0.944   0.024   4.434  0.6597  0.3397  0.0443
 2110SOL    HW1 6526   0.898   0.026   4.350  0.4655  1.3411  0.1568
 2110SOL    HW2 6527   0.887   0.074   4.493  0.3138 -1.1713  1.0400
 2111SOL     OW 6528   4.781   1.462   1.673 -0.0874 -0.3328  0.7076
 2111SOL    HW1 6529   4.789   1.437   1.765 -0.8092 -0.9333  0.6203
 2111SOL    HW2 6530   4.822   1.548   1.667  0.9156 -0.7454  1.3787
 2112SOL     OW 6531   0.335   3.242   2.167  0.0578  0.1096 -0.0666
 2112SOL    HW1 6532   0.313   3.208   2.080 -1.2820 -0.8964  0.6073
 2112SOL    HW2 6533   0.268   3.203   2.225 -0.5899  2.6484  1.0490
 2113SOL     OW 6534   2.525   3.707   2.215  0.5874 -0.0235  0.5066
 2113SOL    HW1 6535   2.595   3.769   2.195  0.1411  1.0233  2.0025
 2113SOL    HW2 6536   2.456   3.728   2.153  1.0232 -0.0967 -0.0194
 2114SOL     OW 6537   2.408   1.854   1.802 -0.4483 -0.2359 -0.0641
 2114SOL    HW1 6538   2.469   1.783   1.821  0.4197  0.2018 -1.1029
 2114SOL    HW2 6539   2.370   1.832   1.717 -0.8300  0.1050  0.0133
 2115SOL     OW 6540   2.873   4.367   0.219 -0.4550  0.1549 -0.5961
 2115SOL    HW1 6541   2.956   4.349   0.262 -0.7543 -1.3741 -0.5836
 2115SOL    HW2 6542   2.892   4.437   0.157  1.0974 -0.8645 -1.3193
 2116SOL     OW 6543   1.549   3.072   2.522 -0.5178  0.1354  0.0572
 2116SOL    HW1 6544   1.612   3.041   2.587 -0.9258 -0.5694  0.1235
 2116SOL    HW2 6545   1.603   3.104   2.450 -0.0793 -1.4610 -0.3610
 2117SOL     OW 6546   0.508   1.363   1.179 -0.0982  0.5034  0.1474
 2117SOL    HW1 6547   0.599   1.331   1.186 -0.3508 -0.2924 -0.0981
 2117SOL    HW2 6548   0.466   1.331   1.259 -0.6520 -0.8090 -0.6374
 2118SOL     OW 6549   3.844   3.933   3.455  0.0787 -0.1011  0.3647
 2118SOL    HW1 6550   3.911   3.947   3.388  2.0052 -1.6387  1.8866
 2118SOL    HW2 6551   3.859   4.003   3.519 -0.7048  0.3820  0.0372
 2119SOL     OW 6552   1.545   3.785   2.872  0.0070 -0.0598  0.1169
 2119SOL    HW1 6553   1.475   3.735   2.830  0.7412  0.2935 -1.5855
 2119SOL    HW2 6554   1.533   3.769   2.966 -1.6165 -0.9583 -0.2144
 2120SOL     OW 6555   4.555   3.246   3.046 -0.0024 -0.6136  0.2393
 2120SOL    HW1 6556   4.629   3.305   3.033 -1.2531  1.1896  0.8838
 2120SOL    HW2 6557   4.498   3.263   2.971 -0.4238 -0.9283  0.4858
 2121SOL     OW 6558   2.921   0.104   1.343  0.4915  0.1172 -0.7650
 2121SOL    HW1 6559   2.893   0.012   1.343  0.6455  0.0316  0.7569
 2121SOL    HW2 6560   3.015   0.100   1.361  0.7568  0.5353 -2.0129
 2122SOL     OW 6561   3.222   3.851   1.018 -0.1787  0.2241 -0.6206
 2122SOL    HW1 6562   3.211   3.864   0.924 -1.9502 -1.0163 -0.6343
 2122SOL    HW2 6563   3.273   3.770   1.024  1.9943  1.5202 -0.4714
 2123SOL     OW 6564   1.055   1.173   4.175  0.6449 -0.3858 -0.3411
 2123SOL    HW1 6565   1.045   1.094   4.227 -0.2855  1.0635  1.8163
 2123SOL    HW2 6566   0.966   1.208   4.168  1.0200  0.4041 -1.3866
 2124SOL     OW 6567   1.384   1.349   2.892 -0.7640  0.5025  0.4108
 2124SOL    HW1 6568   1.366   1.278   2.955 -0.8671  0.6959  0.6012
 2124SOL    HW2 6569   1.345   1.318   2.810  0.3909 -0.2724  0.1322
 2125SOL     OW 6570   0.531   1.964   4.005 -0.3450 -0.2743  0.1752
 2125SOL    HW1 6571   0.512   1.927   3.918  1.9281 -0.4729 -0.2940
 2125SOL    HW2 6572   0.487   2.049   4.005  1.2945  0.6605 -2.0134
 2126SOL     OW 6573   2.869   4.125   1.691  0.8090  0.2224 -0.1690
 2126SOL    HW1 6574   2.804   4.060   1.721  0.4536  0.1721 -1.0267
 2126SOL    HW2 6575   2.915   4.151   1.771  1.1669 -1.3080  0.1530
 2127SOL     OW 6576   4.280   2.520   0.754 -0.0339 -0.5165 -0.4862
 2127SOL    HW1 6577   4.228   2.550   0.828 -0.9466 -0.6043 -1.0812
 2127SOL    HW2 6578   4.217   2.507   0.683  0.4602 -2.6634 -0.6214
 2128SOL     OW 6579   2.701   2.480   1.113  0.1384  0.1762  0.7003
 2128SOL    HW1 6580   2.794   2.462   1.126 -0.0708 -1.6440 -0.1025
 2128SOL    HW2 6581   2.657   2.397   1.130 -1.2772  0.8115  0.3283
 2129SOL     OW 6582   0.505   2.128   1.252  0.1622  0.0971 -0.3261
 2129SOL    HW1 6583   0.590   2.158   1.284 -1.1437  3.8114  0.2219
 2129SOL    HW2 6584   0.503   2.153   1.160 -0.3395  0.1620 -0.3040
 2130SOL     OW 6585   4.356   4.121   1.784  0.0679 -0.5575 -0.3052
 2130SOL    HW1 6586   4.424   4.163   1.837 -0.9503 -0.3040  0.8552
 2130SOL    HW2 6587   4.318   4.055   1.843 -2.7043  1.3232  0.2027
 2131SOL     OW 6588   1.464   2.918   0.333 -0.2018 -0.1188  0.2189
 2131SOL    HW1 6589   1.492   2.879   0.249 -0.9722  0.9657 -0.5647
 2131SOL    HW2 6590   1.520   2.995   0.343 -0.7237  0.2621  0.2364
 2132SOL     OW 6591   0.698   0.088   3.416 -0.2189 -0.4638  0.4700
 2132SOL    HW1 6592   0.775   0.134   3.449  1.0623 -1.2437 -1.2626
 2132SOL    HW2 6593   0.650   0.155   3.368 -0.5046 -0.0337  1.3330
 2133SOL     OW 6594   4.225   0.426   0.628 -0.2802  0.3273  0.1167
 2133SOL    HW1 6595   4.197   0.379   0.706  1.1222  1.2745  1.2433
 2133SOL    HW2 6596   4.144   0.449   0.583 -1.1699  0.5371  1.7651
 2134SOL     OW 6597   1.480   1.344   1.321  0.4689 -0.4240  0.0823
 2134SOL    HW1 6598   1.523   1.373   1.240 -1.9853  2.1878 -0.4582
 2134SOL    HW2 6599   1.505   1.410   1.386 -0.8652 -0.1217  0.3142
 2135SOL     OW 6600   1.741   2.658   4.180 -0.2087 -0.2172 -0.1339
 2135SOL    HW1 6601   1.697   2.722   4.238  1.3826 -1.1169  2.2231
 2135SOL    HW2 6602   1.829   2.651   4.215 -0.2535 -3.5702 -0.3798
 2136SOL     OW 6603   1.758   2.206   3.856 -0.1592 -0.9743 -0.3699
 2136SOL    HW1 6604   1.790   2.121   3.885  0.1713 -0.0974  2.1194
 2136SOL    HW2 6605   1.666   2.207   3.881 -0.1303 -0.5626 -0.2702
 2137SOL     OW 6606   3.222   1.419   1.065 -0.1493  0.3364 -0.3863
 2137SOL    HW1 6607   3.177   1.404   1.148 -0.7678  0.4777 -0.6892
 2137SOL    HW2 6608   3.312   1.437   1.089 -0.5810  1.6390  0.3604
 2138SOL     OW 6609   4.428   2.237   3.903  0.6193  0.2804  0.1273
 2138SOL    HW1 6610   4.442   2.148   3.934 -3.2556 -0.7789 -0.5868
 2138SOL    HW2 6611   4.514   2.267   3.875  2.5239 -2.2300  2.7664
 2139SOL     OW 6612   2.596   1.079   0.679 -0.5548  0.5911  0.2131
 2139SOL    HW1 6613   2.649   1.001   0.696 -1.6935 -0.1133  0.6422
 2139SOL    HW2 6614   2.563   1.106   0.765 -1.1830  0.7969 -0.0811
 2140SOL     OW 6615   2.520   1.255   1.212  0.1913  0.5863  0.0677
 2140SOL    HW1 6616   2.613   1.275   1.208  0.5320 -1.0360 -0.8994
 2140SOL    HW2 6617   2.511   1.173   1.164 -1.9475  1.4156 -1.0671
 2141SOL     OW 6618   4.551   0.343   0.514 -0.2522 -0.7734 -0.6800
 2141SOL    HW1 6619   4.593   0.285   0.577 -2.4041 -1.6434  0.0521
 2141SOL    HW2 6620   4.601   0.332   0.433  1.8039 -0.5784  0.5184
 2142SOL     OW 6621   4.682   3.614   4.781  0.6708  0.0106  0.2036
 2142SOL    HW1 6622   4.731   3.686   4.741 -0.8033  1.4529  0.8517
 2142SOL    HW2 6623   4.689   3.630   4.875 -1.0569  0.3502  0.3233
 2143SOL     OW 6624   3.508   1.457   1.077 -0.0838  0.2754 -0.2540
 2143SOL    HW1 6625   3.507   1.547   1.111  0.2374 -0.2109  1.1075
 2143SOL    HW2 6626   3.591   1.421   1.107 -0.5429 -0.7133 -0.1559
 2144SOL     OW 6627   0.608   4.305   2.891 -0.4373 -0.1416  0.0073
 2144SOL    HW1 6628   0.535   4.326   2.833  0.0674 -1.4109 -1.1282
 2144SOL    HW2 6629   0.670   4.258   2.835  0.1533 -1.2379  1.5418
 2145SOL     OW 6630   3.561   2.939   2.897 -0.3648  0.7152 -0.2588
 2145SOL    HW1 6631   3.637   2.882   2.884 -0.3639  0.0939  1.9681
 2145SOL    HW2 6632   3.599   3.025   2.916 -0.2290  0.6295 -0.1298
 2146SOL     OW 6633   2.224   1.776   4.372  0.3395 -0.0367  0.0731
 2146SOL    HW1 6634   2.319   1.781   4.362  0.4169  0.7074  1.0023
 2146SOL    HW2 6635   2.211   1.708   4.438  0.3151  0.8369  0.9825
 2147SOL     OW 6636   4.666   4.679   4.222 -0.0394  0.4491  0.3739
 2147SOL    HW1 6637   4.746   4.730   4.240  0.5716 -0.1678 -0.4976
 2147SOL    HW2 6638   4.643   4.701   4.132 -0.4921  0.1371  0.4073
 2148SOL     OW 6639   3.197   1.234   1.344  0.3594 -0.1623 -0.2986
 2148SOL    HW1 6640   3.102   1.219   1.344  0.1751  0.1985  3.0071
 2148SOL    HW2 6641   3.207   1.318   1.388  2.2401 -0.0726 -0.8397
 2149SOL     OW 6642   4.745   3.989   1.315 -0.1347 -0.1484  0.7435
 2149SOL    HW1 6643   4.778   4.078   1.304 -1.6963  0.3286 -0.4790
 2149SOL    HW2 6644   4.816   3.933   1.285  0.2112  0.7642 -0.2079
 2150SOL     OW 6645   2.860   3.074   2.159  0.5634  0.4339 -0.0584
 2150SOL    HW1 6646   2.824   3.124   2.232 -2.3187  1.3206 -1.9186
 2150SOL    HW2 6647   2.839   2.983   2.181 -0.9124  0.7498 -0.0493
 2151SOL     OW 6648   0.577   2.693   2.424 -0.0295 -0.1644  0.3498
 2151SOL    HW1 6649   0.658   2.683   2.474  0.2140 -0.6592 -0.1273
 2151SOL    HW2 6650   0.524   2.754   2.475  0.1589 -0.7496  1.2693
 2152SOL     OW 6651   1.586   0.444   4.097 -0.4487  0.3015  0.3921
 2152SOL    HW1 6652   1.506   0.421   4.049 -0.1848 -0.5612  0.3461
 2152SOL    HW2 6653   1.612   0.529   4.062 -0.1599 -0.3912 -1.1477
 2153SOL     OW 6654   1.497   4.518   2.153  0.0093  0.3533  0.5539
 2153SOL    HW1 6655   1.412   4.547   2.186 -1.6978  1.6796 -4.2279
 2153SOL    HW2 6656   1.517   4.578   2.082  3.7018 -1.5857 -0.2757
 2154SOL     OW 6657   2.226   1.650   1.927  0.6503 -0.2367  0.2056
 2154SOL    HW1 6658   2.264   1.724   1.881  2.3622 -2.1526 -1.6797
 2154SOL    HW2 6659   2.173   1.605   1.860  0.1752 -1.0778  1.1170
 2155SOL     OW 6660   0.177   2.139   3.474  0.1434 -0.0688  0.0278
 2155SOL    HW1 6661   0.157   2.081   3.547 -1.7223 -1.0521 -1.1670
 2155SOL    HW2 6662   0.103   2.199   3.471 -0.7880 -1.2101 -2.1055
 2156SOL     OW 6663   1.341   0.913   1.701  0.2349 -0.0248 -0.3002
 2156SOL    HW1 6664   1.249   0.895   1.721  0.8063 -0.1064  2.5798
 2156SOL    HW2 6665   1.345   1.008   1.692  0.0604  0.0800  0.7006
 2157SOL     OW 6666   0.726   3.919   2.399 -0.7445  0.4251 -0.3712
 2157SOL    HW1 6667   0.632   3.930   2.382 -0.5382  1.8888 -0.7109
 2157SOL    HW2 6668   0.768   3.951   2.320  0.0576 -0.4999 -0.3390
 2158SOL     OW 6669   3.309   3.764   4.864 -0.3232  0.3878  0.3976
 2158SOL    HW1 6670   3.388   3.780   4.915  0.4862 -0.7313 -0.4780
 2158SOL    HW2 6671   3.334   3.779   4.773 -0.4973 -2.0014 -0.1103
 2159SOL     OW 6672   4.170   4.154   3.364 -0.0609  0.2959 -0.5998
 2159SOL    HW1 6673   4.140   4.227   3.310 -2.9323  0.4995  1.0633
 2159SOL    HW2 6674   4.134   4.077   3.321 -0.4408  0.2628 -0.2350
 2160SOL     OW 6675   0.936   2.963   4.197 -0.5993 -0.4452  0.4845
 2160SOL    HW1 6676   0.854   2.926   4.230 -0.9452  0.1400  0.2945
 2160SOL    HW2 6677   0.952   2.916   4.116 -2.3814  1.4931 -1.1053
 2161SOL     OW 6678   4.891   2.894   2.117  0.2899  0.3295 -0.1618
 2161SOL    HW1 6679   4.798   2.918   2.117 -0.2017 -1.4289 -1.2383
 2161SOL    HW2 6680   4.908   2.863   2.029  1.4176 -1.1020  0.5104
 2162SOL     OW 6681   3.054   0.309   1.117 -0.0409 -0.2791  0.3419
 2162SOL    HW1 6682   3.018   0.387   1.159  0.9037 -0.4438  1.4966
 2162SOL    HW2 6683   2.977   0.258   1.091 -0.6859  1.2863 -0.9697
 2163SOL     OW 6684   1.013   0.871   1.386 -0.3957  0.2066 -0.5225
 2163SOL    HW1 6685   1.033   0.961   1.409  1.7567 -0.1481 -0.8030
 2163SOL    HW2 6686   0.994   0.873   1.292  4.0012 -0.1151 -1.6277
 2164SOL     OW 6687   1.107   0.963   3.026  0.5055 -0.2916  0.4638
 2164SOL    HW1 6688   1.143   0.875   3.029 -0.4214 -0.8921 -2.5649
 2164SOL    HW2 6689   1.025   0.957   3.077  0.3130 -1.2638  0.0618
 2165SOL     OW 6690   2.829   2.146   3.344  0.3467 -0.4722  0.5915
 2165SOL    HW1 6691   2.759   2.210   3.358  0.9536  0.7102 -1.3171
 2165SOL    HW2 6692   2.794   2.087   3.277  1.4992  0.7895 -1.2069
 2166SOL     OW 6693   3.458   0.959   3.104  0.3559 -0.2133  0.0359
 2166SOL    HW1 6694   3.532   0.915   3.061  0.5722 -1.1013  1.2769
 2166SOL    HW2 6695   3.478   1.052   3.095  1.5782 -0.4309  0.2524
 2167SOL     OW 6696   1.062   1.300   3.700  0.5419  0.1163 -0.5741
 2167SOL    HW1 6697   1.085   1.207   3.698  0.1037  0.0222 -1.6100
 2167SOL    HW2 6698   1.017   1.312   3.783  0.8873 -0.5220 -0.2878
 2168SOL     OW 6699   2.613   0.088   2.858 -0.3601 -0.2651  0.1326
 2168SOL    HW1 6700   2.611   0.118   2.767 -0.0608  0.9804  0.5257
 2168SOL    HW2 6701   2.689   0.030   2.862  0.1270  0.3443 -0.2064
 2169SOL     OW 6702   1.755   4.251   0.368  0.7377  0.0869 -0.1017
 2169SOL    HW1 6703   1.821   4.276   0.303  2.1844 -0.0672  1.2440
 2169SOL    HW2 6704   1.726   4.334   0.406  1.2593  0.0686  0.3391
 2170SOL     OW 6705   2.922   3.724   3.920  0.2447  0.1637  0.6677
 2170SOL    HW1 6706   2.943   3.727   3.826  1.5660 -0.6200  0.9051
 2170SOL    HW2 6707   2.861   3.651   3.929 -0.0169  0.3467  0.3978
 2171SOL     OW 6708   4.794   4.323   3.975 -0.0322 -0.5193 -0.5859
 2171SOL    HW1 6709   4.836   4.339   4.059 -0.3434  1.9686 -0.8061
 2171SOL    HW2 6710   4.820   4.234   3.951 -0.2780 -1.4505  2.2859
 2172SOL     OW 6711   2.324   4.672   3.545 -0.2841 -0.1485 -0.2227
 2172SOL    HW1 6712   2.350   4.683   3.636 -0.0445 -0.3434 -0.2677
 2172SOL    HW2 6713   2.390   4.614   3.508 -0.7272 -0.5624 -0.3660
 2173SOL     OW 6714   1.120   0.822   0.126  0.4597  0.4095 -0.4785
 2173SOL    HW1 6715   1.152   0.738   0.092 -3.3931 -1.8063  0.7055
 2173SOL    HW2 6716   1.067   0.858   0.054  0.1098  0.5769 -0.1401
 2174SOL     OW 6717   2.101   2.999   1.790  0.4220  0.2472  0.1793
 2174SOL    HW1 6718   2.165   2.930   1.773 -0.6885 -0.5877 -0.8026
 2174SOL    HW2 6719   2.017   2.954   1.795 -0.3613  1.5185 -0.6893
 2175SOL     OW 6720   4.105   0.481   1.459  0.6794 -0.5256  0.3569
 2175SOL    HW1 6721   4.166   0.484   1.386 -0.4965  1.6094 -0.6160
 2175SOL    HW2 6722   4.161   0.484   1.537  1.8805 -0.8614 -0.4740
 2176SOL     OW 6723   4.781   0.442   1.616  0.3404 -0.4938 -0.3602
 2176SOL    HW1 6724   4.866   0.422   1.657 -0.1265  1.2287  1.5732
 2176SOL    HW2 6725   4.772   0.536   1.624 -1.6580 -0.6121 -0.8018
 2177SOL     OW 6726   2.841   4.664   1.227 -0.3412 -0.1193  0.0790
 2177SOL    HW1 6727   2.923   4.711   1.244 -1.7645  2.1677  1.1763
 2177SOL    HW2 6728   2.815   4.690   1.139 -1.4051  1.7554  0.8849
 2178SOL     OW 6729   0.285   0.262   0.036 -0.0649  0.3446 -0.0357
 2178SOL    HW1 6730   0.298   0.199  -0.035  0.7472 -1.3887  1.5697
 2178SOL    HW2 6731   0.367   0.310   0.041  0.2344 -0.1932  0.3255
 2179SOL     OW 6732   0.696   4.229   0.638  0.0761 -0.2029  0.3279
 2179SOL    HW1 6733   0.601   4.229   0.631 -0.0030  1.3434  1.0731
 2179SOL    HW2 6734   0.726   4.266   0.555 -0.0735  1.0493  0.8122
 2180SOL     OW 6735   3.280   2.641   2.450 -0.3680 -0.2829 -0.3193
 2180SOL    HW1 6736   3.246   2.552   2.450 -0.5017 -0.2460 -1.2235
 2180SOL    HW2 6737   3.359   2.636   2.396  0.0312 -0.0020  0.2388
 2181SOL     OW 6738   4.842   2.780   1.541 -0.2455  0.5075  0.0301
 2181SOL    HW1 6739   4.776   2.849   1.534 -0.6227  0.3467  1.5473
 2181SOL    HW2 6740   4.870   2.764   1.451 -2.9778 -0.1055 -0.8173
 2182SOL     OW 6741   4.693   3.407   0.854 -0.3905 -0.0854  0.0110
 2182SOL    HW1 6742   4.768   3.372   0.806 -0.4342  1.0066 -0.9096
 2182SOL    HW2 6743   4.618   3.358   0.820 -0.6652  1.8314 -2.4187
 2183SOL     OW 6744   3.513   4.824   1.957  0.4467  0.3615  0.2498
 2183SOL    HW1 6745   3.434   4.821   1.903 -0.0696 -0.8631  1.0372
 2183SOL    HW2 6746   3.580   4.862   1.900 -0.2714 -0.1900 -0.9888
 2184SOL     OW 6747   4.327   3.927   1.362  0.3269 -0.1049 -0.5487
 2184SOL    HW1 6748   4.253   3.905   1.305 -0.0263 -0.3054 -0.0286
 2184SOL    HW2 6749   4.294   3.998   1.418 -0.4190 -1.9540  1.5082
 2185SOL     OW 6750   3.931   4.737   0.077  0.0383 -0.2935  0.2501
 2185SOL    HW1 6751   3.890   4.660   0.117  0.7392 -0.6704  0.2448
 2185SOL    HW2 6752   4.015   4.706   0.044  0.7054  0.6531  0.9895
 2186SOL     OW 6753   1.300   2.235   4.451  0.0683 -0.2278  0.2215
 2186SOL    HW1 6754   1.226   2.285   4.416 -0.3740 -0.8643  0.2289
 2186SOL    HW2 6755   1.373   2.296   4.449 -0.2683  0.1692 -0.5430
 2187SOL     OW 6756   2.512   0.019   0.688  0.2916  0.0125  0.1106
 2187SOL    HW1 6757   2.607   0.022   0.699  0.7490  0.1361 -3.0128
 2187SOL    HW2 6758   2.489   0.108   0.661 -0.8074  0.0668  1.1578
 2188SOL     OW 6759   1.254   0.030   2.055  0.4273  1.0506  0.0051
 2188SOL    HW1 6760   1.222  -0.003   2.139  2.7530 -0.6349  0.3120
 2188SOL    HW2 6761   1.218  -0.031   1.990 -0.8421  1.9849 -0.2238
 2189SOL     OW 6762   0.633   3.967   4.689 -0.1764 -0.3091  0.1143
 2189SOL    HW1 6763   0.652   4.025   4.615 -2.2700  0.3609  0.0471
 2189SOL    HW2 6764   0.538   3.952   4.685 -0.4735  0.1618  2.9446
 2190SOL     OW 6765   0.236   2.791   4.937  0.1896  0.4130  0.7589
 2190SOL    HW1 6766   0.183   2.812   4.860  0.4954  0.8476  0.6618
 2190SOL    HW2 6767   0.248   2.875   4.981  0.9745  0.3562  0.6647
 2191SOL     OW 6768   3.074   1.762   1.804 -0.1040  0.2977  0.1089
 2191SOL    HW1 6769   3.145   1.812   1.764  0.5657  0.9178  1.9637
 2191SOL    HW2 6770   3.052   1.696   1.738  1.8968  0.3554 -0.7070
 2192SOL     OW 6771   3.161   4.576   0.028 -0.1098 -0.0033 -0.5762
 2192SOL    HW1 6772   3.208   4.634  -0.032 -0.2765 -0.2967 -0.9925
 2192SOL    HW2 6773   3.231   4.530   0.075  0.1296  2.5127  1.8044
 2193SOL     OW 6774   2.766   3.863   3.211 -0.4933 -0.5983  0.0483
 2193SOL    HW1 6775   2.690   3.885   3.158  0.0729 -0.2242 -0.6378
 2193SOL    HW2 6776   2.735   3.795   3.271 -0.9446 -1.6980 -1.3737
 2194SOL     OW 6777   1.628   0.908   4.610 -0.4976  0.0183  0.9841
 2194SOL    HW1 6778   1.538   0.940   4.614 -0.3288  0.8543 -0.7707
 2194SOL    HW2 6779   1.681   0.987   4.601  0.0830 -0.5629 -1.5388
 2195SOL     OW 6780   2.824   4.814   4.187 -0.0487  0.1553 -0.2688
 2195SOL    HW1 6781   2.859   4.892   4.145  1.6029 -0.5694 -0.3271
 2195SOL    HW2 6782   2.899   4.756   4.196 -1.3011 -1.5945 -0.5814
 2196SOL     OW 6783   0.358   3.513   2.108 -0.4023 -0.2923  0.3067
 2196SOL    HW1 6784   0.265   3.531   2.092 -0.4698  0.0956  1.0873
 2196SOL    HW2 6785   0.360   3.424   2.144 -0.5300 -0.0979  0.8017
 2197SOL     OW 6786   1.361   4.315   1.334 -0.2312  0.7667 -0.5883
 2197SOL    HW1 6787   1.423   4.284   1.268  1.5880  1.4738  0.7045
 2197SOL    HW2 6788   1.277   4.275   1.309  1.3041 -2.6633 -0.7596
 2198SOL     OW 6789   0.330   1.267   2.620  0.1673  0.3769  0.0226
 2198SOL    HW1 6790   0.374   1.282   2.703  2.3318 -0.3022 -0.9309
 2198SOL    HW2 6791   0.271   1.194   2.636  0.5717  0.2414  0.9512
 2199SOL     OW 6792   0.768   1.742   2.617 -0.4322 -0.2179 -0.2214
 2199SOL    HW1 6793   0.804   1.748   2.529  0.1245  1.5448  0.0800
 2199SOL    HW2 6794   0.843   1.724   2.673 -0.5560  0.0491  0.0376
 2200SOL     OW 6795   0.555   0.727   0.170  0.2932 -0.3881  0.3133
 2200SOL    HW1 6796   0.545   0.721   0.075 -0.3726 -0.6182  0.3910
 2200SOL    HW2 6797   0.604   0.649   0.194 -0.9083 -1.1694  0.3264
 2201SOL     OW 6798   4.854   0.788   1.042  0.0774 -0.2732  0.2299
 2201SOL    HW1 6799   4.941   0.824   1.057 -0.5019  1.4260 -0.2391
 2201SOL    HW2 6800   4.796   0.840   1.099 -0.7067 -0.9566  0.0771
 2202SOL     OW 6801   3.501   1.754   0.096  0.1079  0.1783 -0.2513
 2202SOL    HW1 6802   3.541   1.678   0.139 -1.6326  0.2047  1.5199
 2202SOL    HW2 6803   3.521   1.828   0.154  1.5989  1.1103 -1.8438
 2203SOL     OW 6804   2.116   2.098   4.829 -0.2565  0.1484  0.4173
 2203SOL    HW1 6805   2.057   2.061   4.763 -0.9638  0.1266  1.0443
 2203SOL    HW2 6806   2.201   2.104   4.785 -0.9780  1.2892 -0.9002
 2204SOL     OW 6807   2.612   1.358   2.169  0.5528 -0.1569 -0.1417
 2204SOL    HW1 6808   2.655   1.429   2.217 -0.6499 -0.5497  1.5741
 2204SOL    HW2 6809   2.554   1.403   2.107  0.3351  0.3808  0.4378
 2205SOL     OW 6810   3.713   1.464   0.275 -0.3174  0.1473  0.2514
 2205SOL    HW1 6811   3.673   1.420   0.349 -0.0301  0.7766  0.7924
 2205SOL    HW2 6812   3.795   1.417   0.260 -0.7345 -0.4565 -0.1600
 2206SOL     OW 6813   0.063   4.223   4.266 -0.7531 -0.1973 -0.3440
 2206SOL    HW1 6814   0.020   4.265   4.339 -0.1003 -0.4254  0.1864
 2206SOL    HW2 6815   0.089   4.137   4.299  0.3312  0.0290 -0.5437
 2207SOL     OW 6816   2.241   2.576   1.282 -0.2881 -0.0621 -0.4400
 2207SOL    HW1 6817   2.312   2.630   1.316 -0.7840  1.8094 -2.2104
 2207SOL    HW2 6818   2.169   2.637   1.268 -0.3870 -0.7795 -3.9743
 2208SOL     OW 6819   2.115   3.679   1.800  0.3934  0.3798 -0.2535
 2208SOL    HW1 6820   2.096   3.639   1.885 -0.7073  1.3827  0.0072
 2208SOL    HW2 6821   2.059   3.757   1.798  0.0860  0.1521 -2.0682
 2209SOL     OW 6822   4.942   1.042   4.606  0.1110 -0.0068  0.1045
 2209SOL    HW1 6823   4.874   1.064   4.542 -1.7347  0.6958  2.1946
 2209SOL    HW2 6824   4.895   1.013   4.683  2.2651 -0.8925  1.1739
 2210SOL     OW 6825   0.244   3.088   3.622 -0.3823  0.0407 -0.1733
 2210SOL    HW1 6826   0.280   3.144   3.553 -0.1728  0.8804  0.6012
 2210SOL    HW2 6827   0.280   3.001   3.603  0.8771  0.5612 -0.2769
 2211SOL     OW 6828   1.734   2.591   0.762  0.5600  0.0199  0.7268
 2211SOL    HW1 6829   1.760   2.645   0.836 -0.6765  1.0566  0.4368
 2211SOL    HW2 6830   1.676   2.647   0.710 -0.0290 -1.2721 -0.0726
 2212SOL     OW 6831   0.110   0.127   0.697  0.1036 -0.0703 -0.0216
 2212SOL    HW1 6832   0.202   0.114   0.672 -0.1770 -1.4038 -0.4382
 2212SOL    HW2 6833   0.089   0.214   0.665  1.0223 -0.0304 -0.5704
 2213SOL     OW 6834   2.864   2.790   2.202  0.3351  0.4010 -0.1686
 2213SOL    HW1 6835   2.837   2.700   2.219 -0.3010  0.7064  0.5064
 2213SOL    HW2 6836   2.949   2.799   2.244 -0.4463  0.6487  1.4298
 2214SOL     OW 6837   0.755   0.532   4.734  0.3408 -0.3378 -0.3983
 2214SOL    HW1 6838   0.847   0.517   4.755 -0.2231 -1.4464  1.5777
 2214SOL    HW2 6839   0.739   0.622   4.760  0.6458 -0.4589  0.2343
 2215SOL     OW 6840   2.620   3.026   4.435  0.0938  0.1077 -0.1077
 2215SOL    HW1 6841   2.673   3.030   4.514  0.7085 -1.5384 -0.3886
 2215SOL    HW2 6842   2.542   2.977   4.461  0.6482 -1.1217 -0.6589
 2216SOL     OW 6843   2.238   2.755   1.761  0.3295  0.5419  0.0422
 2216SOL    HW1 6844   2.252   2.689   1.693 -1.3287  0.5427 -0.3587
 2216SOL    HW2 6845   2.325   2.771   1.798  0.7552 -2.0934  0.3965
 2217SOL     OW 6846   4.516   1.622   3.256 -0.7849  0.1437 -0.2044
 2217SOL    HW1 6847   4.448   1.597   3.194  0.0757  0.8613 -1.4874
 2217SOL    HW2 6848   4.581   1.669   3.203  1.2687 -1.4809  0.7053
 2218SOL     OW 6849   3.167   2.714   2.771  0.4209  0.3960  0.3897
 2218SOL    HW1 6850   3.243   2.764   2.741  1.1437 -0.1999  1.2056
 2218SOL    HW2 6851   3.158   2.735   2.863 -0.0830  0.0432  0.4277
 2219SOL     OW 6852   0.827   2.531   0.734  0.1683 -0.1125  0.4898
 2219SOL    HW1 6853   0.918   2.540   0.763  0.3065  1.0040 -0.2662
 2219SOL    HW2 6854   0.804   2.616   0.698 -0.9267 -0.6217 -0.0671
 2220SOL     OW 6855   0.816   0.261   4.619  0.4095  0.3003 -0.0757
 2220SOL    HW1 6856   0.909   0.263   4.640  0.8211  0.3872 -1.7624
 2220SOL    HW2 6857   0.797   0.350   4.589 -0.4710  0.5552  1.1467
 2221SOL     OW 6858   1.856   4.897   0.937  0.6594  0.3729 -0.0614
 2221SOL    HW1 6859   1.818   4.812   0.915  1.8074 -0.2918  0.4250
 2221SOL    HW2 6860   1.817   4.957   0.874  0.3800 -0.6493 -0.9037
 2222SOL     OW 6861   0.904   0.858   4.553  0.0406  0.2144 -0.3919
 2222SOL    HW1 6862   0.896   0.951   4.575  1.1437 -0.0139  1.1656
 2222SOL    HW2 6863   0.992   0.834   4.582  0.1990 -1.0766 -1.7844
 2223SOL     OW 6864   0.938   1.789   2.390 -0.1183  0.1451 -0.2956
 2223SOL    HW1 6865   1.006   1.748   2.337 -0.1808 -0.0843 -0.1978
 2223SOL    HW2 6866   0.945   1.883   2.369  1.4958  0.3873  1.1401
 2224SOL     OW 6867   0.005   2.575   1.059 -0.4354  0.0213  0.1596
 2224SOL    HW1 6868  -0.009   2.588   0.965  0.9772  2.4709  0.2181
 2224SOL    HW2 6869   0.074   2.509   1.064  1.6695  2.0143 -0.7086
 2225SOL     OW 6870   2.911   0.134   4.096  0.5168  0.2880  0.4395
 2225SOL    HW1 6871   2.890   0.113   4.005  1.0208  0.5540  0.2595
 2225SOL    HW2 6872   2.930   0.228   4.096  2.1694 -0.0180  0.4991
 2226SOL     OW 6873   4.782   3.985   0.062  0.3253  0.0919  0.3295
 2226SOL    HW1 6874   4.699   3.937   0.072  0.5407 -0.4161 -0.2673
 2226SOL    HW2 6875   4.831   3.963   0.141 -0.9912  2.2420  1.8438
 2227SOL     OW 6876   1.585   3.102   4.243  0.7389 -0.1584 -0.4487
 2227SOL    HW1 6877   1.515   3.049   4.204  1.1898  0.3332 -1.9761
 2227SOL    HW2 6878   1.639   3.039   4.291  0.2330 -0.7913 -0.6938
 2228SOL     OW 6879   0.078   2.295   2.510 -0.2228 -0.1722 -0.2184
 2228SOL    HW1 6880   0.118   2.379   2.528 -1.2078  0.0717  0.9343
 2228SOL    HW2 6881   0.141   2.230   2.542  1.3558 -0.0084 -2.6908
 2229SOL     OW 6882   1.276   1.791   2.015  0.1793 -0.0959 -0.5197
 2229SOL    HW1 6883   1.313   1.703   2.023  0.7413  0.1126 -0.7996
 2229SOL    HW2 6884   1.207   1.794   2.082  2.2226  0.3038  1.7382
 2230SOL     OW 6885   1.769   0.681   2.925  0.0085  0.3440  0.3136
 2230SOL    HW1 6886   1.802   0.596   2.954 -1.2822  0.2867  1.6985
 2230SOL    HW2 6887   1.826   0.745   2.967  0.3674  0.1893  0.0661
 2231SOL     OW 6888   0.978   4.470   3.613  0.0256 -0.5226 -0.0355
 2231SOL    HW1 6889   0.960   4.523   3.691 -0.8352 -1.0481  0.1467
 2231SOL    HW2 6890   0.933   4.387   3.631 -2.0036  0.0690 -1.9779
 2232SOL     OW 6891   2.681   4.366   1.977  0.0952 -0.3637  0.3007
 2232SOL    HW1 6892   2.750   4.417   1.935 -0.8811 -0.1015 -1.0812
 2232SOL    HW2 6893   2.688   4.279   1.938  0.4157 -0.6929  1.0747
 2233SOL     OW 6894   0.428   1.366   0.077  0.1605 -0.3251  0.1005
 2233SOL    HW1 6895   0.426   1.443   0.133  0.3261 -0.0128 -0.3180
 2233SOL    HW2 6896   0.445   1.400  -0.011  0.4532 -0.8554 -0.0564
 2234SOL     OW 6897   3.418   1.436   2.300 -0.1139 -0.2207  0.6785
 2234SOL    HW1 6898   3.487   1.452   2.365  0.6101 -0.8080  0.0848
 2234SOL    HW2 6899   3.385   1.349   2.321 -0.6659  0.0488  0.9442
 2235SOL     OW 6900   4.846   1.246   2.329  0.4382  0.1969 -0.7728
 2235SOL    HW1 6901   4.765   1.202   2.356  0.8339  0.5742  1.2364
 2235SOL    HW2 6902   4.916   1.189   2.361  0.9569  0.6512 -1.0819
 2236SOL     OW 6903   4.221   2.912   4.708  0.2782  0.3553  0.4813
 2236SOL    HW1 6904   4.249   3.003   4.704 -0.4935  0.5661 -0.3660
 2236SOL    HW2 6905   4.257   2.871   4.630 -0.2941  0.2015  0.2930
 2237SOL     OW 6906   2.943   0.479   2.913  0.6284 -0.1208  0.2241
 2237SOL    HW1 6907   2.929   0.572   2.894 -0.0487 -0.0518  1.0215
 2237SOL    HW2 6908   2.910   0.433   2.836 -0.3742  0.2348  0.4301
 2238SOL     OW 6909   2.410   4.233   3.218 -0.0778  0.0462 -0.0324
 2238SOL    HW1 6910   2.430   4.326   3.206 -1.6118  0.4478  0.2637
 2238SOL    HW2 6911   2.482   4.199   3.271  1.4432  0.6256 -1.6583
 2239SOL     OW 6912   1.514   1.551   3.111  0.1092 -0.6425 -0.2542
 2239SOL    HW1 6913   1.443   1.491   3.134  0.2219 -0.9172 -0.6013
 2239SOL    HW2 6914   1.577   1.496   3.064  0.6618 -0.4543  0.2475
 2240SOL     OW 6915   4.532   0.397   2.582 -0.5161  0.1980 -0.0384
 2240SOL    HW1 6916   4.563   0.449   2.656 -0.0309  0.1544 -0.2063
 2240SOL    HW2 6917   4.588   0.423   2.509  0.8099 -1.6805  0.2288
 2241SOL     OW 6918   3.490   3.347   3.178 -0.4954 -0.0838 -0.2354
 2241SOL    HW1 6919   3.402   3.363   3.211 -0.2446  1.3571 -0.2118
 2241SOL    HW2 6920   3.548   3.387   3.242  0.0648  1.2339 -1.5128
 2242SOL     OW 6921   3.513   0.572   0.378 -0.0070 -0.5548 -0.8522
 2242SOL    HW1 6922   3.470   0.637   0.434 -0.9252 -1.7662 -0.1096
 2242SOL    HW2 6923   3.442   0.535   0.325 -0.0171 -2.7359  0.5440
 2243SOL     OW 6924   4.706   4.478   3.110 -0.1609 -0.2214 -0.0567
 2243SOL    HW1 6925   4.728   4.385   3.100 -1.2402 -0.5081  0.0447
 2243SOL    HW2 6926   4.788   4.520   3.134  0.6868 -0.9108 -1.5655
 2244SOL     OW 6927   2.371   1.256   1.824  0.5967  0.1000  0.0224
 2244SOL    HW1 6928   2.430   1.256   1.748  0.5126  2.4563 -0.1086
 2244SOL    HW2 6929   2.296   1.204   1.796  2.3199 -2.6556  0.0551
 2245SOL     OW 6930   1.531   3.022   2.056 -0.1178 -0.0247  0.1762
 2245SOL    HW1 6931   1.469   3.074   2.004  1.2721  1.0854 -0.4470
 2245SOL    HW2 6932   1.528   2.935   2.016 -1.2988 -0.0176  0.1984
 2246SOL     OW 6933   4.844   3.598   0.973 -0.6596  0.1650 -0.1880
 2246SOL    HW1 6934   4.935   3.585   0.947 -0.7927 -0.8557 -0.1653
 2246SOL    HW2 6935   4.795   3.533   0.924 -1.5364  1.3815 -0.9925
 2247SOL     OW 6936   3.188   4.564   1.757 -0.2695 -0.3207  0.1820
 2247SOL    HW1 6937   3.102   4.573   1.716  1.2392  1.6472 -2.8812
 2247SOL    HW2 6938   3.225   4.485   1.718  1.0615  1.4116 -2.3799
 2248SOL     OW 6939   3.189   2.058   3.757  0.1118  0.1165 -0.2943
 2248SOL    HW1 6940   3.278   2.066   3.722  0.1765 -2.1647 -0.8135
 2248SOL    HW2 6941   3.133   2.059   3.679 -0.2709  0.8884 -0.0160
 2249SOL     OW 6942   3.658   1.541   4.918 -0.1314 -0.5525  0.5888
 2249SOL    HW1 6943   3.576   1.573   4.882 -0.3861  0.3671  1.9094
 2249SOL    HW2 6944   3.683   1.607   4.983  2.3804 -0.0399 -0.7264
 2250SOL     OW 6945   2.853   1.413   1.857  0.2467 -0.2073  0.3300
 2250SOL    HW1 6946   2.936   1.428   1.903  0.5065 -0.6956  0.0225
 2250SOL    HW2 6947   2.832   1.497   1.817  0.9471 -0.2649 -0.1695
 2251SOL     OW 6948   4.156   3.062   1.500 -0.4142 -0.4719 -0.3354
 2251SOL    HW1 6949   4.125   3.089   1.413  1.8766 -0.2102 -1.1272
 2251SOL    HW2 6950   4.186   3.144   1.540  1.7829 -1.0312 -0.7237
 2252SOL     OW 6951   4.308   2.983   4.057 -0.4496 -0.2789  0.2643
 2252SOL    HW1 6952   4.317   2.975   4.152  1.8296  1.3289  0.2551
 2252SOL    HW2 6953   4.335   3.072   4.037 -2.2834 -0.0892 -1.7931
 2253SOL     OW 6954   4.268   0.500   4.342 -0.2266  0.2181 -0.1942
 2253SOL    HW1 6955   4.361   0.522   4.346 -0.9428  3.6322  0.7330
 2253SOL    HW2 6956   4.265   0.405   4.353  3.0661  0.1096  0.7079
 2254SOL     OW 6957   4.368   4.567   0.756 -0.4476  0.4639  0.1865
 2254SOL    HW1 6958   4.459   4.595   0.769 -0.2372  0.2332 -0.7341
 2254SOL    HW2 6959   4.368   4.474   0.776 -0.1367  0.1218 -1.2691
 2255SOL     OW 6960   4.759   4.845   2.746 -0.2254  0.5995 -0.7231
 2255SOL    HW1 6961   4.699   4.919   2.756 -1.2507  0.1352 -2.8079
 2255SOL    HW2 6962   4.704   4.774   2.713  0.9232 -0.8197  0.2902
 2256SOL     OW 6963   0.393   1.206   1.391 -0.6763  0.4794  0.0591
 2256SOL    HW1 6964   0.386   1.237   1.482  1.0783 -1.8185  1.0898
 2256SOL    HW2 6965   0.450   1.130   1.397  0.9242  1.2710 -3.2765
 2257SOL     OW 6966   4.804   4.882   1.268 -0.1505  0.5818  0.0119
 2257SOL    HW1 6967   4.809   4.957   1.327  2.0111  0.5314 -0.0281
 2257SOL    HW2 6968   4.874   4.824   1.297  0.3888  0.1296 -2.0070
 2258SOL     OW 6969   3.965   0.105   3.253 -0.4578  0.2584 -0.0833
 2258SOL    HW1 6970   3.921   0.106   3.168 -1.6585 -2.3900  0.4078
 2258SOL    HW2 6971   3.965   0.196   3.281  0.4242  1.3018 -3.1050
 2259SOL     OW 6972   3.947   1.175   2.461  0.0550 -0.4396 -0.1570
 2259SOL    HW1 6973   3.862   1.207   2.431  0.7028  1.6954  0.0915
 2259SOL    HW2 6974   3.930   1.142   2.549 -1.0432 -2.8784 -1.1817
 2260SOL     OW 6975   1.113   4.382   0.617  0.1394 -0.2905  0.1695
 2260SOL    HW1 6976   1.154   4.379   0.704  0.5161  1.2535  0.0586
 2260SOL    HW2 6977   1.159   4.451   0.570 -0.5236 -0.6341 -1.0449
 2261SOL     OW 6978   4.416   2.781   0.967 -0.2316  0.1756  0.7143
 2261SOL    HW1 6979   4.423   2.840   1.042  1.5567 -2.1046  2.5304
 2261SOL    HW2 6980   4.324   2.756   0.965 -0.3877  0.5728  1.9640
 2262SOL     OW 6981   4.372   4.464   3.279 -0.1382 -0.2535 -0.3368
 2262SOL    HW1 6982   4.392   4.380   3.238  1.1942  0.2022 -0.6627
 2262SOL    HW2 6983   4.394   4.529   3.212  0.9484  0.4481  0.6685
 2263SOL     OW 6984   0.771   4.577   2.993 -0.1785  0.2068  0.0123
 2263SOL    HW1 6985   0.783   4.582   3.088 -1.4005 -0.5273  0.2288
 2263SOL    HW2 6986   0.827   4.646   2.958 -1.0999  1.7142  1.3805
 2264SOL     OW 6987   0.612   4.682   1.579 -0.4976  0.6442 -0.0036
 2264SOL    HW1 6988   0.562   4.647   1.505 -0.0075 -2.4206  1.0053
 2264SOL    HW2 6989   0.697   4.707   1.541 -0.3243 -0.7012 -0.5341
 2265SOL     OW 6990   3.401   3.124   1.604  0.1928 -0.1212  0.0344
 2265SOL    HW1 6991   3.462   3.115   1.531  0.6542 -0.9210  0.5011
 2265SOL    HW2 6992   3.456   3.114   1.682 -0.1415  1.5699  0.5343
 2266SOL     OW 6993   0.881   1.678   4.232 -0.1419  0.0110 -0.1466
 2266SOL    HW1 6994   0.791   1.669   4.264 -0.7410  0.8643 -1.4849
 2266SOL    HW2 6995   0.874   1.662   4.138  1.3870 -1.4171 -0.0456
 2267SOL     OW 6996   3.841   2.830   0.069  0.4374 -0.3439 -0.3371
 2267SOL    HW1 6997   3.933   2.832   0.043  0.7623 -0.3166  0.7484
 2267SOL    HW2 6998   3.843   2.816   0.164 -0.6532  0.9959 -0.0867
 2268SOL     OW 6999   3.663   1.076   3.823 -0.3991  0.0604 -0.5495
 2268SOL    HW1 7000   3.603   1.057   3.751 -3.5390  1.8212  1.3582
 2268SOL    HW2 7001   3.671   0.992   3.869 -0.0288 -0.5736 -1.7112
 2269SOL     OW 7002   0.242   1.983   2.036  0.0853 -0.3974 -0.5081
 2269SOL    HW1 7003   0.265   2.066   1.995  0.1167  0.0181  0.3368
 2269SOL    HW2 7004   0.190   2.007   2.113 -0.9380 -1.2078 -0.9205
 2270SOL     OW 7005   3.529   4.579   1.574 -0.5801  0.0013  0.3795
 2270SOL    HW1 7006   3.556   4.535   1.494  2.5043 -0.6085  1.6214
 2270SOL    HW2 7007   3.507   4.668   1.546 -1.5161 -0.7251 -1.3623
 2271SOL     OW 7008   3.735   1.380   1.178 -0.3941 -0.0142  0.2270
 2271SOL    HW1 7009   3.814   1.327   1.166 -0.6091 -0.2350 -0.2367
 2271SOL    HW2 7010   3.767   1.464   1.212  0.3279  0.8020 -2.2382
 2272SOL     OW 7011   0.144   2.053   3.183  0.1271  0.5761 -0.8044
 2272SOL    HW1 7012   0.145   2.096   3.268  0.9216  1.4088 -1.2128
 2272SOL    HW2 7013   0.178   1.965   3.200  1.4830  1.1410 -0.4429
 2273SOL     OW 7014   4.578   0.131   1.350 -0.4111 -0.5594 -0.0692
 2273SOL    HW1 7015   4.611   0.220   1.337 -2.7530  0.6671  1.5715
 2273SOL    HW2 7016   4.491   0.132   1.310 -0.3359 -2.2494 -0.3411
 2274SOL     OW 7017   4.474   2.851   2.523 -0.1588  0.2163  0.1350
 2274SOL    HW1 7018   4.528   2.900   2.585  0.8635  0.5135 -0.9448
 2274SOL    HW2 7019   4.525   2.853   2.442 -1.9983  0.9038 -1.0569
 2275SOL     OW 7020   2.220   1.409   3.831 -0.3184  0.0954  0.7834
 2275SOL    HW1 7021   2.205   1.488   3.779 -0.1121  0.0247  0.6146
 2275SOL    HW2 7022   2.315   1.405   3.841 -0.2987 -0.3491  0.4503
 2276SOL     OW 7023   3.035   1.634   0.526  0.1580  0.0643  0.1451
 2276SOL    HW1 7024   3.037   1.697   0.454 -0.9437  0.1657  0.1858
 2276SOL    HW2 7025   3.071   1.683   0.601  2.2234 -0.3399 -0.5106
 2277SOL     OW 7026   1.396   1.073   2.687  0.8071  0.2995 -0.2163
 2277SOL    HW1 7027   1.387   1.070   2.783  2.9131  0.0490  0.0157
 2277SOL    HW2 7028   1.306   1.080   2.655  0.0299  0.0631  1.7659
 2278SOL     OW 7029   1.997   3.991   3.777 -0.0657  0.1549  0.3638
 2278SOL    HW1 7030   2.044   4.048   3.716  0.5591 -0.0980  0.6000
 2278SOL    HW2 7031   1.971   3.916   3.724 -0.6022  0.4968  0.1299
 2279SOL     OW 7032   2.090   4.128   1.491 -0.3600 -0.0583  0.0347
 2279SOL    HW1 7033   2.173   4.162   1.525  1.2516 -1.6071 -2.0888
 2279SOL    HW2 7034   2.055   4.200   1.439  0.5007  0.0543 -0.4040
 2280SOL     OW 7035   1.613   4.726   4.000  0.0460  0.3138 -0.6922
 2280SOL    HW1 7036   1.554   4.794   4.032 -1.6491 -1.3169 -0.1701
 2280SOL    HW2 7037   1.558   4.648   3.993  1.6153 -0.7088 -2.5139
 2281SOL     OW 7038   4.816   0.044   2.315 -0.1370  0.6706 -0.8121
 2281SOL    HW1 7039   4.888   0.043   2.253 -0.2945 -0.6831 -1.0098
 2281SOL    HW2 7040   4.802  -0.048   2.337  0.6342  1.1554  2.0844
 2282SOL     OW 7041   0.336   2.069   0.112  0.5852  0.1250 -0.7238
 2282SOL    HW1 7042   0.253   2.021   0.112  0.6301  0.0350  0.1929
 2282SOL    HW2 7043   0.384   2.036   0.187  0.8683  1.1671 -0.4225
 2283SOL     OW 7044   0.028   2.342   2.048  0.0284 -0.0669  0.4029
 2283SOL    HW1 7045   0.023   2.409   2.116 -1.9468  0.5687 -0.3077
 2283SOL    HW2 7046   0.049   2.391   1.968 -0.2564 -0.4633  0.0865
 2284SOL     OW 7047   4.113   1.971   2.347  0.5272 -0.1870 -0.6943
 2284SOL    HW1 7048   4.180   1.902   2.344 -0.3703 -1.0922 -0.6075
 2284SOL    HW2 7049   4.033   1.924   2.370  0.1748  1.1226  0.8991
 2285SOL     OW 7050   4.501   1.135   4.122 -0.0245 -0.4385  0.2977
 2285SOL    HW1 7051   4.581   1.092   4.092 -0.6566 -0.7411 -1.0931
 2285SOL    HW2 7052   4.530   1.215   4.164  0.9756  0.0270 -1.1911
 2286SOL     OW 7053   0.705   1.378   0.952 -0.7113 -0.7027 -0.2371
 2286SOL    HW1 7054   0.626   1.405   0.905 -1.4624  0.4662  1.5839
 2286SOL    HW2 7055   0.734   1.458   0.996  0.9748 -1.3497 -0.1198
 2287SOL     OW 7056   1.616   4.732   2.002  0.0062  0.2329  0.4604
 2287SOL    HW1 7057   1.622   4.793   2.076 -1.3523 -0.6931  1.3854
 2287SOL    HW2 7058   1.558   4.775   1.939  1.4742  1.1948 -0.2779
 2288SOL     OW 7059   3.013   2.518   2.051  0.4356 -0.0438 -0.3642
 2288SOL    HW1 7060   3.101   2.554   2.051  0.6775 -0.6047  0.3362
 2288SOL    HW2 7061   2.986   2.520   1.959  1.6710 -1.0115 -0.7793
 2289SOL     OW 7062   4.142   1.330   2.617 -0.0421  0.3022  0.4287
 2289SOL    HW1 7063   4.182   1.244   2.605 -0.0564  0.2973  0.4166
 2289SOL    HW2 7064   4.056   1.323   2.578 -0.1130  0.2672  0.5892
 2290SOL     OW 7065   2.338   3.646   3.895  0.2187 -0.3338  0.0919
 2290SOL    HW1 7066   2.358   3.571   3.951  0.2397 -0.3498  0.0630
 2290SOL    HW2 7067   2.291   3.706   3.953  1.2794  0.1746  0.4439
 2291SOL     OW 7068   0.571   0.417   0.973  0.2717  0.4106 -0.1165
 2291SOL    HW1 7069   0.627   0.478   1.022  2.0923 -0.4915 -0.9589
 2291SOL    HW2 7070   0.550   0.464   0.892 -1.5021  1.3276  0.8247
 2292SOL     OW 7071   4.155   1.011   3.172  0.3663 -0.3056  0.3158
 2292SOL    HW1 7072   4.175   0.949   3.102 -1.6762 -2.9823  1.8940
 2292SOL    HW2 7073   4.202   0.978   3.248  0.5689  1.0917  0.8150
 2293SOL     OW 7074   3.244   3.048   0.979 -0.0386  0.2388  0.0449
 2293SOL    HW1 7075   3.275   3.103   1.051 -1.3366  0.6108  0.3377
 2293SOL    HW2 7076   3.156   3.021   1.005  0.0413 -0.8494 -0.7295
 2294SOL     OW 7077   2.569   1.464   3.128  0.1998 -0.1394  0.5432
 2294SOL    HW1 7078   2.646   1.414   3.154 -0.7368 -1.7265  0.4314
 2294SOL    HW2 7079   2.541   1.509   3.207  0.3821 -0.7536  0.9593
 2295SOL     OW 7080   3.791   4.108   2.262 -0.4483 -0.4563  0.0485
 2295SOL    HW1 7081   3.700   4.135   2.276 -0.2297 -0.3568  1.4888
 2295SOL    HW2 7082   3.819   4.156   2.184 -2.1244 -1.7738 -1.4467
 2296SOL     OW 7083   0.620   0.188   4.784 -0.1153 -0.4940 -0.3307
 2296SOL    HW1 7084   0.601   0.102   4.748  1.6154 -0.3383 -1.7527
 2296SOL    HW2 7085   0.705   0.211   4.748  0.3385  1.0147  1.5151
 2297SOL     OW 7086   1.761   4.405   3.022 -0.8747  0.5210  0.2185
 2297SOL    HW1 7087   1.850   4.439   3.019 -1.5192  2.3597 -2.5500
 2297SOL    HW2 7088   1.731   4.420   3.111  0.7592  2.1949  0.5229
 2298SOL     OW 7089   3.893   3.257   2.302 -0.4548  0.0991  0.6220
 2298SOL    HW1 7090   3.890   3.317   2.227  1.4286  0.5243  0.8472
 2298SOL    HW2 7091   3.857   3.308   2.374  0.2060  0.6312  0.5857
 2299SOL     OW 7092   0.984   3.027   3.409 -0.1669  0.1672 -0.3863
 2299SOL    HW1 7093   0.960   2.970   3.483  1.4160  0.6254  0.5410
 2299SOL    HW2 7094   1.015   2.966   3.342  0.4606 -0.1564  0.1782
 2300SOL     OW 7095   1.005   1.988   1.978 -0.4580 -0.3715 -0.1560
 2300SOL    HW1 7096   0.996   2.041   1.899  2.0913  0.0370 -0.2623
 2300SOL    HW2 7097   0.990   1.898   1.950 -0.2907 -0.1520 -0.9626
 2301SOL     OW 7098   4.680   1.061   4.728 -0.6101 -0.0429  0.0209
 2301SOL    HW1 7099   4.632   0.994   4.677 -1.8492  0.1710  0.8514
 2301SOL    HW2 7100   4.642   1.144   4.699 -1.1788  0.0951  1.0982
 2302SOL     OW 7101   1.248   0.415   2.273 -0.2884 -0.8595 -0.1174
 2302SOL    HW1 7102   1.283   0.354   2.337 -1.8912 -1.4083  0.2958
 2302SOL    HW2 7103   1.167   0.447   2.313  1.1568  2.6351  0.2979
 2303SOL     OW 7104   1.027   1.776   2.957 -0.1781 -0.1471 -0.1243
 2303SOL    HW1 7105   0.960   1.803   3.020  0.5658 -0.0136  0.6235
 2303SOL    HW2 7106   1.098   1.741   3.011 -0.5722 -2.4604 -0.9994
 2304SOL     OW 7107   0.418   1.228   4.223 -0.2217 -0.3156 -0.7450
 2304SOL    HW1 7108   0.435   1.321   4.210 -0.7705 -0.4449 -2.7029
 2304SOL    HW2 7109   0.343   1.225   4.281 -1.5208  0.5626 -2.2930
 2305SOL     OW 7110   4.142   2.931   3.003  0.2850 -0.0861 -0.3089
 2305SOL    HW1 7111   4.108   2.842   3.014  3.1575 -1.0446  2.4102
 2305SOL    HW2 7112   4.212   2.938   3.068  0.2287  4.1956 -0.4037
 2306SOL     OW 7113   3.484   2.107   3.020  0.6463 -0.0877 -0.6717
 2306SOL    HW1 7114   3.451   2.036   2.964 -0.6238 -0.7386  0.8428
 2306SOL    HW2 7115   3.516   2.063   3.098  0.8778  0.9307 -0.1778
 2307SOL     OW 7116   0.727   2.269   1.866 -0.5118  0.3100 -0.1185
 2307SOL    HW1 7117   0.815   2.234   1.848 -0.3115  1.0521 -0.6479
 2307SOL    HW2 7118   0.725   2.279   1.961 -0.7828 -1.6206  0.1151
 2308SOL     OW 7119   3.330   4.700   0.908 -0.4149 -0.3515  0.1015
 2308SOL    HW1 7120   3.340   4.623   0.853 -0.0809 -0.5165  0.3944
 2308SOL    HW2 7121   3.409   4.752   0.892  1.6151 -2.1427  3.1964
 2309SOL     OW 7122   3.520   0.018   0.010 -0.0360 -0.4059 -0.3068
 2309SOL    HW1 7123   3.462   0.058  -0.055  0.4474 -0.0661 -0.5291
 2309SOL    HW2 7124   3.606   0.015  -0.032  0.3575  0.1294  0.4410
 2310SOL     OW 7125   4.412   2.063   4.804  0.7574  0.0052  0.3393
 2310SOL    HW1 7126   4.319   2.084   4.806  0.9677  0.9066  1.4843
 2310SOL    HW2 7127   4.426   2.021   4.719 -0.9883 -1.5395  0.7657
 2311SOL     OW 7128   0.086   1.152   2.054 -0.2221  0.8618 -0.4500
 2311SOL    HW1 7129   0.128   1.182   2.135 -1.5408  1.0399  0.2016
 2311SOL    HW2 7130   0.090   1.056   2.060 -0.6657  0.8713  0.0183
 2312SOL     OW 7131   4.533   0.618   2.205  0.0327 -0.2333  0.1717
 2312SOL    HW1 7132   4.498   0.705   2.227  0.6202  0.0871 -0.1188
 2312SOL    HW2 7133   4.594   0.599   2.276  1.8043  0.7276 -1.0104
 2313SOL     OW 7134   3.851   0.842   0.048  0.1483  0.7866  0.3995
 2313SOL    HW1 7135   3.778   0.812   0.102 -0.4724  1.9708  0.2610
 2313SOL    HW2 7136   3.915   0.772   0.053 -1.7202 -1.1824 -0.9717
 2314SOL     OW 7137   0.754   4.193   0.919  0.3858 -0.3583 -0.1171
 2314SOL    HW1 7138   0.744   4.167   0.827  2.7977  0.9045 -0.8276
 2314SOL    HW2 7139   0.682   4.253   0.935 -1.9577 -2.9374 -0.1328
 2315SOL     OW 7140   3.049   0.831   0.587 -0.3204  0.0877 -0.0246
 2315SOL    HW1 7141   3.113   0.865   0.524  1.0659 -1.6096  0.3594
 2315SOL    HW2 7142   3.087   0.850   0.672  0.0276 -1.4542  0.2014
 2316SOL     OW 7143   3.720   3.651   2.103  0.3133  0.1102  0.6014
 2316SOL    HW1 7144   3.660   3.710   2.057  2.2644  1.1532 -0.7374
 2316SOL    HW2 7145   3.807   3.678   2.074  1.5255 -0.7205  3.2053
 2317SOL     OW 7146   1.197   0.365   1.050  0.3438 -0.1758  0.3164
 2317SOL    HW1 7147   1.236   0.278   1.057  0.8755 -0.0424 -0.8425
 2317SOL    HW2 7148   1.195   0.384   0.956 -0.0757  0.9267  0.5252
 2318SOL     OW 7149   0.176   1.608   0.925 -0.0632 -0.6844 -0.1548
 2318SOL    HW1 7150   0.161   1.672   0.855  1.1405  1.1103  1.1228
 2318SOL    HW2 7151   0.102   1.548   0.919 -1.8922  1.4802 -0.7520
 2319SOL     OW 7152   2.943   2.895   0.367  0.4330 -1.0071  0.3091
 2319SOL    HW1 7153   2.881   2.951   0.415  0.1155 -0.8874 -0.2390
 2319SOL    HW2 7154   2.930   2.917   0.275  2.1549 -0.0839  0.2471
 2320SOL     OW 7155   2.310   0.839   0.215  0.4929 -0.4330 -0.0737
 2320SOL    HW1 7156   2.350   0.899   0.152  0.3511 -1.0077 -0.7196
 2320SOL    HW2 7157   2.247   0.789   0.165 -1.3924  0.7402  1.0250
 2321SOL     OW 7158   2.064   3.689   0.645 -0.1808  0.2557 -0.2491
 2321SOL    HW1 7159   2.066   3.687   0.741  1.6764 -0.5701 -0.2483
 2321SOL    HW2 7160   2.097   3.776   0.622 -0.8926  0.5573 -0.1539
 2322SOL     OW 7161   4.756   4.149   0.542 -0.1295  0.2657  0.0473
 2322SOL    HW1 7162   4.791   4.199   0.468  0.5627 -0.7217 -0.3075
 2322SOL    HW2 7163   4.690   4.091   0.503  0.7746 -0.8024  0.0649
 2323SOL     OW 7164   2.188   1.541   4.512 -0.3634 -0.0331 -0.1075
 2323SOL    HW1 7165   2.261   1.538   4.575  0.8949 -0.4652 -1.5439
 2323SOL    HW2 7166   2.134   1.465   4.534  1.2704 -1.5008 -0.9179
 2324SOL     OW 7167   2.705   3.424   3.967  0.4568 -0.6598 -0.3767
 2324SOL    HW1 7168   2.684   3.471   4.047 -0.2374  0.7318 -1.3330
 2324SOL    HW2 7169   2.625   3.376   3.946  0.4296 -0.5310 -0.5659
 2325SOL     OW 7170   3.888   4.747   1.113 -0.1015  0.1360 -0.0888
 2325SOL    HW1 7171   3.831   4.792   1.175  0.0185  0.5881 -0.3003
 2325SOL    HW2 7172   3.977   4.766   1.144 -0.0633 -0.4629  0.1693
 2326SOL     OW 7173   1.099   4.551   3.893  0.1125  0.1844  0.1929
 2326SOL    HW1 7174   1.172   4.514   3.843 -1.7110  0.2352 -2.7637
 2326SOL    HW2 7175   1.106   4.645   3.878  2.3325  0.9399  4.3039
 2327SOL     OW 7176   3.367   0.022   2.214  0.2391  0.0789  0.2930
 2327SOL    HW1 7177   3.368   0.106   2.168  1.4441 -0.2916 -0.3755
 2327SOL    HW2 7178   3.276   0.012   2.243 -0.5393  0.3608 -1.9233
 2328SOL     OW 7179   0.996   4.934   0.512  0.5505 -0.7334 -0.6115
 2328SOL    HW1 7180   0.935   4.979   0.570 -0.0375 -1.4114 -0.6837
 2328SOL    HW2 7181   1.082   4.960   0.543  0.2384 -0.6489  0.2212
 2329SOL     OW 7182   1.835   4.636   0.839  0.0396  0.2417  0.4502
 2329SOL    HW1 7183   1.821   4.592   0.922 -1.3927  1.3901  0.8741
 2329SOL    HW2 7184   1.929   4.631   0.824 -0.0679 -3.2196  0.2595
 2330SOL     OW 7185   1.102   4.827   4.044  0.1723 -0.2834 -0.2692
 2330SOL    HW1 7186   1.026   4.804   3.991 -0.5654  0.3817  0.4874
 2330SOL    HW2 7187   1.096   4.771   4.121  0.0678  0.2509  0.1145
 2331SOL     OW 7188   2.549   3.608   4.136 -0.0193 -0.3497 -0.4165
 2331SOL    HW1 7189   2.577   3.604   4.228  0.2662  0.9800 -0.4219
 2331SOL    HW2 7190   2.475   3.547   4.131 -1.0608  0.7012  1.1048
 2332SOL     OW 7191   0.719   3.700   3.511 -0.0773 -0.4398 -0.0767
 2332SOL    HW1 7192   0.784   3.629   3.510  2.1725  1.5035 -0.2246
 2332SOL    HW2 7193   0.763   3.773   3.554 -1.4772  1.5897 -1.8396
 2333SOL     OW 7194   3.797   4.697   0.874  0.4504 -0.8079  0.1274
 2333SOL    HW1 7195   3.871   4.742   0.832  0.4673 -1.2921 -0.3700
 2333SOL    HW2 7196   3.812   4.708   0.967  0.2512  0.5670  0.0202
 2334SOL     OW 7197   1.426   3.572   0.139 -0.0208 -0.7490  0.4670
 2334SOL    HW1 7198   1.516   3.598   0.154  0.6228 -2.7755  0.4232
 2334SOL    HW2 7199   1.428   3.476   0.136 -2.0129 -0.8331 -0.5137
 2335SOL     OW 7200   3.519   4.103   4.596  0.0690  0.8302  0.1120
 2335SOL    HW1 7201   3.544   4.185   4.553 -1.3282  1.1790 -0.0759
 2335SOL    HW2 7202   3.445   4.127   4.652  0.6514  0.0046  1.2683
 2336SOL     OW 7203   2.243   0.558   3.398 -0.1909 -0.3563  0.1639
 2336SOL    HW1 7204   2.254   0.579   3.306 -1.2289 -0.7207 -0.0666
 2336SOL    HW2 7205   2.290   0.627   3.445 -0.0851  0.1184 -0.6265
 2337SOL     OW 7206   3.862   4.136   2.843 -0.4952  0.0670 -0.1519
 2337SOL    HW1 7207   3.955   4.143   2.823 -0.0671 -0.7652  1.4214
 2337SOL    HW2 7208   3.837   4.050   2.809 -0.3306 -0.3345  0.7270
 2338SOL     OW 7209   0.013   1.149   0.623  0.2602  0.8820 -0.9945
 2338SOL    HW1 7210  -0.016   1.238   0.603  2.7625  2.1032  0.2456
 2338SOL    HW2 7211   0.023   1.148   0.718  0.6556 -0.6069 -1.0265
 2339SOL     OW 7212   2.298   2.016   1.238 -0.1859 -0.0131  0.3050
 2339SOL    HW1 7213   2.255   2.045   1.157  1.2977 -0.3513 -0.6304
 2339SOL    HW2 7214   2.389   2.000   1.213 -0.1830 -2.2782  1.5169
 2340SOL     OW 7215   3.540   4.569   2.896  0.0157 -0.4238 -0.1467
 2340SOL    HW1 7216   3.591   4.610   2.966  0.9737  0.8536 -1.5507
 2340SOL    HW2 7217   3.469   4.524   2.943  0.2708  0.8805  1.6271
 2341SOL     OW 7218   1.398   4.330   3.356 -0.5299  0.2556  0.8122
 2341SOL    HW1 7219   1.370   4.251   3.310 -0.4841  1.1675 -0.8478
 2341SOL    HW2 7220   1.318   4.365   3.395 -0.7400 -0.0248  0.6311
 2342SOL     OW 7221   1.902   4.688   1.610 -0.5033  0.7782  0.1955
 2342SOL    HW1 7222   1.922   4.709   1.519  0.8756  0.6162  0.4262
 2342SOL    HW2 7223   1.910   4.593   1.615 -0.7839  0.7675  0.4396
 2343SOL     OW 7224   1.161   3.375   2.393 -0.0742  0.1755  0.1894
 2343SOL    HW1 7225   1.248   3.336   2.392  0.3744  1.1108  0.8966
 2343SOL    HW2 7226   1.130   3.368   2.303  0.7207 -0.2070 -0.0587
 2344SOL     OW 7227   3.422   1.689   1.812 -0.1374  0.0474 -0.0058
 2344SOL    HW1 7228   3.382   1.615   1.768  0.1193 -0.2161  0.2046
 2344SOL    HW2 7229   3.369   1.764   1.784  0.9940  0.1558 -2.1165
 2345SOL     OW 7230   1.256   2.713   0.222  0.6156  0.0646 -0.3109
 2345SOL    HW1 7231   1.238   2.674   0.308  1.1634 -1.3627 -0.8145
 2345SOL    HW2 7232   1.322   2.779   0.239 -1.2752  1.7911  0.7692
 2346SOL     OW 7233   3.449   0.541   1.273  0.6086  0.5327  0.7919
 2346SOL    HW1 7234   3.540   0.541   1.244  0.5611 -0.6407  0.6057
 2346SOL    HW2 7235   3.405   0.482   1.212 -0.2868  1.1047  0.8744
 2347SOL     OW 7236   2.093   4.462   4.284  0.1291  0.5371 -0.3718
 2347SOL    HW1 7237   2.175   4.508   4.300  1.0921 -1.1008 -0.3921
 2347SOL    HW2 7238   2.120   4.376   4.253 -1.5999 -0.2157  0.1124
 2348SOL     OW 7239   1.700   2.386   4.143  0.3487  0.0028  0.1647
 2348SOL    HW1 7240   1.780   2.372   4.092 -0.6836 -0.7024 -1.3649
 2348SOL    HW2 7241   1.682   2.479   4.134 -1.1361 -0.4539 -3.0177
 2349SOL     OW 7242   2.044   0.707   4.007 -0.4482 -0.9713 -0.3564
 2349SOL    HW1 7243   2.000   0.785   3.974 -0.6721 -1.0629 -0.2737
 2349SOL    HW2 7244   2.046   0.647   3.933  0.0433 -0.7548 -0.5257
 2350SOL     OW 7245   1.246   1.882   4.231  0.6262  0.3028  0.5843
 2350SOL    HW1 7246   1.235   1.887   4.136  1.3494 -0.8931  0.4240
 2350SOL    HW2 7247   1.160   1.906   4.266  0.5392  1.4402 -0.3345
 2351SOL     OW 7248   2.334   1.946   0.275  0.2082 -0.1283 -0.0554
 2351SOL    HW1 7249   2.306   1.890   0.202 -1.3510  0.8093 -0.2175
 2351SOL    HW2 7250   2.342   1.886   0.349  0.7144 -0.9086 -0.7251
 2352SOL     OW 7251   3.480   2.072   0.544  0.0032 -0.1802 -0.0046
 2352SOL    HW1 7252   3.477   2.167   0.541  0.3690 -0.1313  0.9981
 2352SOL    HW2 7253   3.562   2.052   0.589 -0.3016 -0.9576  0.2212
 2353SOL     OW 7254   4.041   3.803   0.582  0.0527 -0.4740 -0.1948
 2353SOL    HW1 7255   4.034   3.824   0.489  0.1541  2.7768  0.4037
 2353SOL    HW2 7256   4.131   3.826   0.605 -0.9050  2.2095  1.3144
 2354SOL     OW 7257   3.575   2.137   4.627  0.4210  0.2778 -0.0629
 2354SOL    HW1 7258   3.481   2.122   4.640  0.6708 -1.5722 -0.1593
 2354SOL    HW2 7259   3.595   2.093   4.545  1.4300  0.4939  0.0626
 2355SOL     OW 7260   3.401   0.790   4.499 -0.5648  0.0274 -0.2873
 2355SOL    HW1 7261   3.495   0.799   4.514 -0.5514 -0.8382  0.2288
 2355SOL    HW2 7262   3.394   0.756   4.410 -0.3903  0.1235 -0.3388
 2356SOL     OW 7263   3.407   0.847   1.010 -0.1603  0.5145  0.1848
 2356SOL    HW1 7264   3.432   0.936   1.034  1.5300  0.2356 -0.4056
 2356SOL    HW2 7265   3.344   0.821   1.077 -0.9207  2.2407  0.1996
 2357SOL     OW 7266   0.022   4.793   4.248 -0.4180 -0.1509  0.1862
 2357SOL    HW1 7267  -0.001   4.718   4.303  1.9381 -1.6720 -0.7514
 2357SOL    HW2 7268   0.108   4.821   4.279 -0.6001  1.1990 -0.4690
 2358SOL     OW 7269   1.837   1.089   0.008  0.1297 -0.0975  0.2032
 2358SOL    HW1 7270   1.918   1.066   0.053 -0.2848 -1.0130  0.5245
 2358SOL    HW2 7271   1.865   1.114  -0.080  0.6737 -1.7599 -0.1430
 2359SOL     OW 7272   0.448   1.633   3.441  0.0698 -0.1373  0.2085
 2359SOL    HW1 7273   0.484   1.545   3.427  0.6281  0.1552 -0.2056
 2359SOL    HW2 7274   0.510   1.692   3.399 -0.3603  0.4545  0.3872
 2360SOL     OW 7275   2.595   0.751   3.648  0.1657  0.1492 -0.1129
 2360SOL    HW1 7276   2.645   0.729   3.727 -1.6314 -0.3424  0.9442
 2360SOL    HW2 7277   2.649   0.815   3.603  1.7773 -0.4221  0.9258
 2361SOL     OW 7278   2.087   1.474   4.194 -0.6879 -0.1308  0.0640
 2361SOL    HW1 7279   2.130   1.547   4.148 -1.0762  0.1487  0.1409
 2361SOL    HW2 7280   2.073   1.507   4.283 -0.1832 -0.5729  0.3121
 2362SOL     OW 7281   3.147   0.809   1.719 -0.0626  0.2315  0.1607
 2362SOL    HW1 7282   3.235   0.771   1.720 -0.3816 -0.5810 -0.9084
 2362SOL    HW2 7283   3.092   0.740   1.755 -0.5423 -0.0624 -1.0944
 2363SOL     OW 7284   3.908   4.835   4.541 -0.6385  0.4538  0.5390
 2363SOL    HW1 7285   3.866   4.756   4.506 -0.3902 -0.1876  1.6332
 2363SOL    HW2 7286   4.001   4.821   4.524 -0.6901  1.0144 -0.2251
 2364SOL     OW 7287   1.512   1.031   2.187  0.5118  0.0869  0.6856
 2364SOL    HW1 7288   1.443   0.984   2.233  0.1039  1.9983  2.1436
 2364SOL    HW2 7289   1.508   0.998   2.097  0.7867 -3.1669  1.7413
 2365SOL     OW 7290   3.567   4.897   3.972  0.2392 -0.1888 -0.2410
 2365SOL    HW1 7291   3.502   4.869   4.036  0.5028 -0.2087  0.0190
 2365SOL    HW2 7292   3.597   4.816   3.930 -2.9719  0.0203 -3.4261
 2366SOL     OW 7293   1.543   1.729   2.507  0.5192 -0.3421  0.4613
 2366SOL    HW1 7294   1.496   1.647   2.490  0.2802 -0.1611  0.2588
 2366SOL    HW2 7295   1.599   1.740   2.430 -1.3574  1.0476 -0.7592
 2367SOL     OW 7296   2.347   3.835   1.992 -0.5090 -0.2586 -0.5130
 2367SOL    HW1 7297   2.341   3.850   1.897  0.4333  0.8266 -0.4194
 2367SOL    HW2 7298   2.272   3.882   2.028  0.2111  0.9826 -0.5754
 2368SOL     OW 7299   1.409   4.796   4.434 -0.1061 -0.0226 -0.3430
 2368SOL    HW1 7300   1.331   4.852   4.429  0.1342  0.2067 -1.6388
 2368SOL    HW2 7301   1.454   4.826   4.513 -1.1216  0.0989  0.2162
 2369SOL     OW 7302   4.421   3.838   3.542 -0.2368 -0.0450 -0.1244
 2369SOL    HW1 7303   4.422   3.932   3.521  1.1472 -0.2172 -0.8709
 2369SOL    HW2 7304   4.408   3.836   3.637  1.0978  0.9525  0.1029
 2370SOL     OW 7305   2.852   2.154   1.461  0.0934 -0.1779 -0.0556
 2370SOL    HW1 7306   2.842   2.109   1.545  0.0316  0.7148  0.4223
 2370SOL    HW2 7307   2.937   2.198   1.467 -0.1074  0.2479 -0.2790
 2371SOL     OW 7308   0.305   2.703   3.163 -0.3039  0.2654  0.7712
 2371SOL    HW1 7309   0.300   2.621   3.213 -1.0654 -0.8589 -1.0283
 2371SOL    HW2 7310   0.397   2.728   3.167  0.0360 -0.9280  1.0174
 2372SOL     OW 7311   1.669   0.688   4.014  0.7730 -0.5359  0.4556
 2372SOL    HW1 7312   1.667   0.779   3.986  1.4825  0.0095  2.0610
 2372SOL    HW2 7313   1.729   0.645   3.953 -0.6854 -0.3087 -1.2331
 2373SOL     OW 7314   1.567   3.087   3.063 -0.0442 -1.1664  0.2360
 2373SOL    HW1 7315   1.597   3.017   3.120  1.0029  0.0357  1.2399
 2373SOL    HW2 7316   1.487   3.053   3.023  0.7322 -3.1212  0.2462
 2374SOL     OW 7317   1.102   4.080   2.737 -0.4157 -0.3134 -0.2923
 2374SOL    HW1 7318   1.022   4.043   2.701 -0.3324  1.0419 -1.9787
 2374SOL    HW2 7319   1.173   4.030   2.698 -0.3776  0.0369 -0.6780
 2375SOL     OW 7320   3.425   2.726   3.179 -0.7228  0.6422  0.1104
 2375SOL    HW1 7321   3.391   2.665   3.245 -1.0581  0.9099  0.1933
 2375SOL    HW2 7322   3.408   2.684   3.095  0.4406 -0.0668  0.2172
 2376SOL     OW 7323   3.628   1.706   1.130 -0.1133 -0.3431  0.1631
 2376SOL    HW1 7324   3.718   1.684   1.110 -0.5329 -1.0021 -1.1037
 2376SOL    HW2 7325   3.598   1.758   1.056 -0.8953 -0.5160  0.3381
 2377SOL     OW 7326   2.805   0.442   0.728 -0.4536  0.3701 -0.2131
 2377SOL    HW1 7327   2.884   0.465   0.679  0.5586 -0.0267  1.1967
 2377SOL    HW2 7328   2.740   0.422   0.660  0.8090  0.1524 -1.3953
 2378SOL     OW 7329   0.528   2.926   1.862  0.3071  0.3705  0.1991
 2378SOL    HW1 7330   0.485   2.918   1.777  1.3250  1.7942 -0.5006
 2378SOL    HW2 7331   0.585   3.003   1.853  2.0213 -0.6558  1.4718
 2379SOL     OW 7332   1.597   1.188   4.840  0.4853  0.7225 -0.0786
 2379SOL    HW1 7333   1.647   1.120   4.884  0.6896  0.3497 -0.8643
 2379SOL    HW2 7334   1.508   1.178   4.872  0.0202 -1.3826 -1.8075
 2380SOL     OW 7335   3.950   4.323   0.039  0.4427 -0.4281  0.4413
 2380SOL    HW1 7336   3.943   4.301  -0.054 -2.5323 -0.4119  0.5409
 2380SOL    HW2 7337   4.018   4.389   0.043  1.4722 -1.2790 -1.5437
 2381SOL     OW 7338   2.807   2.580   3.726 -0.6997 -0.1617  0.4607
 2381SOL    HW1 7339   2.766   2.592   3.812 -0.5692  1.5860  0.2997
 2381SOL    HW2 7340   2.896   2.611   3.737  0.3037 -2.7513  0.4498
 2382SOL     OW 7341   4.454   3.182   2.509 -0.0764 -0.0144 -0.1618
 2382SOL    HW1 7342   4.505   3.108   2.542  1.0061  0.9457  0.3679
 2382SOL    HW2 7343   4.499   3.210   2.430 -0.9572 -0.4224 -0.8260
 2383SOL     OW 7344   3.436   3.250   0.088 -0.7325  0.1064  0.2937
 2383SOL    HW1 7345   3.444   3.337   0.049 -0.3820 -0.3348 -0.6437
 2383SOL    HW2 7346   3.403   3.194   0.017  2.2082 -1.2385 -0.1648
 2384SOL     OW 7347   2.892   3.529   2.426 -0.0789  0.0569 -0.1095
 2384SOL    HW1 7348   2.908   3.519   2.332 -2.9325 -2.5693 -0.4431
 2384SOL    HW2 7349   2.954   3.469   2.467  0.9679  0.9898 -0.2665
 2385SOL     OW 7350   2.561   1.820   3.946  0.3371  0.7163  0.0407
 2385SOL    HW1 7351   2.563   1.907   3.987 -3.4556  1.7991 -1.6005
 2385SOL    HW2 7352   2.596   1.835   3.858 -1.3860  0.9108 -0.6372
 2386SOL     OW 7353   2.686   4.162   4.042  0.5405  0.1543  0.6323
 2386SOL    HW1 7354   2.719   4.232   3.985 -0.9266  0.1777 -0.2645
 2386SOL    HW2 7355   2.670   4.088   3.983  0.2457 -0.2710  1.2359
 2387SOL     OW 7356   4.602   4.202   4.481  0.5687 -0.0021  0.4431
 2387SOL    HW1 7357   4.638   4.225   4.396  0.3088 -3.3904 -0.7328
 2387SOL    HW2 7358   4.675   4.162   4.529  0.4166  0.7910  1.3781
 2388SOL     OW 7359   0.207   0.626   3.270 -0.4229  0.2867 -0.1105
 2388SOL    HW1 7360   0.198   0.635   3.175 -1.7711  0.7635  0.0465
 2388SOL    HW2 7361   0.126   0.661   3.305 -0.2782 -0.6228  1.1961
 2389SOL     OW 7362   1.529   1.801   4.066  0.4001 -0.1914 -0.0314
 2389SOL    HW1 7363   1.488   1.857   4.000 -0.4925 -0.8348 -0.0383
 2389SOL    HW2 7364   1.467   1.801   4.139 -0.3512 -2.3420 -0.6101
 2390SOL     OW 7365   4.533   4.363   1.533 -0.4824  0.1281  0.4121
 2390SOL    HW1 7366   4.557   4.440   1.481 -0.7331 -0.0578  0.0088
 2390SOL    HW2 7367   4.505   4.298   1.467  0.5319 -0.6029  0.6875
 2391SOL     OW 7368   3.177   1.151   2.022  0.4740 -0.2127  0.2500
 2391SOL    HW1 7369   3.173   1.056   2.032 -2.0686 -0.4925 -2.2516
 2391SOL    HW2 7370   3.109   1.184   2.080  1.1493  0.0732  0.8865
 2392SOL     OW 7371   2.864   2.732   3.299  0.0744  0.2384  0.1791
 2392SOL    HW1 7372   2.858   2.639   3.321  1.0976 -0.0063 -0.4965
 2392SOL    HW2 7373   2.918   2.734   3.220 -0.2712  1.3821 -0.0428
 2393SOL     OW 7374   0.950   0.622   0.822 -0.2950 -0.2913  0.0188
 2393SOL    HW1 7375   0.863   0.662   0.830  0.4192  1.7518 -1.5554
 2393SOL    HW2 7376   1.001   0.687   0.775  2.3287 -1.1190  1.5404
 2394SOL     OW 7377   2.100   0.482   4.462  0.2668 -0.1970 -0.0589
 2394SOL    HW1 7378   2.030   0.422   4.487 -0.4260  0.2562 -0.8942
 2394SOL    HW2 7379   2.177   0.449   4.509 -0.4437 -0.8333  0.6890
 2395SOL     OW 7380   3.031   4.011   3.953  0.0346  0.5957  0.4655
 2395SOL    HW1 7381   3.043   4.060   3.872  2.4644 -0.1644  0.2702
 2395SOL    HW2 7382   3.022   3.920   3.926  0.7152  0.3514  0.9962
 2396SOL     OW 7383   4.872   3.306   3.302  0.2129 -0.8324  0.2342
 2396SOL    HW1 7384   4.822   3.322   3.222  1.1771 -0.4579 -0.3114
 2396SOL    HW2 7385   4.954   3.265   3.271  0.0118 -1.9647  1.1522
 2397SOL     OW 7386   1.914   4.901   2.704  0.0923  0.1653 -0.5030
 2397SOL    HW1 7387   2.010   4.895   2.700  0.1358  1.2439 -1.6029
 2397SOL    HW2 7388   1.887   4.817   2.741  1.4914  0.0983  0.4308
 2398SOL     OW 7389   4.065   1.259   4.857 -0.1279  0.2761 -0.1035
 2398SOL    HW1 7390   4.134   1.316   4.890 -1.4718  0.9621  1.6667
 2398SOL    HW2 7391   4.069   1.181   4.913 -1.1518  0.5794  0.4098
 2399SOL     OW 7392   1.939   3.385   2.502  0.0741  0.0771  0.1661
 2399SOL    HW1 7393   2.005   3.376   2.571  3.5553  1.2032 -2.6793
 2399SOL    HW2 7394   1.892   3.465   2.523  0.0712 -0.3386  1.8832
 2400SOL     OW 7395   3.189   1.487   0.811 -0.7329 -0.3721  0.0672
 2400SOL    HW1 7396   3.216   1.479   0.902  0.6119 -0.2653 -0.2908
 2400SOL    HW2 7397   3.188   1.582   0.794 -2.2414 -0.3298  0.3092
 2401SOL     OW 7398   4.918   1.394   3.478 -0.3300 -0.2138 -0.7569
 2401SOL    HW1 7399   4.860   1.340   3.531  1.8461 -0.2355  1.7917
 2401SOL    HW2 7400   4.970   1.332   3.427 -0.7001 -0.3148 -1.0111
 2402SOL     OW 7401   0.862   0.651   1.487  0.3860  0.0721  0.2545
 2402SOL    HW1 7402   0.911   0.732   1.472  0.7210 -0.3906 -1.4208
 2402SOL    HW2 7403   0.773   0.671   1.456 -0.3799  0.6945  2.6507
 2403SOL     OW 7404   1.833   3.585   0.665 -0.1458  0.0961  0.1794
 2403SOL    HW1 7405   1.809   3.513   0.607 -1.4341  1.8319 -1.5599
 2403SOL    HW2 7406   1.912   3.622   0.627  0.8748 -0.6995  1.4195
 2404SOL     OW 7407   4.109   4.072   1.230 -0.1212  0.3340 -0.4771
 2404SOL    HW1 7408   4.101   4.024   1.148 -0.2093 -1.0912  0.3418
 2404SOL    HW2 7409   4.062   4.154   1.214 -3.3349 -1.3988 -0.7336
 2405SOL     OW 7410   4.650   3.662   2.802  0.3144 -0.1724 -0.0487
 2405SOL    HW1 7411   4.562   3.627   2.809  0.0422  0.3362 -0.7841
 2405SOL    HW2 7412   4.680   3.635   2.715 -0.1470  1.8781 -0.9236
 2406SOL     OW 7413   1.309   2.840   2.766  0.3090  0.2669 -0.1188
 2406SOL    HW1 7414   1.260   2.760   2.744 -0.0119  0.4905 -0.2131
 2406SOL    HW2 7415   1.332   2.829   2.858  2.2010 -0.9719 -0.6669
 2407SOL     OW 7416   1.784   1.177   3.917  0.0319  0.5291  0.2380
 2407SOL    HW1 7417   1.700   1.132   3.923 -0.1670  0.6647 -1.2343
 2407SOL    HW2 7418   1.805   1.201   4.007  0.0143 -2.2343  1.0636
 2408SOL     OW 7419   3.780   4.302   2.055  0.0369 -0.3518 -0.3305
 2408SOL    HW1 7420   3.850   4.361   2.082 -0.1730 -0.2578  0.0171
 2408SOL    HW2 7421   3.705   4.360   2.039 -0.1089 -0.5010 -0.1955
 2409SOL     OW 7422   4.160   1.832   3.927 -0.0483  0.3648  0.1587
 2409SOL    HW1 7423   4.206   1.829   4.011  1.7416  1.1054 -0.7519
 2409SOL    HW2 7424   4.183   1.916   3.889 -2.2088  0.7831 -0.3761
 2410SOL     OW 7425   4.510   4.777   2.275 -0.0030 -0.7022 -0.0913
 2410SOL    HW1 7426   4.416   4.794   2.288  0.1632  0.5370 -0.4079
 2410SOL    HW2 7427   4.513   4.701   2.217 -0.8199 -0.3557 -0.6062
 2411SOL     OW 7428   1.828   0.550   2.539  0.6136  0.2658 -0.8657
 2411SOL    HW1 7429   1.826   0.624   2.600  3.8122 -0.3662  0.1570
 2411SOL    HW2 7430   1.759   0.492   2.571  1.2576  0.6069  1.3233
 2412SOL     OW 7431   1.200   1.782   2.297 -0.1748  0.0891 -0.2834
 2412SOL    HW1 7432   1.199   1.863   2.348 -2.0345 -0.1123  0.0897
 2412SOL    HW2 7433   1.276   1.733   2.330 -1.4591 -0.1985  2.6461
 2413SOL     OW 7434   2.870   4.909   2.850 -0.0836 -0.2839 -0.6255
 2413SOL    HW1 7435   2.821   4.834   2.884 -1.3491  0.7827 -0.0293
 2413SOL    HW2 7436   2.927   4.935   2.922 -1.8581  1.1920  0.3195
 2414SOL     OW 7437   1.397   1.457   4.827 -0.0721 -0.4542  0.0424
 2414SOL    HW1 7438   1.380   1.514   4.902  0.9263 -1.2638  0.9176
 2414SOL    HW2 7439   1.431   1.375   4.866 -0.9223 -1.4351 -1.2038
 2415SOL     OW 7440   3.473   3.945   3.886  0.1430 -0.6652 -0.0230
 2415SOL    HW1 7441   3.567   3.962   3.878 -0.0100 -0.2278 -1.0229
 2415SOL    HW2 7442   3.451   3.975   3.974  0.6173  0.8889 -0.3910
 2416SOL     OW 7443   2.028   2.792   3.554  0.1846  0.0613 -0.1420
 2416SOL    HW1 7444   2.068   2.710   3.583 -1.2515 -0.8444 -0.6227
 2416SOL    HW2 7445   1.953   2.804   3.614 -1.2950 -0.5101 -1.7912
 2417SOL     OW 7446   4.207   4.070   2.704  0.0129  0.7173  0.0460
 2417SOL    HW1 7447   4.171   4.023   2.780 -0.0908  1.6390  0.5795
 2417SOL    HW2 7448   4.282   4.017   2.676 -0.6027 -0.2074  0.1133
 2418SOL     OW 7449   4.841   2.643   4.742  0.7453 -0.7793  0.3525
 2418SOL    HW1 7450   4.837   2.739   4.741 -0.7508 -0.8161 -0.7885
 2418SOL    HW2 7451   4.866   2.619   4.652 -0.8504 -1.4754  0.0576
 2419SOL     OW 7452   3.624   2.940   3.193 -0.5676  0.1167  0.0343
 2419SOL    HW1 7453   3.593   3.028   3.213 -1.9839 -0.7179  1.7366
 2419SOL    HW2 7454   3.545   2.887   3.188  0.2057 -0.9803 -1.6274
 2420SOL     OW 7455   0.402   4.415   0.799  0.4561  0.5062 -0.2383
 2420SOL    HW1 7456   0.382   4.426   0.706  0.9532 -1.8466 -0.6785
 2420SOL    HW2 7457   0.357   4.334   0.825 -0.5131  1.6313  1.8591
 2421SOL     OW 7458   2.010   2.696   4.772 -0.2875 -0.7267 -0.6735
 2421SOL    HW1 7459   1.989   2.623   4.714 -0.0067 -2.5947  1.4228
 2421SOL    HW2 7460   2.047   2.655   4.850  1.0358  1.7575  0.1442
 2422SOL     OW 7461   3.449   0.662   3.523  0.3369  0.0910  0.0532
 2422SOL    HW1 7462   3.383   0.731   3.519  0.3847  0.0632 -2.2820
 2422SOL    HW2 7463   3.423   0.599   3.456  1.2994 -1.2810  0.9072
 2423SOL     OW 7464   3.573   3.590   1.767 -0.1231  0.1275 -0.4984
 2423SOL    HW1 7465   3.663   3.560   1.779 -0.3805 -1.7358 -2.5989
 2423SOL    HW2 7466   3.556   3.647   1.842  1.8079 -1.7987  1.5369
 2424SOL     OW 7467   4.557   4.317   3.836  0.4940 -0.1486 -0.2753
 2424SOL    HW1 7468   4.581   4.345   3.748 -0.2127 -0.5380 -0.5930
 2424SOL    HW2 7469   4.641   4.301   3.879  0.8450 -1.8672 -1.5034
 2425SOL     OW 7470   1.365   0.709   3.829  0.3238 -0.3547 -0.0833
 2425SOL    HW1 7471   1.376   0.793   3.872  1.6640 -0.0113 -1.0363
 2425SOL    HW2 7472   1.342   0.731   3.739  1.1222 -0.9999 -0.4511
 2426SOL     OW 7473   0.832   2.902   2.314 -0.1899 -0.0173  0.4210
 2426SOL    HW1 7474   0.899   2.852   2.267 -1.0931  1.3052 -2.5168
 2426SOL    HW2 7475   0.876   2.985   2.335 -0.9270  1.1092 -2.0744
 2427SOL     OW 7476   3.293   0.276   3.168  0.0996 -0.3947 -0.0492
 2427SOL    HW1 7477   3.243   0.349   3.131 -0.7833 -0.2180  1.4160
 2427SOL    HW2 7478   3.238   0.199   3.151  1.0100 -0.7470 -1.5585
 2428SOL     OW 7479   4.315   0.540   3.902  0.4792 -0.2844 -0.3221
 2428SOL    HW1 7480   4.247   0.500   3.957  0.3285  3.6125  2.7796
 2428SOL    HW2 7481   4.392   0.486   3.916 -0.6825 -1.9074  0.1781
 2429SOL     OW 7482   3.527   2.219   1.920 -0.8804  0.2739 -0.3551
 2429SOL    HW1 7483   3.542   2.311   1.943 -0.5929 -0.1922  1.5639
 2429SOL    HW2 7484   3.605   2.194   1.871  0.1916  0.4726  1.1586
 2430SOL     OW 7485   4.114   4.450   0.899  0.0913  0.8575 -0.4712
 2430SOL    HW1 7486   4.180   4.406   0.845 -1.8362 -0.2445 -2.0643
 2430SOL    HW2 7487   4.100   4.392   0.973  0.9122  1.1195 -0.0989
 2431SOL     OW 7488   0.890   2.207   2.720  0.0513  0.4468  0.1991
 2431SOL    HW1 7489   0.901   2.278   2.657  1.9406  1.2043  1.2921
 2431SOL    HW2 7490   0.965   2.150   2.705 -1.1975 -1.1292 -0.3505
 2432SOL     OW 7491   0.298   2.791   0.503  0.2340 -0.3270 -0.2852
 2432SOL    HW1 7492   0.225   2.783   0.564  0.8959 -2.0686  0.3247
 2432SOL    HW2 7493   0.264   2.758   0.420 -0.3822  1.1735 -0.6652
 2433SOL     OW 7494   3.341   0.399   2.518  0.1854  0.1899 -0.7394
 2433SOL    HW1 7495   3.399   0.456   2.468  1.2954  0.1544  0.4507
 2433SOL    HW2 7496   3.284   0.360   2.453  0.4472  1.4467 -1.7646
 2434SOL     OW 7497   0.785   3.357   3.947  0.2430 -0.3497  0.2999
 2434SOL    HW1 7498   0.782   3.402   4.031 -1.5343 -0.6050  0.4121
 2434SOL    HW2 7499   0.696   3.363   3.913  1.1921  0.9318 -2.2325
 2435SOL     OW 7500   3.685   3.139   4.855  0.1656  0.0815 -0.4788
 2435SOL    HW1 7501   3.630   3.212   4.884 -0.7115 -1.1685  1.1525
 2435SOL    HW2 7502   3.640   3.102   4.780 -0.3014  0.1500 -0.2320
 2436SOL     OW 7503   0.189   2.885   4.700 -0.1258  0.2906 -0.3506
 2436SOL    HW1 7504   0.192   2.824   4.626 -0.9070 -1.3826  0.9249
 2436SOL    HW2 7505   0.097   2.911   4.705  0.1767  1.5214 -0.7950
 2437SOL     OW 7506   1.065   3.506   1.067 -0.0288 -1.1427 -0.1079
 2437SOL    HW1 7507   1.042   3.477   0.979 -1.4277 -1.5127  0.3602
 2437SOL    HW2 7508   0.981   3.520   1.111  0.6225 -2.4567  1.6554
 2438SOL     OW 7509   4.000   3.218   4.596 -0.2219  0.5022 -0.0054
 2438SOL    HW1 7510   3.959   3.177   4.672 -0.0850 -0.5333 -0.4664
 2438SOL    HW2 7511   4.030   3.303   4.627  0.9086 -0.3746  1.4376
 2439SOL     OW 7512   2.945   2.500   4.781  0.0473 -0.3451  0.0794
 2439SOL    HW1 7513   3.034   2.522   4.753 -0.2481  1.0094  0.1370
 2439SOL    HW2 7514   2.902   2.469   4.702  0.5481 -0.9833  0.0431
 2440SOL     OW 7515   3.559   2.874   0.074  0.4334 -0.5421 -0.7907
 2440SOL    HW1 7516   3.504   2.907   0.002 -0.0394 -0.3073 -0.3258
 2440SOL    HW2 7517   3.648   2.884   0.042  0.4458  2.6991 -0.0773
 2441SOL     OW 7518   0.548   4.072   3.107 -0.5556 -0.3085  0.3401
 2441SOL    HW1 7519   0.585   4.148   3.062 -2.2502  0.7462  0.6647
 2441SOL    HW2 7520   0.624   4.031   3.149  0.4237  1.0906  0.0209
 2442SOL     OW 7521   4.075   1.047   1.161  0.1934  0.0638 -0.3987
 2442SOL    HW1 7522   4.085   1.139   1.136  1.3557  0.1448  0.2306
 2442SOL    HW2 7523   4.059   1.050   1.256 -0.0326 -0.3635 -0.4227
 2443SOL     OW 7524   3.839   3.369   1.997 -0.0775 -0.4044 -0.1013
 2443SOL    HW1 7525   3.834   3.439   1.932  2.1809 -0.3832 -0.3339
 2443SOL    HW2 7526   3.932   3.360   2.016 -0.5603 -1.2370  2.2697
 2444SOL     OW 7527   3.354   4.234   3.543 -0.6007 -0.0691 -0.3112
 2444SOL    HW1 7528   3.434   4.284   3.524 -1.1231  0.9102 -0.0175
 2444SOL    HW2 7529   3.287   4.277   3.490 -0.8454 -1.1988 -0.9376
 2445SOL     OW 7530   2.735   3.729   0.523  0.2310 -0.1805 -0.1409
 2445SOL    HW1 7531   2.826   3.702   0.524 -0.0871 -1.4975 -1.9104
 2445SOL    HW2 7532   2.734   3.814   0.568  2.0215 -0.9221  1.4293
 2446SOL     OW 7533   3.066   0.845   4.370  0.2735 -0.6023  0.1631
 2446SOL    HW1 7534   2.984   0.895   4.374  1.2268  1.3665 -2.2317
 2446SOL    HW2 7535   3.109   0.861   4.454 -0.8272  0.0896  0.6081
 2447SOL     OW 7536   4.655   1.662   0.993  0.3151 -0.2215 -0.0800
 2447SOL    HW1 7537   4.711   1.585   1.004 -1.7840 -1.7214  0.7283
 2447SOL    HW2 7538   4.709   1.735   1.022  1.5369 -1.7163  1.6180
 2448SOL     OW 7539   2.427   1.705   0.833 -0.0228  0.0992 -0.0311
 2448SOL    HW1 7540   2.446   1.647   0.759  0.0906  0.7452 -0.5139
 2448SOL    HW2 7541   2.456   1.656   0.910  0.9873 -0.0886 -0.5224
 2449SOL     OW 7542   4.853   3.001   1.099 -0.0237 -0.2622 -0.0845
 2449SOL    HW1 7543   4.790   2.980   1.030  0.5015 -0.2561 -0.5688
 2449SOL    HW2 7544   4.872   2.918   1.142  0.3408 -0.4131 -0.5381
 2450SOL     OW 7545   3.320   2.110   2.330  0.8110  0.0108 -0.1509
 2450SOL    HW1 7546   3.241   2.158   2.305  0.3848  0.7157  2.3657
 2450SOL    HW2 7547   3.294   2.018   2.327 -0.3725  0.2674  1.3666
 2451SOL     OW 7548   2.881   3.165   0.519  0.0207 -0.5129 -0.5400
 2451SOL    HW1 7549   2.852   3.092   0.573  2.0186 -0.6120  0.4570
 2451SOL    HW2 7550   2.826   3.238   0.546 -0.2631 -1.0167  0.2762
 2452SOL     OW 7551   1.855   2.011   0.611  0.5209  0.6441 -0.0609
 2452SOL    HW1 7552   1.908   2.077   0.654 -2.3689  2.2125  1.3664
 2452SOL    HW2 7553   1.766   2.046   0.613 -0.6140 -1.7339 -2.4558
 2453SOL     OW 7554   2.393   2.892   4.471 -0.0977 -0.1129 -0.1733
 2453SOL    HW1 7555   2.340   2.832   4.524  0.5524 -0.1369  0.4729
 2453SOL    HW2 7556   2.357   2.884   4.383 -1.2095 -0.0767  0.2582
 2454SOL     OW 7557   3.074   0.285   3.685  0.3008  0.1872  0.0441
 2454SOL    HW1 7558   3.131   0.296   3.609 -0.6600  1.3687 -0.5425
 2454SOL    HW2 7559   2.988   0.265   3.648  0.1032 -0.6349  0.8820
 2455SOL     OW 7560   2.522   3.142   3.594 -0.4700 -0.8506 -0.1423
 2455SOL    HW1 7561   2.494   3.229   3.567  1.0993 -0.1164  0.4866
 2455SOL    HW2 7562   2.487   3.084   3.526 -0.9764  0.3404 -0.9346
 2456SOL     OW 7563   0.350   0.046   2.222  0.3228  0.2174  0.1163
 2456SOL    HW1 7564   0.423   0.106   2.211  1.9046 -1.9207 -2.5650
 2456SOL    HW2 7565   0.362   0.009   2.309  2.2716  0.2049 -0.1087
 2457SOL     OW 7566   1.890   0.768   2.125 -0.9196 -0.5397  0.4049
 2457SOL    HW1 7567   1.822   0.737   2.184 -1.1861 -2.5547 -0.8912
 2457SOL    HW2 7568   1.880   0.864   2.126 -3.0798 -0.7193  1.0160
 2458SOL     OW 7569   1.993   0.118   4.767 -0.4823  0.1952  0.0462
 2458SOL    HW1 7570   1.989   0.035   4.721  0.1213  0.6433 -0.8430
 2458SOL    HW2 7571   1.910   0.125   4.813 -1.2625 -0.1017 -1.2816
 2459SOL     OW 7572   4.221   0.022   3.336  0.1674  0.5550  0.1815
 2459SOL    HW1 7573   4.127   0.035   3.327  0.5833  2.5671 -2.1877
 2459SOL    HW2 7574   4.254   0.104   3.374  1.0652  0.1877  0.2355
 2460SOL     OW 7575   1.160   2.351   1.452  0.1213 -0.0280  0.8347
 2460SOL    HW1 7576   1.238   2.321   1.499 -0.6982 -2.0346  1.0390
 2460SOL    HW2 7577   1.111   2.271   1.434 -2.5227  1.2340  1.8270
 2461SOL     OW 7578   3.165   0.887   1.429 -0.4381  0.4875 -0.1549
 2461SOL    HW1 7579   3.072   0.887   1.407 -0.5887 -2.7673  0.0714
 2461SOL    HW2 7580   3.167   0.888   1.524 -0.2893 -0.5385 -0.1440
 2462SOL     OW 7581   3.552   3.140   0.760  0.2938  0.3832  0.5573
 2462SOL    HW1 7582   3.611   3.083   0.808  0.3295  1.1457  1.4431
 2462SOL    HW2 7583   3.600   3.222   0.750 -0.0870  0.5551  0.0646
 2463SOL     OW 7584   2.686   4.810   4.719  0.5131 -0.3480 -0.2990
 2463SOL    HW1 7585   2.650   4.807   4.630  0.7743 -0.4015 -0.4049
 2463SOL    HW2 7586   2.698   4.904   4.736 -0.0906 -0.3103 -0.0929
 2464SOL     OW 7587   3.551   3.114   1.380  0.3331  0.4970  0.1481
 2464SOL    HW1 7588   3.581   3.024   1.367  0.9320  0.6929  0.1278
 2464SOL    HW2 7589   3.632   3.165   1.388  0.0206  0.7746  2.0127
 2465SOL     OW 7590   0.306   1.846   4.132 -0.0041 -0.3108 -0.4465
 2465SOL    HW1 7591   0.402   1.840   4.133  0.0037 -0.1837 -0.3057
 2465SOL    HW2 7592   0.277   1.770   4.081  0.1388 -0.8648  0.2685
 2466SOL     OW 7593   1.218   2.964   0.445  0.4539  0.1183 -0.0299
 2466SOL    HW1 7594   1.201   2.979   0.352 -1.1715  0.9631  0.3624
 2466SOL    HW2 7595   1.312   2.949   0.450  0.5291 -0.2677 -1.8457
 2467SOL     OW 7596   1.191   0.086   0.155 -0.4352 -0.0502  0.0732
 2467SOL    HW1 7597   1.199   0.000   0.197 -0.7473  0.2535  0.7730
 2467SOL    HW2 7598   1.281   0.121   0.154 -0.4683  0.0723  0.7895
 2468SOL     OW 7599   0.240   2.954   3.022  0.3666 -1.1096 -0.3388
 2468SOL    HW1 7600   0.258   2.867   3.059  3.7288 -0.1133  0.7301
 2468SOL    HW2 7601   0.305   2.963   2.952  0.8173  0.8975  0.2804
 2469SOL     OW 7602   1.775   0.137   1.939 -0.5907  0.2720  0.0655
 2469SOL    HW1 7603   1.865   0.167   1.929 -0.0779 -0.6825  1.4883
 2469SOL    HW2 7604   1.776   0.048   1.904 -0.5825 -0.3093  1.4993
 2470SOL     OW 7605   0.338   2.039   2.388  0.2928 -0.0723  0.0254
 2470SOL    HW1 7606   0.414   2.033   2.330  0.9986  2.3403  0.6161
 2470SOL    HW2 7607   0.264   2.058   2.329  0.6654  0.4631 -0.2785
 2471SOL     OW 7608   3.325   4.184   1.801  0.2566 -0.4768  0.0209
 2471SOL    HW1 7609   3.277   4.215   1.724  1.7412 -2.0007 -1.6420
 2471SOL    HW2 7610   3.409   4.155   1.766  1.7085  0.3807  2.5243
 2472SOL     OW 7611   2.534   0.699   3.970  0.5571  0.0814 -0.1039
 2472SOL    HW1 7612   2.562   0.762   4.037  1.0452 -0.7859  0.5276
 2472SOL    HW2 7613   2.606   0.697   3.907  1.5741 -1.4631  1.0392
 2473SOL     OW 7614   3.844   1.852   3.530  1.3950  0.2059 -0.1598
 2473SOL    HW1 7615   3.850   1.863   3.625 -1.2588  0.2553  0.0584
 2473SOL    HW2 7616   3.814   1.937   3.498 -1.2578 -0.7991 -0.5683
 2474SOL     OW 7617   3.120   3.294   2.733  0.3153 -0.3365  0.4720
 2474SOL    HW1 7618   3.103   3.284   2.639  1.5161 -0.9940  0.3054
 2474SOL    HW2 7619   3.058   3.236   2.776 -0.3770  0.1188  0.1055
 2475SOL     OW 7620   1.891   4.635   2.834 -0.4329 -0.4378  0.4316
 2475SOL    HW1 7621   1.945   4.575   2.887 -0.2891 -1.2914 -0.6558
 2475SOL    HW2 7622   1.842   4.578   2.775 -0.8093  0.4864 -0.1703
 2476SOL     OW 7623   4.225   4.773   2.320 -0.1216  0.2807  0.0070
 2476SOL    HW1 7624   4.198   4.692   2.277  2.5750 -1.0680  0.6428
 2476SOL    HW2 7625   4.177   4.841   2.275 -2.0106 -1.6011 -0.9905
 2477SOL     OW 7626   3.377   1.205   1.868  0.4816 -0.1651  0.2870
 2477SOL    HW1 7627   3.296   1.180   1.912 -0.4542  0.6970 -0.8863
 2477SOL    HW2 7628   3.410   1.123   1.829 -1.8968  0.0321 -2.4793
 2478SOL     OW 7629   4.208   3.169   0.907 -0.0551  0.6366  0.4369
 2478SOL    HW1 7630   4.281   3.127   0.952 -0.3247 -1.7628 -1.1426
 2478SOL    HW2 7631   4.193   3.251   0.954  2.3729  0.2701  1.9782
 2479SOL     OW 7632   2.353   0.889   4.062 -0.4294  0.4859  0.9546
 2479SOL    HW1 7633   2.299   0.932   3.995 -2.3824  0.1542  2.2200
 2479SOL    HW2 7634   2.396   0.817   4.016 -0.8838  0.9088 -0.1633
 2480SOL     OW 7635   3.024   2.187   1.987 -0.3825 -0.2857 -0.4425
 2480SOL    HW1 7636   2.944   2.233   1.964 -0.4483  0.7498  1.6208
 2480SOL    HW2 7637   3.079   2.195   1.909 -1.5132  0.7341 -1.1823
 2481SOL     OW 7638   2.695   4.488   0.400 -0.3675  0.3986  0.3336
 2481SOL    HW1 7639   2.766   4.447   0.351 -0.5623  1.5578 -0.9881
 2481SOL    HW2 7640   2.663   4.420   0.459 -0.5858 -1.2883 -1.6420
 2482SOL     OW 7641   2.008   2.721   1.329  0.6487 -0.0732  0.3807
 2482SOL    HW1 7642   1.943   2.681   1.272  0.2818 -0.2579  0.9158
 2482SOL    HW2 7643   2.017   2.810   1.297 -0.6372  0.2793  0.9210
 2483SOL     OW 7644   1.312   0.056   2.897  0.2223 -0.3548  0.2543
 2483SOL    HW1 7645   1.402   0.028   2.912  0.2214 -0.9168 -0.6996
 2483SOL    HW2 7646   1.267   0.039   2.980  1.1200  0.5025  0.9336
 2484SOL     OW 7647   2.106   1.458   2.400  0.5382  0.3655  0.2269
 2484SOL    HW1 7648   2.065   1.516   2.335 -1.7134  0.6968  1.8198
 2484SOL    HW2 7649   2.126   1.379   2.351  3.5944  2.2878 -1.9956
 2485SOL     OW 7650   0.669   0.033   2.745 -0.0153 -0.0596  0.2747
 2485SOL    HW1 7651   0.656  -0.055   2.709  0.8505 -0.0532 -0.0541
 2485SOL    HW2 7652   0.747   0.026   2.800 -0.7510  0.1691  1.3854
 2486SOL     OW 7653   0.974   4.576   1.290 -0.6159  0.4124 -0.2429
 2486SOL    HW1 7654   1.035   4.622   1.232  1.2540 -0.2131  1.1265
 2486SOL    HW2 7655   0.893   4.570   1.239  0.3579  1.5323 -2.0438
 2487SOL     OW 7656   0.665   2.159   1.600 -0.0286 -0.0808 -0.0928
 2487SOL    HW1 7657   0.636   2.103   1.672 -2.3100  2.0714  0.8348
 2487SOL    HW2 7658   0.730   2.217   1.640 -1.0272  0.8726  0.2004
 2488SOL     OW 7659   2.296   0.385   0.953 -0.1094 -0.6711  0.1655
 2488SOL    HW1 7660   2.328   0.449   1.017 -0.2196  0.3668 -0.7851
 2488SOL    HW2 7661   2.250   0.320   1.006 -0.3503  0.2528  1.1361
 2489SOL     OW 7662   4.689   0.949   1.863  0.0961  0.2467  0.3266
 2489SOL    HW1 7663   4.655   1.037   1.879  0.0254  0.2780  0.0119
 2489SOL    HW2 7664   4.730   0.924   1.945  0.7866  0.8777  0.1814
 2490SOL     OW 7665   2.001   1.026   3.241 -0.1487  0.5302 -0.5063
 2490SOL    HW1 7666   2.082   1.011   3.289  0.8971  1.2441 -1.9909
 2490SOL    HW2 7667   1.953   1.090   3.294  0.3902  0.3361  0.2246
 2491SOL     OW 7668   1.177   0.133   3.604  0.7657  0.1403  0.2425
 2491SOL    HW1 7669   1.224   0.133   3.687  0.8058  1.2448  0.2319
 2491SOL    HW2 7670   1.208   0.211   3.558 -1.5448  1.3326  0.5328
 2492SOL     OW 7671   3.404   1.623   0.341  0.0342  0.2845  0.2830
 2492SOL    HW1 7672   3.315   1.598   0.316 -0.8549  1.3715  2.1361
 2492SOL    HW2 7673   3.454   1.541   0.338 -0.7896 -0.1986 -1.5844
 2493SOL     OW 7674   0.816   0.376   1.805  0.4640  0.3945 -0.3428
 2493SOL    HW1 7675   0.732   0.337   1.778  1.4338 -0.5637 -2.1434
 2493SOL    HW2 7676   0.874   0.362   1.731  2.7123 -0.3696  1.4519
 2494SOL     OW 7677   1.837   1.988   2.917  0.1780 -0.1464  0.7340
 2494SOL    HW1 7678   1.917   1.946   2.950  0.2443 -1.2364 -0.7350
 2494SOL    HW2 7679   1.770   1.920   2.924 -0.7606  0.8578  2.2716
 2495SOL     OW 7680   4.226   1.766   4.466 -0.6076 -0.0075  0.0734
 2495SOL    HW1 7681   4.169   1.842   4.452  0.1541  0.3881 -1.0611
 2495SOL    HW2 7682   4.226   1.753   4.561 -0.7844  1.4004  0.2922
 2496SOL     OW 7683   3.537   1.824   2.022  0.8071 -0.2788  0.2941
 2496SOL    HW1 7684   3.511   1.779   1.941  1.8586  0.1890 -0.3233
 2496SOL    HW2 7685   3.608   1.882   1.995 -0.9447  2.3161  0.9081
 2497SOL     OW 7686   3.073   2.020   0.740  0.0594  0.3049  0.0818
 2497SOL    HW1 7687   2.992   2.050   0.780  0.4423  0.4642  0.7506
 2497SOL    HW2 7688   3.096   2.088   0.678 -0.0289  0.5204  0.2864
 2498SOL     OW 7689   4.615   1.226   1.651 -0.2211 -0.2463  0.0444
 2498SOL    HW1 7690   4.655   1.311   1.631 -0.6224  0.0297  0.4005
 2498SOL    HW2 7691   4.673   1.187   1.716  0.3261 -0.5407 -0.6057
 2499SOL     OW 7692   0.564   1.389   3.417  0.3599 -0.3134  0.3697
 2499SOL    HW1 7693   0.647   1.376   3.462  0.5845 -0.7699 -0.1742
 2499SOL    HW2 7694   0.570   1.335   3.338 -1.5251 -2.6379  1.6763
 2500SOL     OW 7695   2.197   4.408   3.447  0.1915 -0.3654 -0.1962
 2500SOL    HW1 7696   2.292   4.407   3.453  0.0827 -0.9852  2.2305
 2500SOL    HW2 7697   2.175   4.495   3.414  1.5155  0.7069  1.6476
 2501SOL     OW 7698   1.890   1.137   2.952  0.0437 -0.7475  0.4563
 2501SOL    HW1 7699   1.795   1.129   2.954  0.0311 -0.4973  1.6606
 2501SOL    HW2 7700   1.908   1.222   2.993  0.6883  0.2426 -1.7571
 2502SOL     OW 7701   3.783   0.270   2.307 -0.0371 -0.2366 -0.8620
 2502SOL    HW1 7702   3.875   0.281   2.286  0.1074 -0.1954 -0.2205
 2502SOL    HW2 7703   3.778   0.285   2.401 -0.4281 -1.9369 -0.5919
 2503SOL     OW 7704   2.190   0.985   3.448 -0.1677  0.2524  0.5339
 2503SOL    HW1 7705   2.251   0.920   3.484  0.0567  0.3665  0.3624
 2503SOL    HW2 7706   2.113   0.979   3.505  0.2680  0.5802  1.1768
 2504SOL     OW 7707   1.256   1.271   3.967 -0.1311  0.1398  0.2026
 2504SOL    HW1 7708   1.188   1.246   4.031 -0.4564  0.1077 -0.1543
 2504SOL    HW2 7709   1.262   1.366   3.976  0.5242  0.0418  0.9742
 2505SOL     OW 7710   1.149   0.302   1.754  0.1704 -0.1288  0.4399
 2505SOL    HW1 7711   1.209   0.376   1.748  0.9110 -0.6096  1.6547
 2505SOL    HW2 7712   1.083   0.320   1.687  1.2804  0.7480 -0.4691
 2506SOL     OW 7713   1.893   1.499   0.500  0.1587 -0.3500  0.2377
 2506SOL    HW1 7714   1.888   1.496   0.405 -2.3326 -0.0574  0.2952
 2506SOL    HW2 7715   1.972   1.449   0.522  0.7516 -0.4535 -1.9528
 2507SOL     OW 7716   4.753   0.277   3.780  0.1718 -0.1002 -0.4725
 2507SOL    HW1 7717   4.821   0.326   3.733 -0.9141  0.0141 -2.0082
 2507SOL    HW2 7718   4.789   0.263   3.867  2.7168 -1.1407 -1.6012
 2508SOL     OW 7719   0.246   2.445   1.079 -0.5872 -0.4055 -0.1978
 2508SOL    HW1 7720   0.248   2.453   1.174 -0.3539  0.0692 -0.2400
 2508SOL    HW2 7721   0.336   2.462   1.051 -0.4037 -1.6446 -0.4276
 2509SOL     OW 7722   0.559   1.456   4.120 -1.0104  0.4651  0.3644
 2509SOL    HW1 7723   0.538   1.471   4.028 -2.2773  0.6384  0.6685
 2509SOL    HW2 7724   0.547   1.541   4.162 -0.1330  0.4613  0.6459
 2510SOL     OW 7725   0.145   4.249   3.255  0.4776  0.2389  0.3990
 2510SOL    HW1 7726   0.141   4.264   3.161  1.5716  0.1458  0.3248
 2510SOL    HW2 7727   0.221   4.192   3.267 -1.4465 -2.4044  1.0317
 2511SOL     OW 7728   0.385   1.672   4.458  0.2081 -0.2790 -0.8910
 2511SOL    HW1 7729   0.296   1.687   4.427 -0.2714 -0.5975  0.2668
 2511SOL    HW2 7730   0.381   1.586   4.501  0.9365 -0.0607 -0.3742
 2512SOL     OW 7731   2.242   0.611   1.358 -0.1634  0.3892 -0.2897
 2512SOL    HW1 7732   2.186   0.582   1.286 -0.3341 -0.5407  0.1961
 2512SOL    HW2 7733   2.323   0.561   1.346 -0.4047 -0.2148  0.4713
 2513SOL     OW 7734   0.142   2.208   1.170  0.3774 -0.3573 -0.2385
 2513SOL    HW1 7735   0.053   2.187   1.145  0.2685 -0.9465  0.6017
 2513SOL    HW2 7736   0.170   2.275   1.108 -0.4750 -0.5223 -0.8061
 2514SOL     OW 7737   3.604   4.935   1.417  0.2003  0.7855 -0.1652
 2514SOL    HW1 7738   3.637   4.979   1.338 -1.9998 -0.0943 -1.6801
 2514SOL    HW2 7739   3.634   4.844   1.407 -2.5238 -0.0661 -1.6444
 2515SOL     OW 7740   4.022   2.263   3.641 -0.0458 -0.2183 -0.2529
 2515SOL    HW1 7741   3.979   2.292   3.560 -0.6316 -0.5602 -0.0667
 2515SOL    HW2 7742   4.000   2.331   3.705  0.7576  0.2671 -0.4707
 2516SOL     OW 7743   4.826   0.555   4.735  0.6517  0.3433  0.1891
 2516SOL    HW1 7744   4.788   0.583   4.652  1.2267  0.7758  0.0554
 2516SOL    HW2 7745   4.914   0.525   4.712  0.7032  0.1764  0.5940
 2517SOL     OW 7746   2.789   1.199   2.491 -0.4048 -0.2024  0.0425
 2517SOL    HW1 7747   2.809   1.287   2.522  0.7921 -0.3852 -0.1769
 2517SOL    HW2 7748   2.713   1.172   2.543 -1.6551  1.4672 -0.8403
 2518SOL     OW 7749   2.110   0.176   4.159  0.7641 -0.1160  0.1942
 2518SOL    HW1 7750   2.173   0.171   4.088  0.6413 -1.3262  0.1458
 2518SOL    HW2 7751   2.057   0.098   4.150 -1.2146  1.2014 -0.1762
 2519SOL     OW 7752   1.330   3.908   3.506 -0.1676 -0.5131  0.2116
 2519SOL    HW1 7753   1.336   3.818   3.535 -0.0566 -0.3208  0.7971
 2519SOL    HW2 7754   1.415   3.926   3.466 -0.3764 -0.8265 -0.3769
 2520SOL     OW 7755   1.664   4.574   0.231 -0.2646  0.0859 -0.7837
 2520SOL    HW1 7756   1.749   4.617   0.222  0.6879 -1.4196  0.4595
 2520SOL    HW2 7757   1.638   4.591   0.321  0.4157 -2.3034 -0.0664
 2521SOL     OW 7758   3.136   1.686   3.231  0.0348  0.0934 -0.3219
 2521SOL    HW1 7759   3.061   1.680   3.291 -0.0919  0.1663 -0.4740
 2521SOL    HW2 7760   3.109   1.635   3.154  0.9058 -1.5818  0.4169
 2522SOL     OW 7761   4.868   4.548   0.765 -0.0802  0.3413  0.1644
 2522SOL    HW1 7762   4.952   4.577   0.799 -0.5169  3.9177 -1.2598
 2522SOL    HW2 7763   4.885   4.529   0.672 -0.4752 -1.0626  0.3556
 2523SOL     OW 7764   2.418   0.741   0.450 -0.1556  0.2100 -0.0149
 2523SOL    HW1 7765   2.468   0.663   0.427 -0.4739  0.0687 -0.2323
 2523SOL    HW2 7766   2.394   0.781   0.367 -2.1542 -0.8438 -0.0128
 2524SOL     OW 7767   3.350   3.278   2.102  0.1979 -0.6952 -0.6074
 2524SOL    HW1 7768   3.343   3.186   2.128  1.1145 -0.2318  1.4637
 2524SOL    HW2 7769   3.444   3.296   2.104 -0.0197  0.4496 -0.3235
 2525SOL     OW 7770   1.023   2.178   0.635  0.2146  0.3042 -0.0737
 2525SOL    HW1 7771   1.042   2.151   0.725  1.6782 -0.6086 -0.6294
 2525SOL    HW2 7772   1.078   2.255   0.620 -0.7148  1.0212  0.0869
 2526SOL     OW 7773   2.057   2.768   2.998  0.4723  0.0435 -0.3143
 2526SOL    HW1 7774   2.042   2.856   3.032  2.2532  0.6853 -1.0629
 2526SOL    HW2 7775   2.152   2.756   3.003  0.6421 -0.5641 -3.2064
 2527SOL     OW 7776   0.783   3.439   1.310 -0.2029  0.0067  0.1059
 2527SOL    HW1 7777   0.774   3.448   1.216 -0.6728  0.0356  0.1468
 2527SOL    HW2 7778   0.791   3.529   1.343  1.5661 -0.0735 -0.0370
 2528SOL     OW 7779   4.247   2.202   0.290  0.2636  0.1026 -0.2180
 2528SOL    HW1 7780   4.283   2.265   0.228 -0.3178 -0.0104 -0.6742
 2528SOL    HW2 7781   4.192   2.145   0.237  0.6205 -0.6722  0.2212
 2529SOL     OW 7782   1.173   3.258   4.024 -0.3231  0.3596  0.2657
 2529SOL    HW1 7783   1.231   3.335   4.021  3.0504 -1.9664 -1.7556
 2529SOL    HW2 7784   1.135   3.255   3.936 -0.1696 -0.3927  0.2197
 2530SOL     OW 7785   2.685   1.529   3.653 -0.5804  0.2212  0.2682
 2530SOL    HW1 7786   2.609   1.471   3.652  0.2617 -0.9039  0.3537
 2530SOL    HW2 7787   2.648   1.616   3.668 -1.7669 -0.4423  1.4527
 2531SOL     OW 7788   3.889   4.543   1.517 -0.5237  0.0465  0.3955
 2531SOL    HW1 7789   3.870   4.471   1.457 -2.9626  0.1291  0.9504
 2531SOL    HW2 7790   3.981   4.532   1.540  0.4668 -0.1178 -3.1191
 2532SOL     OW 7791   3.887   4.502   3.620 -0.0162  0.0923  0.3283
 2532SOL    HW1 7792   3.948   4.545   3.679 -0.6111 -0.2070  1.1825
 2532SOL    HW2 7793   3.802   4.541   3.640 -0.3128 -0.3769  0.0339
 2533SOL     OW 7794   3.074   3.003   2.023 -0.8091  0.5375  0.1391
 2533SOL    HW1 7795   3.155   2.985   2.070  0.5140  4.5471 -0.2653
 2533SOL    HW2 7796   3.015   3.040   2.089 -1.3882  0.0112 -0.0729
 2534SOL     OW 7797   4.245   2.856   2.658 -0.0547 -0.1237  0.3631
 2534SOL    HW1 7798   4.238   2.939   2.706  0.0293 -0.3852  0.8359
 2534SOL    HW2 7799   4.326   2.865   2.607 -1.0561  0.8599 -1.1231
 2535SOL     OW 7800   3.706   3.130   4.187 -0.7900  0.4125 -0.2451
 2535SOL    HW1 7801   3.720   3.198   4.253 -0.1711 -0.6111  0.7220
 2535SOL    HW2 7802   3.792   3.114   4.149 -0.9547  0.2780 -0.5674
 2536SOL     OW 7803   4.540   0.599   3.679 -0.1231 -0.3708 -0.0900
 2536SOL    HW1 7804   4.562   0.607   3.771  0.0493 -1.5890 -0.0174
 2536SOL    HW2 7805   4.554   0.687   3.644  0.4291 -0.0460  0.9024
 2537SOL     OW 7806   2.798   0.791   0.868 -0.1548 -0.5119  0.0935
 2537SOL    HW1 7807   2.846   0.841   0.802  0.3245 -1.2847 -0.1546
 2537SOL    HW2 7808   2.864   0.736   0.909 -1.1929 -3.6249 -2.1107
 2538SOL     OW 7809   3.559   4.832   0.809 -0.0497  0.1418 -0.0657
 2538SOL    HW1 7810   3.540   4.841   0.715  0.0156 -0.1099 -0.1043
 2538SOL    HW2 7811   3.638   4.778   0.812 -0.5217 -0.5587  0.1541
 2539SOL     OW 7812   0.179   0.869   3.679 -0.1331 -0.4012 -0.0790
 2539SOL    HW1 7813   0.109   0.804   3.684 -0.8402  0.3078 -0.7425
 2539SOL    HW2 7814   0.182   0.895   3.588  1.4367 -0.8787 -0.1946
 2540SOL     OW 7815   2.436   2.720   1.395  0.1444  0.6275  0.5860
 2540SOL    HW1 7816   2.532   2.716   1.389  0.0166 -0.0711 -2.1798
 2540SOL    HW2 7817   2.415   2.813   1.393  0.7223  0.7531  0.3219
 2541SOL     OW 7818   3.127   4.670   2.001  0.0496  0.1482 -0.2523
 2541SOL    HW1 7819   3.133   4.650   1.907 -0.9828  0.2261 -0.3468
 2541SOL    HW2 7820   3.109   4.764   2.004 -0.2469  0.0845  0.0109
 2542SOL     OW 7821   0.468   1.217   1.980 -0.6604 -0.2492 -0.1654
 2542SOL    HW1 7822   0.417   1.140   1.956 -1.2168 -0.1497  0.6826
 2542SOL    HW2 7823   0.415   1.291   1.952 -0.6273 -0.1550  0.0200
 2543SOL     OW 7824   1.581   2.595   1.028  0.5620 -0.0091  0.2642
 2543SOL    HW1 7825   1.497   2.549   1.029  0.3250  0.4125  0.1973
 2543SOL    HW2 7826   1.559   2.685   1.054  0.8005  0.4172 -0.9249
 2544SOL     OW 7827   1.730   0.356   1.391 -0.1482 -0.0990  0.0040
 2544SOL    HW1 7828   1.670   0.374   1.319  1.2805  1.2159 -0.9232
 2544SOL    HW2 7829   1.799   0.303   1.352  2.0447  2.7994 -0.4089
 2545SOL     OW 7830   2.274   4.139   2.836  0.4394  0.1236  0.3695
 2545SOL    HW1 7831   2.179   4.128   2.836  0.2344  1.5556 -1.0826
 2545SOL    HW2 7832   2.308   4.052   2.815 -0.5291 -0.4006  0.8974
 2546SOL     OW 7833   1.389   2.912   4.197  0.0322  0.4643 -0.0017
 2546SOL    HW1 7834   1.373   2.839   4.138  0.1913  0.6500 -0.2764
 2546SOL    HW2 7835   1.319   2.906   4.262  0.5819 -0.4827  0.5188
 2547SOL     OW 7836   4.454   3.188   0.153 -0.2371  0.1250 -0.0631
 2547SOL    HW1 7837   4.535   3.224   0.189  0.3978  0.7085 -1.9340
 2547SOL    HW2 7838   4.404   3.264   0.123  0.6975 -0.3299 -3.1884
 2548SOL     OW 7839   1.911   3.706   1.537 -0.1761  0.0882 -0.1267
 2548SOL    HW1 7840   1.846   3.762   1.494  0.5205 -0.3543 -1.8034
 2548SOL    HW2 7841   1.995   3.748   1.519  0.1484 -0.1010  0.8604
 2549SOL     OW 7842   3.716   0.841   3.965 -0.1458  0.1191 -0.2953
 2549SOL    HW1 7843   3.658   0.799   4.028 -0.3940 -0.3471 -0.8206
 2549SOL    HW2 7844   3.710   0.786   3.887  2.3496 -0.9730  0.1792
 2550SOL     OW 7845   4.391   1.011   0.727  0.6036 -0.2157  0.2528
 2550SOL    HW1 7846   4.394   0.986   0.819 -0.1314 -1.3581 -0.0145
 2550SOL    HW2 7847   4.483   1.021   0.702  0.7954  0.7529  1.2568
 2551SOL     OW 7848   0.513   0.455   4.816  0.1955  0.1793 -0.9941
 2551SOL    HW1 7849   0.600   0.483   4.789  0.2753  0.3035 -0.6124
 2551SOL    HW2 7850   0.516   0.360   4.817  0.4124  0.1880 -0.7095
 2552SOL     OW 7851   3.661   0.843   4.554  0.2222  0.5130 -0.1622
 2552SOL    HW1 7852   3.731   0.903   4.581 -0.0698  0.8227 -0.0961
 2552SOL    HW2 7853   3.707   0.770   4.512  0.5718  0.8236 -0.3219
 2553SOL     OW 7854   1.482   3.282   0.211 -0.4220  0.4684  0.4204
 2553SOL    HW1 7855   1.461   3.233   0.131  0.6699 -0.5238  0.7130
 2553SOL    HW2 7856   1.557   3.236   0.248 -2.4088 -0.6635  3.3877
 2554SOL     OW 7857   3.958   1.128   4.455 -0.5573 -0.3915  0.3662
 2554SOL    HW1 7858   3.869   1.103   4.479 -0.6817  0.4313  0.8166
 2554SOL    HW2 7859   3.988   1.059   4.396 -2.1877  0.3194 -1.3634
 2555SOL     OW 7860   0.697   3.706   4.551 -0.3544 -0.0515 -0.1477
 2555SOL    HW1 7861   0.663   3.783   4.597 -0.6860  0.2816 -0.9352
 2555SOL    HW2 7862   0.786   3.696   4.585 -1.4676 -1.5195  2.6732
 2556SOL     OW 7863   1.276   3.881   2.636  0.1626 -0.8210 -0.4493
 2556SOL    HW1 7864   1.276   3.896   2.542 -2.4134  1.3197 -0.2478
 2556SOL    HW2 7865   1.255   3.789   2.646 -2.0894 -0.5534 -2.0458
 2557SOL     OW 7866   1.854   3.018   2.921  0.3253 -0.3913 -0.1164
 2557SOL    HW1 7867   1.933   3.025   2.974  1.0673  0.9405 -1.3441
 2557SOL    HW2 7868   1.784   3.001   2.985  1.2354  0.7826  1.2572
 2558SOL     OW 7869   4.210   4.722   4.448 -0.2198 -0.2897 -0.6879
 2558SOL    HW1 7870   4.177   4.792   4.393 -0.2661 -0.1901 -0.5348
 2558SOL    HW2 7871   4.267   4.670   4.391  1.6888  1.1980 -0.2383
 2559SOL     OW 7872   4.912   1.143   1.594  0.5856 -0.2161 -0.6170
 2559SOL    HW1 7873   4.977   1.093   1.643 -0.4810  0.8752  2.1008
 2559SOL    HW2 7874   4.945   1.233   1.594 -0.0868  0.0373 -0.7484
 2560SOL     OW 7875   4.322   4.683   1.214 -0.4936 -0.4585  0.2132
 2560SOL    HW1 7876   4.373   4.645   1.142 -2.6078 -0.6533 -1.2998
 2560SOL    HW2 7877   4.282   4.607   1.257 -1.4384 -0.2281 -0.2131
 2561SOL     OW 7878   2.806   4.542   3.619 -0.2288  0.4556  0.0397
 2561SOL    HW1 7879   2.831   4.623   3.574  0.1877  0.1552 -0.2772
 2561SOL    HW2 7880   2.772   4.486   3.549  1.0002 -0.2499 -0.0069
 2562SOL     OW 7881   4.564   2.254   2.243  0.0875 -0.0388  0.2446
 2562SOL    HW1 7882   4.533   2.337   2.279 -0.6337  0.1920 -0.8392
 2562SOL    HW2 7883   4.483   2.206   2.220  0.4925 -0.1379 -1.0899
 2563SOL     OW 7884   4.733   0.794   0.393  0.6595  0.3125 -0.3773
 2563SOL    HW1 7885   4.701   0.727   0.332  0.5426  0.9726 -1.0547
 2563SOL    HW2 7886   4.828   0.781   0.394  0.5928 -0.1859 -0.1136
 2564SOL     OW 7887   0.374   0.966   1.912  0.1656  0.2537 -0.0772
 2564SOL    HW1 7888   0.375   0.976   1.817 -0.4664  0.6798 -0.0419
 2564SOL    HW2 7889   0.287   0.932   1.932  1.3503 -3.0743  0.0608
 2565SOL     OW 7890   1.232   3.314   2.865  0.6508 -0.0539  0.1279
 2565SOL    HW1 7891   1.172   3.245   2.893 -0.1675  0.9223  0.8604
 2565SOL    HW2 7892   1.304   3.267   2.823  0.2278 -1.3660  0.7951
 2566SOL     OW 7893   2.053   2.379   1.603  0.5641 -0.5248  0.0640
 2566SOL    HW1 7894   2.055   2.289   1.638 -1.6154 -0.2386  1.1301
 2566SOL    HW2 7895   1.963   2.390   1.573  0.7168  1.3965  0.1991
 2567SOL     OW 7896   3.967   4.149   0.610 -0.7036 -0.1465  0.2829
 2567SOL    HW1 7897   4.033   4.080   0.600 -0.7348 -0.0231 -1.0208
 2567SOL    HW2 7898   3.931   4.136   0.698  1.9522  0.5753  1.5718
 2568SOL     OW 7899   1.840   0.292   4.104 -0.0541 -0.5083 -0.3331
 2568SOL    HW1 7900   1.782   0.367   4.113 -2.2314 -2.2859  2.9375
 2568SOL    HW2 7901   1.928   0.327   4.118 -0.8517  1.6287 -0.4201
 2569SOL     OW 7902   3.627   4.687   3.116  0.1123 -0.5235  0.4336
 2569SOL    HW1 7903   3.692   4.726   3.174  0.1984 -2.4026  1.7152
 2569SOL    HW2 7904   3.544   4.725   3.145  0.5024  1.0965 -0.5118
 2570SOL     OW 7905   4.372   1.127   2.496  0.3286 -0.3368 -0.4642
 2570SOL    HW1 7906   4.293   1.100   2.450 -0.6962 -0.6278  1.3794
 2570SOL    HW2 7907   4.358   1.101   2.587  1.3394  2.0814  0.4803
 2571SOL     OW 7908   3.846   1.673   0.554  0.9473  0.4678  0.3570
 2571SOL    HW1 7909   3.933   1.712   0.564  2.2280 -2.1421  0.1700
 2571SOL    HW2 7910   3.859   1.581   0.575 -1.7621 -0.0305  0.1092
 2572SOL     OW 7911   4.796   4.804   3.376  0.0635 -0.3058  0.4019
 2572SOL    HW1 7912   4.806   4.781   3.283  1.1039 -2.5242  0.9921
 2572SOL    HW2 7913   4.756   4.726   3.415  3.4322 -1.2058  2.4889
 2573SOL     OW 7914   2.565   1.648   1.749  0.0607  0.3263  0.0855
 2573SOL    HW1 7915   2.657   1.623   1.742  0.0613 -0.1386  1.4376
 2573SOL    HW2 7916   2.529   1.633   1.662  0.6775 -1.8866  0.1554
 2574SOL     OW 7917   1.998   1.995   2.119  0.0621 -0.1896 -0.2727
 2574SOL    HW1 7918   1.954   1.931   2.175 -0.2588  2.4719  2.8355
 2574SOL    HW2 7919   2.091   1.973   2.127 -0.1181 -1.0341 -0.3538
 2575SOL     OW 7920   3.038   0.387   4.143 -0.3627  0.1920  0.0958
 2575SOL    HW1 7921   3.098   0.409   4.214  0.0101 -1.0326  0.1763
 2575SOL    HW2 7922   3.092   0.342   4.078 -0.6199  1.5831 -1.1510
 2576SOL     OW 7923   2.131   4.160   3.595 -0.5391  0.2181 -0.2025
 2576SOL    HW1 7924   2.201   4.225   3.581 -1.6557  1.3901 -0.5829
 2576SOL    HW2 7925   2.095   4.145   3.507 -0.9244 -0.1816  0.0232
 2577SOL     OW 7926   2.442   3.465   1.996  0.0854  0.4036 -0.0106
 2577SOL    HW1 7927   2.537   3.452   1.992 -0.0172 -1.8365  2.2687
 2577SOL    HW2 7928   2.429   3.525   2.069 -0.2828  0.1020  0.1759
 2578SOL     OW 7929   4.933   3.896   0.621 -0.0810 -0.1784  0.4292
 2578SOL    HW1 7930   4.850   3.942   0.627 -0.0813  0.1872 -1.5246
 2578SOL    HW2 7931   4.940   3.871   0.528  1.9301 -0.2809  0.5541
 2579SOL     OW 7932   4.010   3.671   1.195 -0.0116 -0.9589  0.4602
 2579SOL    HW1 7933   4.063   3.593   1.179  1.3460 -0.1880  1.0015
 2579SOL    HW2 7934   4.003   3.676   1.290  0.1946 -0.2473  0.4426
 2580SOL     OW 7935   1.051   2.278   3.133 -0.0777  0.5183  0.6980
 2580SOL    HW1 7936   1.032   2.185   3.128 -0.7432  0.6614  0.5053
 2580SOL    HW2 7937   1.032   2.302   3.223 -1.3350  0.7664  0.3791
 2581SOL     OW 7938   3.905   0.267   1.088 -0.4388  0.0377 -0.1165
 2581SOL    HW1 7939   3.958   0.346   1.098 -1.4864  0.6891  0.5148
 2581SOL    HW2 7940   3.858   0.280   1.006  0.3291 -0.5207 -0.6554
 2582SOL     OW 7941   2.569   0.386   3.243  0.1811 -0.0258 -0.3141
 2582SOL    HW1 7942   2.491   0.366   3.295 -0.8081  1.2195 -1.2463
 2582SOL    HW2 7943   2.599   0.301   3.211  0.2838 -0.7154  1.5097
 2583SOL     OW 7944   2.357   0.059   0.096  0.1015  0.0720 -0.4097
 2583SOL    HW1 7945   2.303  -0.019   0.085  0.1332 -0.0798  0.4871
 2583SOL    HW2 7946   2.350   0.081   0.189  1.1095  0.3964 -0.3968
 2584SOL     OW 7947   2.905   3.675   1.769  0.0406  0.1760 -0.1458
 2584SOL    HW1 7948   2.977   3.635   1.721 -0.8274  2.0445 -3.3343
 2584SOL    HW2 7949   2.851   3.602   1.798  1.3862 -1.0978 -0.7408
 2585SOL     OW 7950   0.192   2.797   3.730  0.4494 -0.0090  0.4651
 2585SOL    HW1 7951   0.283   2.817   3.709 -0.2212  0.6577 -2.2226
 2585SOL    HW2 7952   0.159   2.752   3.652 -1.4890 -0.3388  1.4263
 2586SOL     OW 7953   4.782   4.165   2.135 -0.2530  0.0403 -0.4599
 2586SOL    HW1 7954   4.762   4.092   2.194  0.8902  1.1382  1.4056
 2586SOL    HW2 7955   4.875   4.156   2.117 -0.4278  0.1900 -1.4847
 2587SOL     OW 7956   1.034   1.592   1.599  0.6525  0.3860 -0.4820
 2587SOL    HW1 7957   1.078   1.677   1.603  0.1767  0.7258 -1.8380
 2587SOL    HW2 7958   0.941   1.613   1.606  0.4958  0.0421 -1.3726
 2588SOL     OW 7959   1.795   4.076   2.286 -0.2242 -0.5969 -0.1158
 2588SOL    HW1 7960   1.777   4.028   2.367  1.8118  0.8134  1.2719
 2588SOL    HW2 7961   1.758   4.163   2.301  0.5686 -0.1856 -0.4972
 2589SOL     OW 7962   4.655   4.598   4.542 -0.1517 -0.6998  0.4447
 2589SOL    HW1 7963   4.661   4.681   4.494  0.6953  0.1447  1.9208
 2589SOL    HW2 7964   4.561   4.581   4.548 -0.3320  0.0585 -0.0641
 2590SOL     OW 7965   4.012   1.333   1.133  0.7287 -0.0749 -0.5224
 2590SOL    HW1 7966   4.034   1.340   1.226 -2.3876  3.3617  0.2035
 2590SOL    HW2 7967   4.074   1.392   1.089  1.2108 -0.5149 -0.4466
 2591SOL     OW 7968   4.094   0.246   2.289 -0.0847  0.4718 -0.2510
 2591SOL    HW1 7969   4.062   0.169   2.241 -0.7333  1.8674 -2.1848
 2591SOL    HW2 7970   4.145   0.210   2.361 -0.6358 -1.7729 -0.9068
 2592SOL     OW 7971   0.764   4.860   0.333  0.2059 -0.2916 -0.1267
 2592SOL    HW1 7972   0.840   4.904   0.372 -0.0915  0.2852 -0.1927
 2592SOL    HW2 7973   0.800   4.779   0.296  0.8007  0.0176 -0.2346
 2593SOL     OW 7974   4.549   3.538   0.289 -0.5238 -0.2943  0.6187
 2593SOL    HW1 7975   4.555   3.443   0.278 -2.2048 -0.2616 -1.3967
 2593SOL    HW2 7976   4.455   3.555   0.285 -0.1821  1.5602 -0.5151
 2594SOL     OW 7977   0.133   0.761   1.679 -0.4210 -0.3652  0.4712
 2594SOL    HW1 7978   0.112   0.675   1.716  0.2116 -0.5730  0.3605
 2594SOL    HW2 7979   0.052   0.789   1.637  0.0431 -2.0791 -1.7755
 2595SOL     OW 7980   2.082   3.006   0.379  0.4029 -0.1071 -0.8399
 2595SOL    HW1 7981   2.088   2.975   0.288 -3.6255 -0.2321 -1.2380
 2595SOL    HW2 7982   2.077   3.101   0.371  2.1209  0.0589 -0.4711
 2596SOL     OW 7983   3.394   2.281   0.278 -0.0017  0.5117  0.2213
 2596SOL    HW1 7984   3.372   2.317   0.192  2.1499 -0.9173 -1.0184
 2596SOL    HW2 7985   3.467   2.222   0.261  0.4513  0.1303  3.0515
 2597SOL     OW 7986   4.403   3.067   0.565  0.5184  0.2686  0.1729
 2597SOL    HW1 7987   4.356   2.989   0.594 -1.3608  0.8677 -1.1312
 2597SOL    HW2 7988   4.335   3.132   0.547  2.0660  2.9388  3.0135
 2598SOL     OW 7989   4.385   4.398   2.662  0.2920 -0.4226  0.2424
 2598SOL    HW1 7990   4.434   4.392   2.744  1.7696  1.4899 -0.4264
 2598SOL    HW2 7991   4.297   4.425   2.688  0.1067 -1.9174  1.3108
 2599SOL     OW 7992   1.856   2.112   2.533  0.2533  0.6312 -0.0839
 2599SOL    HW1 7993   1.887   2.035   2.580 -1.8797 -0.2677 -0.0632
 2599SOL    HW2 7994   1.853   2.181   2.600 -1.2195 -0.2168  0.7636
 2600SOL     OW 7995   0.499   0.726   2.257  0.1747 -0.1649 -0.0296
 2600SOL    HW1 7996   0.565   0.699   2.320  0.5411 -1.0999 -0.7847
 2600SOL    HW2 7997   0.548   0.742   2.176 -0.3149  0.7722 -0.1579
 2601SOL     OW 7998   0.262   0.286   1.320 -0.4750  0.6077  0.2220
 2601SOL    HW1 7999   0.259   0.380   1.339 -1.3980  0.6479 -0.1049
 2601SOL    HW2 8000   0.256   0.244   1.406 -0.3242  0.8423  0.3477
 2602SOL     OW 8001   2.962   4.890   4.809  0.2440  0.0147  0.3542
 2602SOL    HW1 8002   2.895   4.910   4.875  0.8130  3.6289  0.0034
 2602SOL    HW2 8003   2.915   4.895   4.726  0.4232 -0.0873  0.2463
 2603SOL     OW 8004   0.056   4.161   1.275 -0.4788 -0.1693  0.2419
 2603SOL    HW1 8005   0.142   4.145   1.314  0.1363  1.0774 -0.5602
 2603SOL    HW2 8006   0.005   4.201   1.346 -0.0556  0.0746  0.4126
 2604SOL     OW 8007   4.458   3.644   3.354 -0.1493  0.0818 -0.2846
 2604SOL    HW1 8008   4.528   3.588   3.388  0.2974  0.8828  0.1340
 2604SOL    HW2 8009   4.461   3.722   3.408 -0.7262  0.5518 -0.9100
 2605SOL     OW 8010   0.723   1.654   1.324  0.1345  0.0465 -0.5785
 2605SOL    HW1 8011   0.810   1.685   1.301  0.2520  0.8734  0.8538
 2605SOL    HW2 8012   0.663   1.705   1.269  0.5471 -1.0336 -2.0912
 2606SOL     OW 8013   1.152   1.042   4.802 -0.0803 -0.1697 -0.3474
 2606SOL    HW1 8014   1.165   0.965   4.748 -1.6624  0.1020 -1.1729
 2606SOL    HW2 8015   1.172   1.116   4.745  0.6556  0.0607  0.1961
 2607SOL     OW 8016   0.831   3.411   1.950 -0.1480 -0.0604  0.6286
 2607SOL    HW1 8017   0.809   3.501   1.974 -1.1567 -0.2045  0.3272
 2607SOL    HW2 8018   0.842   3.414   1.855  1.4513  0.0458  0.7872
 2608SOL     OW 8019   3.188   0.487   3.042  0.0206 -0.1453 -0.3551
 2608SOL    HW1 8020   3.104   0.497   2.996 -0.7076  0.6778  1.0803
 2608SOL    HW2 8021   3.231   0.572   3.031  0.8897 -0.7051 -1.4561
 2609SOL     OW 8022   1.448   3.556   1.382  0.4166  0.4153 -0.2254
 2609SOL    HW1 8023   1.490   3.555   1.468 -1.1288  2.3368  0.6267
 2609SOL    HW2 8024   1.422   3.465   1.367 -1.5703  0.4048  2.5544
 2610SOL     OW 8025   4.541   2.788   0.520  0.6424 -0.2022  0.1104
 2610SOL    HW1 8026   4.506   2.773   0.432 -1.0844 -1.9157  1.0029
 2610SOL    HW2 8027   4.583   2.873   0.515  0.7760 -0.3389 -2.4193
 2611SOL     OW 8028   4.527   1.318   3.353 -0.3021  0.0654  0.2927
 2611SOL    HW1 8029   4.559   1.403   3.323 -0.7576  0.5677  1.1778
 2611SOL    HW2 8030   4.492   1.276   3.274  1.1566  0.1129 -0.4072
 2612SOL     OW 8031   2.485   4.432   4.902 -0.3153 -0.9224  0.1547
 2612SOL    HW1 8032   2.427   4.502   4.874  0.3042 -1.0142 -1.4841
 2612SOL    HW2 8033   2.572   4.459   4.871  0.3410 -1.3143  1.5677
 2613SOL     OW 8034   2.098   0.304   2.536  0.0530 -0.1312 -0.0391
 2613SOL    HW1 8035   2.059   0.285   2.451  0.7251  0.6377 -0.5308
 2613SOL    HW2 8036   2.154   0.228   2.554  0.9949  0.3283 -0.9484
 2614SOL     OW 8037   3.000   4.925   2.008 -0.5333  0.2211  0.2763
 2614SOL    HW1 8038   2.952   4.884   2.080 -0.6713 -1.0447 -0.5142
 2614SOL    HW2 8039   2.933   4.968   1.955 -0.5000  0.6363  0.5692
 2615SOL     OW 8040   4.134   3.621   3.200 -0.1198 -0.0323 -0.4693
 2615SOL    HW1 8041   4.136   3.526   3.210  0.9402 -0.0027 -0.2514
 2615SOL    HW2 8042   4.043   3.641   3.179 -0.4492 -1.0465 -0.0831
 2616SOL     OW 8043   4.756   3.388   0.011  0.0948 -0.3183 -0.1714
 2616SOL    HW1 8044   4.667   3.399   0.043 -0.4971 -0.6195 -1.6558
 2616SOL    HW2 8045   4.811   3.418   0.084 -1.2273  1.4866  0.1660
 2617SOL     OW 8046   0.149   1.093   2.726 -0.8617 -0.1626 -0.4768
 2617SOL    HW1 8047   0.172   1.011   2.769  2.1648  0.7525 -0.0688
 2617SOL    HW2 8048   0.098   1.141   2.791  1.0806 -0.0275  1.0473
 2618SOL     OW 8049   0.067   1.938   0.686  0.1685  0.1657 -0.1667
 2618SOL    HW1 8050  -0.019   1.980   0.693 -0.4193 -0.8594 -0.9684
 2618SOL    HW2 8051   0.129   2.008   0.706 -0.8491  0.8671  0.6740
 2619SOL     OW 8052   0.943   1.271   4.798  0.6280  0.2636  0.6470
 2619SOL    HW1 8053   1.003   1.237   4.732  0.4539 -0.6168  0.9360
 2619SOL    HW2 8054   0.990   1.262   4.881 -0.0587 -0.8428  0.9327
 2620SOL     OW 8055   4.628   2.581   3.493 -0.0726  0.1093 -0.0911
 2620SOL    HW1 8056   4.699   2.558   3.434 -1.8305 -1.6773 -1.6235
 2620SOL    HW2 8057   4.566   2.508   3.487 -1.0325  0.5118  2.8916
 2621SOL     OW 8058   4.195   1.562   2.763  0.0215  0.1871 -0.2143
 2621SOL    HW1 8059   4.171   1.483   2.714 -0.3709 -1.1010  1.9357
 2621SOL    HW2 8060   4.130   1.627   2.736  0.1693 -0.2738 -1.8022
 2622SOL     OW 8061   2.608   4.070   1.444  0.3462 -0.4651  0.0757
 2622SOL    HW1 8062   2.657   4.120   1.379  1.5898 -1.2100  0.4221
 2622SOL    HW2 8063   2.657   3.988   1.454 -1.3053 -1.5135 -0.0242
 2623SOL     OW 8064   0.531   1.165   3.969 -0.3177 -0.0018  0.4923
 2623SOL    HW1 8065   0.474   1.159   4.045  0.3115  1.9725  1.1908
 2623SOL    HW2 8066   0.481   1.216   3.905  0.0603  0.3960  0.5088
 2624SOL     OW 8067   4.177   2.298   2.432  0.9152  0.3010  0.0872
 2624SOL    HW1 8068   4.134   2.383   2.425 -0.1872 -0.1772  0.8355
 2624SOL    HW2 8069   4.215   2.297   2.520 -1.2716 -0.9354  1.0980
 2625SOL     OW 8070   1.078   2.499   0.825  0.4505 -0.4761 -0.3951
 2625SOL    HW1 8071   1.106   2.509   0.916 -0.3922 -2.2756  0.1101
 2625SOL    HW2 8072   1.149   2.449   0.784  0.9889  0.6248 -0.8431
 2626SOL     OW 8073   0.559   1.307   2.428 -0.4951  0.1752 -0.2993
 2626SOL    HW1 8074   0.484   1.312   2.487 -0.8933  0.2708 -0.8138
 2626SOL    HW2 8075   0.570   1.213   2.412  0.3765  0.0519  0.8899
 2627SOL     OW 8076   4.603   0.617   0.208  0.0986 -0.1145 -0.0633
 2627SOL    HW1 8077   4.645   0.531   0.220 -0.4677 -0.1828  1.8685
 2627SOL    HW2 8078   4.510   0.596   0.194 -0.0648  0.1647  0.5580
 2628SOL     OW 8079   2.700   1.714   3.204  0.8545  0.0770 -0.1086
 2628SOL    HW1 8080   2.769   1.695   3.140  0.7372  0.9342 -0.5005
 2628SOL    HW2 8081   2.686   1.809   3.197  0.2085  0.0389  0.5518
 2629SOL     OW 8082   0.186   2.709   0.263 -0.2872 -0.3967  0.4086
 2629SOL    HW1 8083   0.099   2.739   0.290  0.0703  0.6043  0.5224
 2629SOL    HW2 8084   0.186   2.718   0.168 -0.3598 -0.5400  0.3953
 2630SOL     OW 8085   3.818   2.170   2.767  0.0335 -0.2075 -0.1123
 2630SOL    HW1 8086   3.888   2.160   2.832 -0.5331  0.1954  0.5759
 2630SOL    HW2 8087   3.836   2.255   2.727  1.0235 -0.9443 -1.2849
 2631SOL     OW 8088   4.724   3.468   3.011  0.1231 -0.6915  0.2842
 2631SOL    HW1 8089   4.799   3.489   3.068 -1.6143  0.2456  2.3710
 2631SOL    HW2 8090   4.747   3.506   2.927  2.6319 -1.7436  0.3920
 2632SOL     OW 8091   4.541   0.139   4.011  0.3412 -0.8264  0.6345
 2632SOL    HW1 8092   4.503   0.219   3.976 -0.9652 -1.4338  0.6183
 2632SOL    HW2 8093   4.566   0.088   3.934 -0.7565 -1.3221  0.5848
 2633SOL     OW 8094   3.124   1.118   0.947  0.4815  0.3938 -0.2564
 2633SOL    HW1 8095   3.047   1.171   0.924  0.5335  0.2387 -0.7975
 2633SOL    HW2 8096   3.135   1.132   1.041 -1.4054 -1.1501  0.2534
 2634SOL     OW 8097   4.177   0.532   3.109 -0.3082  0.1105 -0.2213
 2634SOL    HW1 8098   4.086   0.548   3.134 -0.5466 -1.9108  0.3725
 2634SOL    HW2 8099   4.186   0.437   3.109  2.3243  0.2484  1.6125
 2635SOL     OW 8100   4.121   0.526   4.779 -0.2061 -0.6932  0.1862
 2635SOL    HW1 8101   4.152   0.437   4.799 -0.0259 -0.9369 -1.0487
 2635SOL    HW2 8102   4.038   0.513   4.734 -1.2057 -0.1183  1.8015
 2636SOL     OW 8103   4.024   4.601   3.826 -0.1924 -0.5006  0.5414
 2636SOL    HW1 8104   4.030   4.612   3.921 -1.8821  1.0765  0.5249
 2636SOL    HW2 8105   3.969   4.674   3.797 -2.4037 -2.7378 -1.2573
 2637SOL     OW 8106   4.468   4.498   4.023 -0.6631  0.1212  0.2158
 2637SOL    HW1 8107   4.454   4.590   4.000 -1.6183 -0.0661 -0.0075
 2637SOL    HW2 8108   4.471   4.453   3.939 -0.1033 -0.0405  0.3236
 2638SOL     OW 8109   3.133   4.435   0.326 -0.5304  0.2996 -0.1299
 2638SOL    HW1 8110   3.070   4.495   0.367 -0.4287  2.0769 -2.3697
 2638SOL    HW2 8111   3.218   4.471   0.349 -0.3703 -0.5756  0.7059
 2639SOL     OW 8112   1.055   3.189   0.985 -0.3308 -0.2883 -0.2798
 2639SOL    HW1 8113   1.009   3.260   0.941  2.0875  1.1220 -0.7636
 2639SOL    HW2 8114   0.989   3.121   0.997 -2.4615  1.5378 -0.9178
 2640SOL     OW 8115   1.756   1.418   2.939  0.0127 -0.3733 -0.1215
 2640SOL    HW1 8116   1.834   1.470   2.959 -0.0930  0.2850 -1.3318
 2640SOL    HW2 8117   1.760   1.404   2.844 -1.0223 -0.8586 -0.1090
 2641SOL     OW 8118   4.689   2.581   0.553  0.0029 -0.6340  0.1683
 2641SOL    HW1 8119   4.723   2.542   0.472  2.9371  0.2692  0.8585
 2641SOL    HW2 8120   4.661   2.668   0.527  0.4355 -0.5404 -0.0002
 2642SOL     OW 8121   4.609   3.390   3.420  0.0628  0.0488  0.3223
 2642SOL    HW1 8122   4.624   3.324   3.487 -1.5265  0.0467  0.7158
 2642SOL    HW2 8123   4.696   3.421   3.397  0.7254 -0.9812  1.3440
 2643SOL     OW 8124   0.088   0.973   0.279  0.0183 -0.0260 -0.5476
 2643SOL    HW1 8125   0.022   0.904   0.269 -1.4451  0.8383  2.0884
 2643SOL    HW2 8126   0.117   0.964   0.370  1.2086  1.6250 -0.7246
 2644SOL     OW 8127   0.092   2.238   4.732  0.2093 -0.3836  0.1924
 2644SOL    HW1 8128   0.063   2.308   4.790  0.2563 -0.2475  0.0497
 2644SOL    HW2 8129   0.081   2.273   4.644 -1.4093 -1.1752  0.0380
 2645SOL     OW 8130   1.825   1.426   3.272 -0.4796  0.5260 -0.0999
 2645SOL    HW1 8131   1.912   1.451   3.303 -0.1771 -0.9714  0.3555
 2645SOL    HW2 8132   1.824   1.449   3.179  0.5780  0.1527 -0.2127
 2646SOL     OW 8133   0.714   1.938   3.613  0.2093  0.6388  0.2390
 2646SOL    HW1 8134   0.672   2.018   3.646  1.4787  1.9360 -1.0687
 2646SOL    HW2 8135   0.778   1.971   3.549  1.5096 -1.3872  0.4298
 2647SOL     OW 8136   0.811   4.253   3.124  0.0347  0.0023  0.1605
 2647SOL    HW1 8137   0.753   4.267   3.049 -0.9883  1.2855  1.1553
 2647SOL    HW2 8138   0.884   4.313   3.110 -0.2995  0.4529  0.3173
 2648SOL     OW 8139   1.409   0.358   0.544  0.5055  0.4740 -0.5877
 2648SOL    HW1 8140   1.494   0.395   0.571  0.8222  1.2402 -2.4628
 2648SOL    HW2 8141   1.348   0.431   0.553  0.2177  0.1694 -0.0645
 2649SOL     OW 8142   2.381   2.951   4.772  0.2380 -0.4026 -0.0082
 2649SOL    HW1 8143   2.331   2.889   4.719 -0.0735 -1.3136  1.3253
 2649SOL    HW2 8144   2.315   3.011   4.807  0.4506  0.2326 -0.6643
 2650SOL     OW 8145   1.782   1.850   3.385 -0.4970  0.2576  0.2278
 2650SOL    HW1 8146   1.772   1.890   3.471 -1.4635  0.2485  0.1246
 2650SOL    HW2 8147   1.698   1.808   3.368 -0.2408  0.0803 -0.6347
 2651SOL     OW 8148   3.239   2.886   1.646  0.0375  0.0042 -0.9038
 2651SOL    HW1 8149   3.232   2.896   1.551  1.2158 -0.8877 -1.1041
 2651SOL    HW2 8150   3.284   2.966   1.675 -0.2465  0.2377 -1.0995
 2652SOL     OW 8151   0.992   1.270   2.776 -0.5911 -0.3984  0.2135
 2652SOL    HW1 8152   1.081   1.302   2.764 -0.2769 -0.3512  2.2396
 2652SOL    HW2 8153   0.995   1.179   2.746  0.3433 -0.6082  0.8740
 2653SOL     OW 8154   0.840   3.152   2.002  0.0599  0.7287 -1.2782
 2653SOL    HW1 8155   0.926   3.142   2.044  0.7506  0.9894 -2.5736
 2653SOL    HW2 8156   0.830   3.246   1.989 -1.9118  1.0664  1.7568
 2654SOL     OW 8157   2.110   3.277   4.050  0.7789 -0.1419 -0.6983
 2654SOL    HW1 8158   2.036   3.265   3.990  0.1668  0.5819 -0.1037
 2654SOL    HW2 8159   2.108   3.201   4.107  2.2136 -1.5884 -2.4190
 2655SOL     OW 8160   0.144   3.137   1.274  0.1346 -0.2258  0.4522
 2655SOL    HW1 8161   0.154   3.222   1.230 -1.6163  0.2586  0.9038
 2655SOL    HW2 8162   0.092   3.084   1.214  0.8916 -0.8648  0.3427
 2656SOL     OW 8163   3.055   4.652   0.768  0.0773 -0.2169  0.6969
 2656SOL    HW1 8164   3.027   4.579   0.823  0.2901 -1.0530 -0.2847
 2656SOL    HW2 8165   3.056   4.727   0.827  0.7885 -1.1792  1.9531
 2657SOL     OW 8166   3.485   4.212   1.186 -0.1745  0.4834 -0.3954
 2657SOL    HW1 8167   3.557   4.153   1.166 -0.0221  0.2863  0.6816
 2657SOL    HW2 8168   3.408   4.156   1.188 -0.5041  0.7985 -2.2286
 2658SOL     OW 8169   2.705   3.155   2.410 -0.4073 -0.2532 -0.5318
 2658SOL    HW1 8170   2.696   3.250   2.420 -0.0845 -0.3301  0.6087
 2658SOL    HW2 8171   2.744   3.126   2.492 -0.4370 -1.3727 -0.9001
 2659SOL     OW 8172   3.776   2.099   3.469  0.1595  0.2726  0.4071
 2659SOL    HW1 8173   3.736   2.164   3.526  1.7219  0.2898  1.5518
 2659SOL    HW2 8174   3.848   2.145   3.426 -0.2981 -0.0466 -0.7416
 2660SOL     OW 8175   2.596   2.435   2.377 -0.1348 -0.1880 -0.5244
 2660SOL    HW1 8176   2.689   2.454   2.369 -0.4396  1.8032 -0.0316
 2660SOL    HW2 8177   2.587   2.390   2.461  0.4268 -0.8394 -0.8098
 2661SOL     OW 8178   2.475   1.342   1.508  0.3773  0.6716  0.2066
 2661SOL    HW1 8179   2.423   1.421   1.497 -0.7205 -0.2583 -1.9498
 2661SOL    HW2 8180   2.502   1.319   1.419  0.6218 -1.4013  0.7630
 2662SOL     OW 8181   3.609   3.926   3.298 -0.2575  0.0466  0.4796
 2662SOL    HW1 8182   3.699   3.917   3.328 -0.0682  0.0407 -0.0661
 2662SOL    HW2 8183   3.612   3.897   3.206 -0.3322  2.2877 -0.2968
 2663SOL     OW 8184   2.815   2.328   1.864 -0.4211 -0.6924 -0.3644
 2663SOL    HW1 8185   2.744   2.379   1.903  0.7332  0.4174  0.3412
 2663SOL    HW2 8186   2.874   2.393   1.826  1.0203 -1.4667  0.4475
 2664SOL     OW 8187   4.933   4.743   1.668  0.5515  0.6726 -0.0532
 2664SOL    HW1 8188   4.870   4.814   1.655 -1.5645 -1.4487 -2.7349
 2664SOL    HW2 8189   4.923   4.718   1.760 -1.3416  1.4839  0.0087
 2665SOL     OW 8190   4.911   0.180   0.413  0.5959 -0.1605 -0.6214
 2665SOL    HW1 8191   4.893   0.221   0.328 -0.0597 -1.7671 -1.2858
 2665SOL    HW2 8192   5.006   0.167   0.413  0.5823 -0.2984 -1.1894
 2666SOL     OW 8193   0.090   4.294   0.340 -0.0352  0.1963 -0.4065
 2666SOL    HW1 8194   0.124   4.373   0.299 -0.7718  0.9061  0.3338
 2666SOL    HW2 8195   0.126   4.223   0.287  0.0029  1.0453 -1.5553
 2667SOL     OW 8196   2.445   1.057   0.041 -0.2276 -0.2315 -0.4312
 2667SOL    HW1 8197   2.400   1.141   0.044  0.9354  0.3896  0.8128
 2667SOL    HW2 8198   2.511   1.068  -0.028 -1.7683 -1.0792 -2.1266
 2668SOL     OW 8199   1.135   3.520   2.091  0.3472  0.2632 -0.2830
 2668SOL    HW1 8200   1.225   3.552   2.081  0.4840 -0.0410 -0.0419
 2668SOL    HW2 8201   1.121   3.465   2.014  0.6409 -0.3212  0.0807
 2669SOL     OW 8202   1.044   2.578   1.451  0.5573  0.8330 -0.3583
 2669SOL    HW1 8203   1.071   2.488   1.469  0.1785  0.7160 -0.3747
 2669SOL    HW2 8204   1.110   2.632   1.495  0.0350  0.5483  0.8082
 2670SOL     OW 8205   1.475   2.646   4.463  0.1355 -0.3115  1.0781
 2670SOL    HW1 8206   1.479   2.567   4.411  1.3863  1.0933 -1.0924
 2670SOL    HW2 8207   1.384   2.650   4.493 -1.1071 -0.4605 -2.2879
 2671SOL     OW 8208   4.535   0.044   0.299  0.1340 -0.5817  0.2020
 2671SOL    HW1 8209   4.530   0.069   0.391  2.9368 -1.2991  0.6333
 2671SOL    HW2 8210   4.482  -0.036   0.294 -0.6104 -0.1580  1.0236
 2672SOL     OW 8211   2.724   2.139   1.214 -0.4345  0.0578 -0.1790
 2672SOL    HW1 8212   2.659   2.205   1.239  1.8084  2.2089  0.3735
 2672SOL    HW2 8213   2.789   2.141   1.284  0.6844 -1.4087 -1.0991
 2673SOL     OW 8214   1.557   2.261   4.723 -0.5057 -0.3788  0.0554
 2673SOL    HW1 8215   1.468   2.298   4.731 -0.2674  0.0495  0.9382
 2673SOL    HW2 8216   1.600   2.286   4.805  0.4054 -0.6638 -0.3248
 2674SOL     OW 8217   3.872   1.660   4.271  0.2274 -0.1297  0.2689
 2674SOL    HW1 8218   3.874   1.661   4.366  0.8309  2.3931  0.2735
 2674SOL    HW2 8219   3.789   1.615   4.250  1.6128 -3.8399  1.8199
 2675SOL     OW 8220   0.934   3.887   4.446  0.3606  0.1621  0.0812
 2675SOL    HW1 8221   0.915   3.909   4.537 -0.0839  0.3887 -0.0638
 2675SOL    HW2 8222   0.851   3.898   4.400  0.5819  0.0564 -0.3548
 2676SOL     OW 8223   1.065   3.835   0.870 -0.4288  0.0757 -0.5391
 2676SOL    HW1 8224   1.093   3.754   0.828 -1.1305 -0.1941 -0.4906
 2676SOL    HW2 8225   0.992   3.867   0.818 -0.6323  0.2890 -0.1349
 2677SOL     OW 8226   0.325   2.121   2.980 -0.3282 -0.3134 -0.1270
 2677SOL    HW1 8227   0.242   2.116   3.028 -0.8145 -0.7821 -0.9804
 2677SOL    HW2 8228   0.317   2.054   2.912  0.5352  0.0087 -0.5566
 2678SOL     OW 8229   4.250   1.269   4.241 -0.1209  0.2226 -0.2844
 2678SOL    HW1 8230   4.160   1.273   4.210 -0.2555  1.3204  0.2128
 2678SOL    HW2 8231   4.299   1.324   4.179 -0.1615  1.3112  0.6130
 2679SOL     OW 8232   4.041   2.308   4.435  0.2128 -0.4940  1.1343
 2679SOL    HW1 8233   4.097   2.351   4.370  1.5873 -1.5934  1.5345
 2679SOL    HW2 8234   4.055   2.215   4.422 -0.7928 -0.7735  1.9009
 2680SOL     OW 8235   3.440   0.263   3.617  0.8507  0.3076 -0.5935
 2680SOL    HW1 8236   3.471   0.354   3.612  1.4801  0.0331 -2.3688
 2680SOL    HW2 8237   3.409   0.243   3.528  1.3456 -1.4266 -0.4161
 2681SOL     OW 8238   3.294   2.890   2.951  0.6990  0.0134 -0.4188
 2681SOL    HW1 8239   3.382   2.906   2.917  0.9554  0.1675  0.3056
 2681SOL    HW2 8240   3.265   2.975   2.985  0.2215 -0.0089 -0.7518
 2682SOL     OW 8241   0.836   2.114   2.122  0.2729 -0.0069  0.7244
 2682SOL    HW1 8242   0.882   2.193   2.152  0.6914  0.2583 -0.5560
 2682SOL    HW2 8243   0.900   2.069   2.068 -0.6150 -0.1968 -0.1883
 2683SOL     OW 8244   1.610   4.626   2.928  0.4794 -0.1810 -0.1481
 2683SOL    HW1 8245   1.624   4.555   2.990 -0.3079 -1.4034 -1.3106
 2683SOL    HW2 8246   1.696   4.643   2.891  0.7018 -0.4019  0.2617
 2684SOL     OW 8247   2.026   1.722   3.309  0.9550  0.2515  0.2747
 2684SOL    HW1 8248   1.956   1.780   3.338  0.2476 -1.2423  1.6901
 2684SOL    HW2 8249   2.000   1.635   3.340  2.5991 -0.6185 -0.6631
 2685SOL     OW 8250   2.630   2.232   4.825  0.1175  0.0909  0.5564
 2685SOL    HW1 8251   2.711   2.214   4.777 -0.2378  1.6317 -0.7168
 2685SOL    HW2 8252   2.647   2.202   4.914  2.5287  1.4106  0.6343
 2686SOL     OW 8253   4.225   2.167   1.864  0.0783 -0.2991  0.8472
 2686SOL    HW1 8254   4.303   2.204   1.905 -0.9627  0.1132  2.5751
 2686SOL    HW2 8255   4.252   2.081   1.832  1.4244  0.1744  0.6781
 2687SOL     OW 8256   3.639   2.716   1.905  0.8783 -0.3252  0.3154
 2687SOL    HW1 8257   3.591   2.760   1.974  0.8700  0.9393 -0.4779
 2687SOL    HW2 8258   3.621   2.766   1.826  1.0295 -1.6359 -0.5947
 2688SOL     OW 8259   0.468   2.052   4.827  0.3796 -0.3285 -0.3700
 2688SOL    HW1 8260   0.419   1.980   4.787 -0.5170  0.9604 -1.7387
 2688SOL    HW2 8261   0.431   2.061   4.915  0.6371 -1.6380 -0.1173
 2689SOL     OW 8262   3.214   0.163   1.463  0.1468 -0.2988 -0.3399
 2689SOL    HW1 8263   3.161   0.199   1.534 -0.4852 -1.2701 -0.3121
 2689SOL    HW2 8264   3.293   0.131   1.507  0.7806  1.1166 -0.3786
 2690SOL     OW 8265   3.227   2.006   0.379 -0.0272 -0.0391 -0.0901
 2690SOL    HW1 8266   3.199   2.074   0.440  0.4081 -0.1837  0.2721
 2690SOL    HW2 8267   3.311   1.976   0.413  0.1398 -0.2385 -0.6659
 2691SOL     OW 8268   0.237   0.626   4.669  0.3298 -0.6147 -0.1345
 2691SOL    HW1 8269   0.248   0.531   4.670  0.3869 -0.6066 -0.0031
 2691SOL    HW2 8270   0.306   0.659   4.726  1.5408 -0.3589 -1.6860
 2692SOL     OW 8271   2.090   4.808   4.699  0.5817 -0.4888 -0.0573
 2692SOL    HW1 8272   2.103   4.741   4.632  0.5540  0.6917 -1.2801
 2692SOL    HW2 8273   2.164   4.868   4.687  0.3878 -0.0763  0.7428
 2693SOL     OW 8274   2.740   0.330   1.282 -0.4996  0.2910  0.3610
 2693SOL    HW1 8275   2.809   0.276   1.323  0.3323  1.2304  0.2449
 2693SOL    HW2 8276   2.781   0.416   1.270 -1.5265  0.7164 -0.2294
 2694SOL     OW 8277   3.020   1.314   3.187  0.1528 -0.2655  0.4915
 2694SOL    HW1 8278   3.113   1.332   3.171 -0.2862  0.9804 -0.8003
 2694SOL    HW2 8279   3.005   1.346   3.276  0.9888 -0.6753  0.7968
 2695SOL     OW 8280   2.339   0.847   0.725  0.8641 -0.2506  0.2138
 2695SOL    HW1 8281   2.333   0.892   0.641  1.8232 -0.0835  0.2238
 2695SOL    HW2 8282   2.418   0.793   0.718  2.5954  1.8678  1.9527
 2696SOL     OW 8283   4.684   2.199   0.573  0.0056  0.6001 -0.0970
 2696SOL    HW1 8284   4.689   2.119   0.520  0.2743  0.8848 -0.5160
 2696SOL    HW2 8285   4.592   2.223   0.574 -0.0756  0.2783  0.0380
 2697SOL     OW 8286   2.087   0.998   0.110 -0.3259 -0.2874  0.9860
 2697SOL    HW1 8287   2.100   0.910   0.074 -1.0004 -0.3167  0.7862
 2697SOL    HW2 8288   2.153   1.007   0.178  0.5749 -0.4667  0.1535
 2698SOL     OW 8289   3.911   1.656   4.543 -0.4041 -0.5654 -0.4737
 2698SOL    HW1 8290   3.916   1.564   4.566  0.8793 -0.1691  0.9576
 2698SOL    HW2 8291   3.926   1.703   4.625 -2.3689  0.9588 -0.8879
 2699SOL     OW 8292   2.837   3.984   1.143  0.0462  0.3007  0.4251
 2699SOL    HW1 8293   2.822   3.913   1.205  1.4636 -0.4118 -0.0008
 2699SOL    HW2 8294   2.887   3.943   1.072 -1.0013  1.2335 -0.8968
 2700SOL     OW 8295   4.417   4.547   3.006  0.0602 -0.3826  0.1754
 2700SOL    HW1 8296   4.364   4.534   2.928  0.5497 -0.2367 -0.1895
 2700SOL    HW2 8297   4.499   4.500   2.988  0.4810  0.2975  0.2766
 2701SOL     OW 8298   4.415   1.957   2.064 -0.0946 -0.3166  0.6046
 2701SOL    HW1 8299   4.476   1.933   2.134  0.5360  2.0365  0.9742
 2701SOL    HW2 8300   4.355   2.019   2.105 -0.5269  0.0997 -0.6147
 2702SOL     OW 8301   4.501   3.679   2.357 -0.6344  0.0578 -0.1522
 2702SOL    HW1 8302   4.483   3.651   2.267 -1.1179  1.8223 -0.6478
 2702SOL    HW2 8303   4.422   3.659   2.406 -1.1849  1.0066 -0.6258
 2703SOL     OW 8304   4.050   4.700   3.219 -0.4872 -0.4166 -0.2757
 2703SOL    HW1 8305   4.075   4.741   3.302  1.6194 -1.9780 -0.0260
 2703SOL    HW2 8306   4.047   4.606   3.240  3.3035 -1.2437 -2.5099
 2704SOL     OW 8307   2.085   0.802   1.872 -0.0065 -0.2172 -0.0485
 2704SOL    HW1 8308   2.134   0.847   1.803 -0.2795 -1.3872 -1.0563
 2704SOL    HW2 8309   2.149   0.787   1.941  1.0614 -1.4933 -1.2401
 2705SOL     OW 8310   3.169   1.306   0.615  0.0180  0.0472 -0.5365
 2705SOL    HW1 8311   3.170   1.375   0.681  0.3095  0.6635 -1.1702
 2705SOL    HW2 8312   3.206   1.229   0.660  1.7532  0.9002 -0.4456
 2706SOL     OW 8313   2.421   1.452   2.013 -0.1939  0.1807 -0.1051
 2706SOL    HW1 8314   2.403   1.394   1.939  0.7032 -1.2499  0.7360
 2706SOL    HW2 8315   2.379   1.534   1.990 -3.0587 -1.2882 -0.5941
 2707SOL     OW 8316   4.809   0.385   0.037 -0.1484 -0.0451  0.0923
 2707SOL    HW1 8317   4.896   0.349   0.050 -0.0340 -0.2484 -1.1221
 2707SOL    HW2 8318   4.805   0.407  -0.056 -0.4581  2.4580  0.6070
 2708SOL     OW 8319   4.450   4.930   0.927  0.3629 -0.0514  1.0167
 2708SOL    HW1 8320   4.382   4.863   0.925  0.9255 -0.7227  2.5646
 2708SOL    HW2 8321   4.517   4.894   0.985  1.1641  1.4169  1.0544
 2709SOL     OW 8322   4.546   0.827   4.595 -0.0602  0.1522  0.0424
 2709SOL    HW1 8323   4.471   0.829   4.535 -0.0146  0.4988 -0.0070
 2709SOL    HW2 8324   4.621   0.843   4.538  0.2272 -1.7588 -0.1586
 2710SOL     OW 8325   1.097   4.574   4.741 -0.0317  0.5030 -0.1685
 2710SOL    HW1 8326   1.081   4.620   4.658  0.4553 -0.1897 -0.6579
 2710SOL    HW2 8327   1.191   4.557   4.741  0.1524  1.4194  1.0297
 2711SOL     OW 8328   2.671   4.809   4.439 -0.5648 -0.0125 -0.1509
 2711SOL    HW1 8329   2.621   4.890   4.437  1.7173  1.6174  1.9516
 2711SOL    HW2 8330   2.728   4.814   4.363  1.5457  1.9123  1.4015
 2712SOL     OW 8331   4.001   3.714   1.993  0.1501  0.1496 -0.0684
 2712SOL    HW1 8332   3.985   3.754   2.079  0.9891 -0.9977  0.6473
 2712SOL    HW2 8333   4.092   3.686   1.996  0.8432  1.8398 -2.0952
 2713SOL     OW 8334   0.793   3.791   4.866 -0.2517  0.2239  0.3560
 2713SOL    HW1 8335   0.731   3.851   4.825 -1.1568 -0.5146  0.5959
 2713SOL    HW2 8336   0.856   3.770   4.797 -0.1868  1.0800  0.1422
 2714SOL     OW 8337   1.849   2.417   3.267  0.0738 -0.0266 -0.0379
 2714SOL    HW1 8338   1.851   2.500   3.220  1.3193 -0.1369 -0.1993
 2714SOL    HW2 8339   1.828   2.440   3.357 -0.0210  0.4176 -0.1724
 2715SOL     OW 8340   2.187   0.767   2.138 -0.5340 -0.7067 -0.8009
 2715SOL    HW1 8341   2.201   0.794   2.229 -1.0345  0.0752 -0.9522
 2715SOL    HW2 8342   2.094   0.784   2.122 -0.7330 -1.9718 -1.0932
 2716SOL     OW 8343   4.342   0.134   0.524 -0.7601  0.4340 -0.2047
 2716SOL    HW1 8344   4.389   0.217   0.523  0.1178 -0.0197 -2.0578
 2716SOL    HW2 8345   4.404   0.071   0.561  0.5048 -0.2866 -3.1885
 2717SOL     OW 8346   2.088   3.402   0.620 -1.2124 -0.0134  0.5277
 2717SOL    HW1 8347   2.115   3.361   0.702 -2.3362 -0.4872  0.6863
 2717SOL    HW2 8348   2.066   3.492   0.643 -2.6274 -0.4477  1.0124
 2718SOL     OW 8349   1.303   2.786   2.151  0.1127 -0.1955  0.2598
 2718SOL    HW1 8350   1.317   2.823   2.239 -0.4143  0.1017  0.2197
 2718SOL    HW2 8351   1.370   2.829   2.097  0.5639 -0.5200  0.5474
 2719SOL     OW 8352   1.634   4.755   1.115 -0.0593  0.1114 -0.0799
 2719SOL    HW1 8353   1.636   4.805   1.196  1.2891 -1.0798  0.6653
 2719SOL    HW2 8354   1.598   4.670   1.139 -1.8172  0.4755 -1.2200
 2720SOL     OW 8355   0.597   3.603   4.314  0.2446 -0.3014 -0.6054
 2720SOL    HW1 8356   0.678   3.553   4.307  1.6326  1.8922 -1.2239
 2720SOL    HW2 8357   0.599   3.640   4.403 -0.2718 -0.5456 -0.4882
 2721SOL     OW 8358   3.686   0.196   2.065 -0.4778 -0.3826 -0.3913
 2721SOL    HW1 8359   3.599   0.178   2.101 -0.4919  1.8543  0.9016
 2721SOL    HW2 8360   3.737   0.229   2.139  2.0542 -3.0756 -0.7500
 2722SOL     OW 8361   0.799   1.113   4.577  0.6249  0.5896  0.5729
 2722SOL    HW1 8362   0.843   1.198   4.579  1.1305  0.3768 -0.4521
 2722SOL    HW2 8363   0.733   1.123   4.508  0.8429  0.0909  0.2883
 2723SOL     OW 8364   4.145   1.939   3.099 -0.4801 -0.2462  0.7878
 2723SOL    HW1 8365   4.077   1.877   3.073  1.0003 -3.0193  2.8772
 2723SOL    HW2 8366   4.189   1.963   3.018 -1.9417 -0.8811 -0.2281
 2724SOL     OW 8367   0.166   3.693   2.356  0.8118  0.0190 -0.2684
 2724SOL    HW1 8368   0.117   3.614   2.332  0.5683 -0.1262  0.6583
 2724SOL    HW2 8369   0.243   3.692   2.299 -0.3165  0.3219 -1.8488
 2725SOL     OW 8370   0.258   1.775   1.159 -0.1854  0.0308 -0.0158
 2725SOL    HW1 8371   0.349   1.803   1.155  0.0662 -0.0932  2.8089
 2725SOL    HW2 8372   0.247   1.715   1.086  2.2738 -0.7000  0.1516
 2726SOL     OW 8373   4.122   4.855   1.212  0.1658 -0.5010  0.1130
 2726SOL    HW1 8374   4.209   4.816   1.200  0.9349  1.4289 -1.1353
 2726SOL    HW2 8375   4.137   4.949   1.201 -2.1945 -0.1731 -0.7839
 2727SOL     OW 8376   3.878   0.259   3.733  0.0052  0.0203 -0.0061
 2727SOL    HW1 8377   3.858   0.227   3.822  1.0589 -0.6633  0.0054
 2727SOL    HW2 8378   3.815   0.329   3.718 -0.7377 -0.4135  0.9629
 2728SOL     OW 8379   3.355   2.783   0.907 -0.7919  0.0728  0.4385
 2728SOL    HW1 8380   3.275   2.741   0.874 -0.8668 -0.6096  1.4694
 2728SOL    HW2 8381   3.323   2.860   0.954 -0.7151  0.7751 -0.6234
 2729SOL     OW 8382   0.093   3.729   4.439  0.1543 -0.0188  0.1953
 2729SOL    HW1 8383   0.097   3.650   4.385  0.6020 -0.8297  1.3669
 2729SOL    HW2 8384   0.002   3.758   4.433 -0.1180 -0.8759  0.0789
 2730SOL     OW 8385   4.399   2.748   4.520 -0.2217 -0.3389 -0.4394
 2730SOL    HW1 8386   4.381   2.824   4.465 -2.3153 -0.3835  0.1034
 2730SOL    HW2 8387   4.432   2.682   4.460  1.4802  0.9091 -0.9440
 2731SOL     OW 8388   2.786   4.785   0.665  0.2401  0.0905 -0.3984
 2731SOL    HW1 8389   2.730   4.795   0.588 -1.5427 -1.3245  0.6223
 2731SOL    HW2 8390   2.792   4.691   0.679  0.0699  0.3052  1.4781
 2732SOL     OW 8391   0.171   3.994   4.346 -0.0842  0.0344  0.7370
 2732SOL    HW1 8392   0.255   3.969   4.307 -0.0668 -0.0839  0.8494
 2732SOL    HW2 8393   0.134   3.912   4.379 -0.2448  0.0865  0.6864
 2733SOL     OW 8394   2.909   1.442   4.356 -0.1151  0.4186  0.4234
 2733SOL    HW1 8395   2.974   1.396   4.302 -1.0564 -2.3859  1.4918
 2733SOL    HW2 8396   2.834   1.454   4.297  0.2399  0.8802  0.0559
 2734SOL     OW 8397   2.759   2.374   3.567  0.1460  0.2198  0.2046
 2734SOL    HW1 8398   2.773   2.437   3.637 -0.7832  0.7649 -0.0780
 2734SOL    HW2 8399   2.700   2.308   3.605  0.0545  0.2381  0.0949
 2735SOL     OW 8400   4.600   1.045   3.490  0.2068  0.3790  0.5633
 2735SOL    HW1 8401   4.695   1.046   3.491  0.2100  0.2269  1.0572
 2735SOL    HW2 8402   4.575   1.137   3.478  0.4016  0.2018 -1.4903
 2736SOL     OW 8403   2.747   3.012   0.863 -0.2504 -0.0381 -0.2546
 2736SOL    HW1 8404   2.795   2.995   0.782 -1.0077 -1.7914 -0.3630
 2736SOL    HW2 8405   2.668   2.960   0.856 -0.7046  0.3831  1.2920
 2737SOL     OW 8406   4.878   0.705   4.146  0.0511 -0.4116  0.2867
 2737SOL    HW1 8407   4.937   0.630   4.143  2.1510  1.1938 -1.1600
 2737SOL    HW2 8408   4.922   0.768   4.202 -0.6607  0.5409 -0.2091
 2738SOL     OW 8409   0.155   4.129   0.576 -0.0554 -0.1781 -0.2756
 2738SOL    HW1 8410   0.164   4.211   0.529 -1.1332 -1.1370 -2.2671
 2738SOL    HW2 8411   0.067   4.097   0.554  0.7050 -2.3770 -0.4381
 2739SOL     OW 8412   1.077   3.639   0.649  0.3845  0.2196  0.2570
 2739SOL    HW1 8413   1.133   3.633   0.571  0.4689 -0.2065  0.3455
 2739SOL    HW2 8414   0.993   3.670   0.615  0.9334  1.7853  0.2627
 2740SOL     OW 8415   4.006   0.857   3.384 -0.4400  0.3148  0.2012
 2740SOL    HW1 8416   4.001   0.926   3.319 -2.3431  1.2656  1.2578
 2740SOL    HW2 8417   3.951   0.888   3.456 -1.3337 -2.2699  0.7427
 2741SOL     OW 8418   2.996   2.538   2.628  0.0742  0.2645 -0.0107
 2741SOL    HW1 8419   3.054   2.597   2.677  0.1531  2.0378 -2.0886
 2741SOL    HW2 8420   3.043   2.454   2.627  1.0970  0.8029  1.0334
 2742SOL     OW 8421   4.922   3.568   4.188  0.2188  0.2058  0.1220
 2742SOL    HW1 8422   4.835   3.607   4.196 -0.3535 -1.1490  0.7997
 2742SOL    HW2 8423   4.982   3.642   4.186 -0.9215  1.1491  0.0016
 2743SOL     OW 8424   3.827   2.868   4.715 -0.2821 -0.2652 -0.0897
 2743SOL    HW1 8425   3.822   2.868   4.810  1.3609 -0.7916  0.0243
 2743SOL    HW2 8426   3.741   2.835   4.687 -0.9673  0.3632  1.1719
 2744SOL     OW 8427   3.462   0.307   4.569 -0.5775  0.0405 -0.3710
 2744SOL    HW1 8428   3.389   0.369   4.570 -2.0822 -1.6366  0.9066
 2744SOL    HW2 8429   3.538   0.358   4.597 -1.8267  1.2309  1.0012
 2745SOL     OW 8430   4.566   4.127   2.790  0.5693  0.5200  0.3824
 2745SOL    HW1 8431   4.610   4.137   2.875 -0.7411  2.4960  0.9020
 2745SOL    HW2 8432   4.487   4.180   2.798 -1.0541 -1.5281 -1.1205
 2746SOL     OW 8433   1.697   3.401   0.474 -0.6354 -0.4395 -0.0250
 2746SOL    HW1 8434   1.634   3.377   0.542 -0.6444 -3.2115 -0.8589
 2746SOL    HW2 8435   1.701   3.324   0.417  1.6871  0.5763 -1.3963
 2747SOL     OW 8436   3.909   4.240   3.645  0.1021 -0.1177  0.1007
 2747SOL    HW1 8437   3.891   4.329   3.613  0.5756  0.1952  0.6811
 2747SOL    HW2 8438   3.999   4.244   3.677 -0.4507 -0.3230  1.7687
 2748SOL     OW 8439   3.788   3.559   0.504 -0.7400  0.7090 -0.2665
 2748SOL    HW1 8440   3.880   3.537   0.486 -0.9145  0.1388 -0.4740
 2748SOL    HW2 8441   3.742   3.536   0.424 -0.9195  1.9710 -0.5476
 2749SOL     OW 8442   1.351   1.400   0.688  0.7056  1.0659 -0.5614
 2749SOL    HW1 8443   1.287   1.441   0.628 -0.4420  1.0696  0.6204
 2749SOL    HW2 8444   1.326   1.432   0.774  0.1400 -1.6225  0.3553
 2750SOL     OW 8445   1.132   4.695   0.489  0.0794 -0.5149  0.0969
 2750SOL    HW1 8446   1.104   4.781   0.459  2.3306 -0.1920 -1.3297
 2750SOL    HW2 8447   1.115   4.637   0.416  0.2246 -0.9195  0.3808
 2751SOL     OW 8448   0.566   3.258   2.513 -0.2234  0.0073 -0.1236
 2751SOL    HW1 8449   0.573   3.234   2.421 -0.3746 -0.9054  0.0917
 2751SOL    HW2 8450   0.478   3.295   2.522 -0.1198  0.3285 -0.3857
 2752SOL     OW 8451   2.362   1.468   2.739  0.3336 -0.5582 -0.0650
 2752SOL    HW1 8452   2.320   1.385   2.760  0.7663 -0.7562  0.0101
 2752SOL    HW2 8453   2.402   1.454   2.654 -0.3793 -0.1343 -0.4785
 2753SOL     OW 8454   2.877   3.260   1.964  0.0958  0.3078  0.0177
 2753SOL    HW1 8455   2.967   3.273   1.994  0.4410 -1.5116 -0.0943
 2753SOL    HW2 8456   2.857   3.170   1.989 -1.6352  0.6161 -0.1439
 2754SOL     OW 8457   4.293   0.281   3.429 -0.0195 -0.2909  0.3587
 2754SOL    HW1 8458   4.215   0.305   3.479 -0.5635  1.2946 -1.1355
 2754SOL    HW2 8459   4.366   0.305   3.486 -0.6013  2.0555  0.2590
 2755SOL     OW 8460   1.793   1.727   2.669 -0.2406 -0.5161  0.2267
 2755SOL    HW1 8461   1.748   1.691   2.593 -0.0525  1.2249 -0.7607
 2755SOL    HW2 8462   1.729   1.787   2.709  0.7816  1.2147 -0.6111
 2756SOL     OW 8463   2.668   1.857   2.377 -0.5630  0.1985 -0.0483
 2756SOL    HW1 8464   2.654   1.774   2.331  0.2267 -0.3505  0.6672
 2756SOL    HW2 8465   2.589   1.868   2.431  0.5564 -1.6277  2.1162
 2757SOL     OW 8466   2.783   0.664   3.837  0.7624  0.2334  0.1299
 2757SOL    HW1 8467   2.840   0.661   3.760 -0.2394  0.0248 -0.6134
 2757SOL    HW2 8468   2.844   0.673   3.911  1.9348 -2.4887 -0.3893
 2758SOL     OW 8469   0.099   0.481   4.139  0.0255  0.5854 -0.0257
 2758SOL    HW1 8470   0.187   0.516   4.129 -0.3954  1.8305  0.3694
 2758SOL    HW2 8471   0.105   0.423   4.215  0.3401  1.3014  0.5129
 2759SOL     OW 8472   4.364   4.316   4.431  0.0025 -0.2513  0.5675
 2759SOL    HW1 8473   4.391   4.396   4.385 -0.1898  1.8162  3.6926
 2759SOL    HW2 8474   4.447   4.274   4.455  0.1195 -0.5485 -0.3066
 2760SOL     OW 8475   0.365   4.262   0.163 -0.6114 -0.5012  0.4400
 2760SOL    HW1 8476   0.375   4.206   0.240 -2.0069 -2.0283 -0.4123
 2760SOL    HW2 8477   0.275   4.246   0.135 -0.1837  0.1471 -1.4064
 2761SOL     OW 8478   3.366   2.033   0.075  0.1413  0.0798 -0.0828
 2761SOL    HW1 8479   3.397   1.982   0.150 -0.5396 -1.1257 -0.5991
 2761SOL    HW2 8480   3.445   2.072   0.038  0.6841 -0.6524  0.2897
 2762SOL     OW 8481   3.035   3.332   0.362  0.1519 -0.5560  0.3632
 2762SOL    HW1 8482   2.993   3.262   0.411 -2.5269 -1.4585 -2.8326
 2762SOL    HW2 8483   3.083   3.288   0.292 -0.4370  0.7027 -0.8933
 2763SOL     OW 8484   0.241   0.619   2.000  1.0618 -0.7019 -0.2576
 2763SOL    HW1 8485   0.268   0.558   2.068 -0.0038 -0.5738  0.2964
 2763SOL    HW2 8486   0.201   0.564   1.933 -0.3349 -0.5936  0.4586
 2764SOL     OW 8487   3.942   3.384   0.173 -0.5203  0.0870 -0.3661
 2764SOL    HW1 8488   3.906   3.459   0.126 -0.6920  0.0098 -0.3586
 2764SOL    HW2 8489   3.868   3.349   0.222 -0.2156  0.5163  0.4232
 2765SOL     OW 8490   4.273   1.244   0.249 -0.1823  0.5727 -0.3405
 2765SOL    HW1 8491   4.301   1.193   0.173  0.3489  1.9027 -1.0868
 2765SOL    HW2 8492   4.329   1.322   0.247 -0.8810  1.1309  0.8158
 2766SOL     OW 8493   2.034   3.000   3.797 -0.3203  0.2030  1.0381
 2766SOL    HW1 8494   1.991   3.072   3.844  0.3285  0.3737  1.3788
 2766SOL    HW2 8495   1.998   3.005   3.709 -1.4760 -0.0564  1.4786
 2767SOL     OW 8496   4.805   4.926   0.209 -0.3846  0.0511  0.4742
 2767SOL    HW1 8497   4.720   4.965   0.228 -0.8134 -0.5433 -0.1728
 2767SOL    HW2 8498   4.830   4.882   0.290 -0.1664  1.1401  1.0263
 2768SOL     OW 8499   3.420   1.091   1.223  0.1507  0.4387 -0.2751
 2768SOL    HW1 8500   3.419   1.022   1.290  0.7070  1.0461  0.3711
 2768SOL    HW2 8501   3.361   1.158   1.256 -1.1007 -0.1032 -1.3379
 2769SOL     OW 8502   3.704   4.455   0.908 -0.0263  0.6221 -0.0028
 2769SOL    HW1 8503   3.755   4.407   0.843  0.2246  0.0065  0.6346
 2769SOL    HW2 8504   3.724   4.547   0.890 -0.8709  0.5324 -1.5245
 2770SOL     OW 8505   3.604   4.077   0.630 -0.0123  0.0844  0.5016
 2770SOL    HW1 8506   3.644   4.159   0.659 -0.2961  0.1907  0.5918
 2770SOL    HW2 8507   3.678   4.022   0.605  0.1672  1.5148 -2.7280
 2771SOL     OW 8508   0.203   3.467   3.042 -0.1182  0.6203 -0.0217
 2771SOL    HW1 8509   0.262   3.542   3.042  0.7328 -0.0254  0.8365
 2771SOL    HW2 8510   0.252   3.398   3.086 -0.9762 -0.3716 -0.5693
 2772SOL     OW 8511   2.233   3.387   2.876  0.8307  0.1474  0.3062
 2772SOL    HW1 8512   2.264   3.468   2.835  1.0510 -0.3401 -0.5133
 2772SOL    HW2 8513   2.300   3.323   2.856 -0.6171 -0.9190 -1.4357
 2773SOL     OW 8514   1.410   3.392   4.791 -0.0443  0.6045 -0.2549
 2773SOL    HW1 8515   1.358   3.470   4.772  0.0181  0.5775 -0.5388
 2773SOL    HW2 8516   1.495   3.425   4.818 -0.1846  0.6473  0.1464
 2774SOL     OW 8517   2.134   3.061   1.417 -0.1615  0.4176  0.2678
 2774SOL    HW1 8518   2.106   3.026   1.332  0.2231 -0.2125  0.3990
 2774SOL    HW2 8519   2.052   3.070   1.467 -0.3346  0.3294  0.0051
 2775SOL     OW 8520   0.384   0.847   1.645 -0.2075  0.1748 -0.1305
 2775SOL    HW1 8521   0.293   0.821   1.630 -0.2592  0.1406  0.2186
 2775SOL    HW2 8522   0.420   0.776   1.698  0.1357 -0.0016 -0.6012
 2776SOL     OW 8523   1.507   2.789   0.086 -0.0075 -0.8121 -0.6607
 2776SOL    HW1 8524   1.437   2.740   0.044  0.8016 -1.3957 -1.3491
 2776SOL    HW2 8525   1.584   2.774   0.031  1.1207 -1.6743  1.0586
 2777SOL     OW 8526   0.290   4.654   3.567  0.0302 -0.2247 -0.0428
 2777SOL    HW1 8527   0.308   4.588   3.500  3.5396  0.7806 -0.2708
 2777SOL    HW2 8528   0.237   4.720   3.523 -0.0344 -0.8972 -0.9957
 2778SOL     OW 8529   4.552   3.387   2.236 -0.3977 -0.4265  0.3971
 2778SOL    HW1 8530   4.556   3.293   2.216  0.3654 -0.6195  1.3818
 2778SOL    HW2 8531   4.641   3.418   2.220 -0.7299  0.2073 -0.2455
 2779SOL     OW 8532   0.675   1.128   4.328 -0.8896  0.3209 -0.3422
 2779SOL    HW1 8533   0.616   1.198   4.303 -1.9724 -0.3600  0.2017
 2779SOL    HW2 8534   0.654   1.056   4.269  0.0823  0.3748 -0.7794
 2780SOL     OW 8535   0.456   4.304   4.126 -0.0090  0.2523 -0.5498
 2780SOL    HW1 8536   0.541   4.272   4.097 -0.5423 -0.0901 -1.7981
 2780SOL    HW2 8537   0.394   4.235   4.101 -0.7471  0.8198 -0.3377
 2781SOL     OW 8538   3.945   1.554   2.594 -0.5900 -0.0008 -0.3568
 2781SOL    HW1 8539   3.881   1.531   2.526 -2.7308  0.8069  1.2703
 2781SOL    HW2 8540   3.949   1.649   2.592  1.7140 -0.0679 -1.3549
 2782SOL     OW 8541   0.922   4.826   1.781 -0.0046 -0.2719  0.1489
 2782SOL    HW1 8542   0.913   4.861   1.693  0.4407 -1.9077 -0.5819
 2782SOL    HW2 8543   0.888   4.895   1.838 -2.6316 -0.1165 -1.4235
 2783SOL     OW 8544   1.087   2.940   2.511  0.0329  0.1512  0.2588
 2783SOL    HW1 8545   1.058   2.954   2.601 -0.4633  1.4118 -0.0692
 2783SOL    HW2 8546   1.036   3.003   2.460  0.3318 -0.5231 -0.9010
 2784SOL     OW 8547   4.719   1.825   0.165  0.4138 -0.5812  0.2378
 2784SOL    HW1 8548   4.775   1.902   0.160  0.5414 -0.6448  0.6562
 2784SOL    HW2 8549   4.674   1.834   0.249 -3.1024  1.4497 -1.6150
 2785SOL     OW 8550   3.405   3.696   3.615 -0.1259  0.2735  0.1959
 2785SOL    HW1 8551   3.456   3.774   3.594 -0.1426  0.7874  1.8644
 2785SOL    HW2 8552   3.331   3.729   3.667 -0.1240 -0.8432  0.9432
 2786SOL     OW 8553   3.783   2.346   4.100 -0.5822  0.1020 -0.4176
 2786SOL    HW1 8554   3.706   2.293   4.119 -2.0330  2.2461  0.0911
 2786SOL    HW2 8555   3.761   2.392   4.019  1.2677 -1.1351 -1.6956
 2787SOL     OW 8556   0.362   1.744   0.669 -0.1859  0.0640  0.2842
 2787SOL    HW1 8557   0.393   1.832   0.691  2.4551 -0.3435 -1.3784
 2787SOL    HW2 8558   0.390   1.690   0.742 -0.1270  0.2937  0.4332
 2788SOL     OW 8559   0.453   3.673   3.110  0.7554 -0.4784 -0.3904
 2788SOL    HW1 8560   0.425   3.763   3.092  0.8424 -0.0722  1.3268
 2788SOL    HW2 8561   0.467   3.634   3.023 -2.7852  0.0106 -1.3054
 2789SOL     OW 8562   1.397   2.028   3.890  0.2574 -0.3319 -0.3139
 2789SOL    HW1 8563   1.446   2.106   3.915  0.0510  0.1192 -1.2594
 2789SOL    HW2 8564   1.374   2.043   3.798 -1.7102 -0.4927  0.1137
 2790SOL     OW 8565   0.666   4.870   0.081 -0.3602 -0.5097  0.0448
 2790SOL    HW1 8566   0.685   4.919   0.161 -1.5621 -0.8107  0.5436
 2790SOL    HW2 8567   0.646   4.781   0.112  0.7110 -1.0384 -0.7399
 2791SOL     OW 8568   4.550   3.379   2.724 -0.5002 -0.0459 -0.0695
 2791SOL    HW1 8569   4.480   3.327   2.763 -0.0967 -1.3414 -1.0064
 2791SOL    HW2 8570   4.629   3.326   2.737  0.3384  1.3661  0.9309
 2792SOL     OW 8571   0.493   2.054   3.224 -0.1877 -0.2945 -0.2801
 2792SOL    HW1 8572   0.514   2.146   3.242 -0.7496 -0.2089 -0.0252
 2792SOL    HW2 8573   0.444   2.056   3.142  0.1451 -0.4091 -0.4807
 2793SOL     OW 8574   4.766   2.356   2.881 -0.2230  0.1357 -0.2175
 2793SOL    HW1 8575   4.683   2.340   2.926 -0.5533  1.5892 -0.2668
 2793SOL    HW2 8576   4.823   2.391   2.949  0.1396 -0.2460 -0.3283
 2794SOL     OW 8577   0.462   1.810   2.063  0.0742  0.2118 -0.4743
 2794SOL    HW1 8578   0.447   1.732   2.009 -1.7031  0.3912 -0.3066
 2794SOL    HW2 8579   0.389   1.868   2.042 -0.3896  0.5093  1.6995
 2795SOL     OW 8580   3.113   4.786   1.271  0.0318  0.5785 -0.0837
 2795SOL    HW1 8581   3.134   4.708   1.219  2.5967  0.9625  0.2442
 2795SOL    HW2 8582   3.091   4.852   1.206  0.0413  0.1925 -0.4900
 2796SOL     OW 8583   2.334   0.639   4.838  0.1475  0.2763 -0.0106
 2796SOL    HW1 8584   2.325   0.618   4.745  2.2364  0.7472 -0.3590
 2796SOL    HW2 8585   2.427   0.626   4.856 -0.0635  1.1157  1.7914
 2797SOL     OW 8586   2.524   2.707   2.395  0.1887  0.0065 -0.0521
 2797SOL    HW1 8587   2.509   2.619   2.362  0.7278 -0.2011  0.2305
 2797SOL    HW2 8588   2.437   2.739   2.420 -0.1792  0.0404 -1.3148
 2798SOL     OW 8589   0.246   0.124   2.600  0.1296 -0.0552 -0.3138
 2798SOL    HW1 8590   0.299   0.203   2.591  2.5202 -1.4591  0.6068
 2798SOL    HW2 8591   0.296   0.056   2.556 -2.1649 -1.0261 -1.6494
 2799SOL     OW 8592   4.340   4.062   0.685  0.4706 -0.1102  0.1728
 2799SOL    HW1 8593   4.317   4.124   0.615  1.0861 -1.1337 -0.9804
 2799SOL    HW2 8594   4.329   4.112   0.765  0.2102  1.2678 -0.6783
 2800SOL     OW 8595   0.493   1.811   3.762 -0.0504  0.4343  0.1020
 2800SOL    HW1 8596   0.417   1.784   3.710  1.1392 -1.2387 -0.8560
 2800SOL    HW2 8597   0.550   1.856   3.699  0.8799 -0.5809  0.1997
 2801SOL     OW 8598   1.293   3.327   0.414 -0.1531 -0.7682 -0.2570
 2801SOL    HW1 8599   1.201   3.318   0.390 -0.2108  1.2472 -0.9645
 2801SOL    HW2 8600   1.341   3.308   0.334 -0.0939  0.5748 -0.5627
 2802SOL     OW 8601   1.926   4.446   2.375 -0.8706  0.3084 -0.4071
 2802SOL    HW1 8602   1.961   4.375   2.321  1.5842  2.0235 -1.2571
 2802SOL    HW2 8603   1.943   4.418   2.465 -0.3182 -0.3540 -0.7044
 2803SOL     OW 8604   4.929   2.651   3.921 -0.2492 -0.1212  0.1750
 2803SOL    HW1 8605   4.866   2.636   3.992 -1.6349 -0.3004 -1.0366
 2803SOL    HW2 8606   4.896   2.729   3.876 -1.0525 -1.6038 -1.9585
 2804SOL     OW 8607   3.891   2.338   1.715  0.0108  0.2610  0.1856
 2804SOL    HW1 8608   3.927   2.305   1.797  1.1551  0.9641  0.0021
 2804SOL    HW2 8609   3.888   2.433   1.728 -2.8920  0.2106  0.5928
 2805SOL     OW 8610   0.375   4.872   2.462  0.4089  0.4417  0.6831
 2805SOL    HW1 8611   0.318   4.799   2.483  0.2949  0.8064  1.6906
 2805SOL    HW2 8612   0.464   4.840   2.479  0.4449  0.1862  0.0444
 2806SOL     OW 8613   1.442   1.994   4.420  0.4054 -0.2548 -0.5165
 2806SOL    HW1 8614   1.396   2.074   4.444  0.5328  0.0081 -1.1281
 2806SOL    HW2 8615   1.393   1.960   4.345 -0.3120 -1.3499  0.4267
 2807SOL     OW 8616   0.062   1.563   2.841 -0.2171  0.2009  0.2089
 2807SOL    HW1 8617   0.038   1.601   2.925  1.0904  1.3381  0.0863
 2807SOL    HW2 8618   0.031   1.472   2.847 -1.7741  0.7480  1.1900
 2808SOL     OW 8619   4.840   0.108   4.334  0.6116  0.0065  0.6382
 2808SOL    HW1 8620   4.915   0.154   4.371  1.0835 -0.3440  0.1124
 2808SOL    HW2 8621   4.876   0.028   4.295  0.0262  0.0081  0.0680
 2809SOL     OW 8622   0.331   1.251   3.520  0.1584  0.0286  0.2042
 2809SOL    HW1 8623   0.400   1.303   3.479  0.7298  1.2364  2.5572
 2809SOL    HW2 8624   0.254   1.266   3.464  0.9330  1.4481 -0.5385
 2810SOL     OW 8625   4.063   2.289   0.524 -0.1215  0.1805  0.3358
 2810SOL    HW1 8626   4.104   2.362   0.478  1.6320 -0.0136  1.4935
 2810SOL    HW2 8627   3.999   2.254   0.461  2.3754 -0.3004 -2.1345
 2811SOL     OW 8628   0.465   4.627   1.289 -0.1625  0.4912  0.0073
 2811SOL    HW1 8629   0.411   4.557   1.327  0.7196  0.2703  0.8959
 2811SOL    HW2 8630   0.433   4.707   1.329  1.1757  0.1977  1.7968
 2812SOL     OW 8631   4.162   2.128   3.296 -0.0640 -0.0402  0.1997
 2812SOL    HW1 8632   4.181   2.081   3.377 -2.8230 -0.6759  0.5621
 2812SOL    HW2 8633   4.186   2.067   3.227 -0.1362 -0.5402  0.6055
 2813SOL     OW 8634   1.514   0.818   3.332  0.0686 -0.2973 -0.4868
 2813SOL    HW1 8635   1.521   0.871   3.253 -0.1400 -0.6814 -0.7655
 2813SOL    HW2 8636   1.512   0.882   3.404 -0.1557  0.0701 -0.8159
 2814SOL     OW 8637   1.715   3.869   1.417 -0.2210  0.3128  0.3863
 2814SOL    HW1 8638   1.716   3.960   1.388 -2.8730 -0.1303 -1.4208
 2814SOL    HW2 8639   1.642   3.863   1.479 -0.4478 -0.6893  0.0476
 2815SOL     OW 8640   4.378   1.308   1.015  0.0159  0.0273  0.3039
 2815SOL    HW1 8641   4.405   1.229   0.968  0.5359  0.6096 -0.3998
 2815SOL    HW2 8642   4.362   1.278   1.105  2.6265 -0.4556  0.6847
 2816SOL     OW 8643   4.397   0.320   3.177  0.4974 -0.1435  0.6599
 2816SOL    HW1 8644   4.329   0.284   3.119 -0.4540  0.9082  1.0899
 2816SOL    HW2 8645   4.369   0.294   3.265 -0.2095  1.6194  0.9784
 2817SOL     OW 8646   1.351   1.586   3.367  0.4728  0.0888 -0.0621
 2817SOL    HW1 8647   1.311   1.539   3.440  1.8877 -2.6190 -0.8579
 2817SOL    HW2 8648   1.433   1.620   3.403 -0.6899  2.3762  0.5942
 2818SOL     OW 8649   1.395   4.036   4.473  0.6177  0.2222 -0.1789
 2818SOL    HW1 8650   1.432   3.949   4.484 -0.5864 -0.1321  1.4796
 2818SOL    HW2 8651   1.340   4.030   4.395 -1.8348 -1.4296  1.5587
 2819SOL     OW 8652   2.912   2.369   3.963  0.4135  0.1749  0.4572
 2819SOL    HW1 8653   2.848   2.336   3.900  1.1726 -0.3933 -0.0415
 2819SOL    HW2 8654   2.978   2.299   3.968 -0.1442 -0.2875  2.6742
 2820SOL     OW 8655   0.381   1.284   1.662  0.1279  0.4959 -0.1813
 2820SOL    HW1 8656   0.409   1.273   1.753 -2.4705  3.1544  1.1451
 2820SOL    HW2 8657   0.291   1.250   1.660  0.5261 -0.5914 -2.1230
 2821SOL     OW 8658   0.404   4.311   3.665  0.1617 -0.4093  0.4319
 2821SOL    HW1 8659   0.455   4.243   3.620 -1.1169 -0.2975 -1.2380
 2821SOL    HW2 8660   0.359   4.358   3.596 -0.6283  0.8183  1.7292
 2822SOL     OW 8661   3.549   3.478   2.917 -0.7372  0.1396  0.0186
 2822SOL    HW1 8662   3.513   3.427   2.844  0.8790 -1.1162  0.0452
 2822SOL    HW2 8663   3.523   3.429   2.995 -1.0345  0.5727  0.1963
 2823SOL     OW 8664   1.490   0.849   1.277 -0.5520 -0.2731 -0.0044
 2823SOL    HW1 8665   1.412   0.796   1.292 -1.7095  0.7814 -1.9386
 2823SOL    HW2 8666   1.456   0.936   1.255  1.1798  0.2354 -0.7983
 2824SOL     OW 8667   1.596   1.097   3.271  0.4016 -0.1057 -0.0927
 2824SOL    HW1 8668   1.681   1.128   3.303  1.9253  0.5735 -4.1699
 2824SOL    HW2 8669   1.534   1.164   3.299  1.6566  0.7236  0.8159
 2825SOL     OW 8670   3.948   2.514   2.345  0.3404 -0.0808 -0.4429
 2825SOL    HW1 8671   3.926   2.430   2.385 -1.1534  0.7022  0.4852
 2825SOL    HW2 8672   3.886   2.576   2.383  1.2021  1.4011 -1.3280
 2826SOL     OW 8673   3.899   1.932   1.198 -0.1587  0.1093 -0.3008
 2826SOL    HW1 8674   3.902   1.955   1.105 -0.2974  1.4287  0.0130
 2826SOL    HW2 8675   3.870   2.012   1.242  0.3471 -0.3711  0.9356
 2827SOL     OW 8676   3.186   3.879   1.528 -0.1012  0.2897 -0.0025
 2827SOL    HW1 8677   3.229   3.838   1.453  1.0668  1.0756  0.2094
 2827SOL    HW2 8678   3.181   3.972   1.504  1.4740  0.7870  1.3865
 2828SOL     OW 8679   3.240   2.863   3.641  0.6782  0.3979  0.0677
 2828SOL    HW1 8680   3.309   2.796   3.637  0.8131  0.4935  0.6701
 2828SOL    HW2 8681   3.283   2.944   3.614  0.7164  0.3944  0.1181
 2829SOL     OW 8682   2.302   2.092   3.704 -0.6245  0.0942  0.0337
 2829SOL    HW1 8683   2.249   2.023   3.666 -0.4293  0.7863 -1.5457
 2829SOL    HW2 8684   2.242   2.140   3.762 -1.4014  0.1196 -0.7824
 2830SOL     OW 8685   2.690   1.982   3.160 -0.1450 -0.0055 -0.0592
 2830SOL    HW1 8686   2.751   1.975   3.085  0.1755 -0.3884  0.2332
 2830SOL    HW2 8687   2.622   2.043   3.130 -0.6902 -1.1029 -1.1198
 2831SOL     OW 8688   2.452   4.445   2.116 -0.0962 -0.4551  0.4223
 2831SOL    HW1 8689   2.440   4.406   2.202 -0.8117  2.2809  1.6917
 2831SOL    HW2 8690   2.537   4.413   2.086 -0.4796 -2.6007  1.4307
 2832SOL     OW 8691   0.094   3.075   0.842  0.3202 -0.2689  0.6955
 2832SOL    HW1 8692   0.151   2.999   0.826 -1.0890 -0.8774 -2.0943
 2832SOL    HW2 8693   0.028   3.043   0.903  0.7907 -0.7185  0.9753
 2833SOL     OW 8694   3.155   0.866   0.833  0.3282  0.5043 -0.0174
 2833SOL    HW1 8695   3.247   0.886   0.817  0.8992  0.2426  2.5339
 2833SOL    HW2 8696   3.118   0.948   0.867  0.0780  0.1541  0.5785
 2834SOL     OW 8697   2.994   4.656   2.717  0.0280 -0.2930 -0.1518
 2834SOL    HW1 8698   2.987   4.651   2.622 -1.2375 -0.9806 -0.0393
 2834SOL    HW2 8699   2.939   4.731   2.742 -0.0542 -0.4265  0.0775
 2835SOL     OW 8700   4.658   4.902   4.709 -0.1441 -0.4085  0.5018
 2835SOL    HW1 8701   4.637   4.887   4.616 -0.2966  0.1575  0.4377
 2835SOL    HW2 8702   4.677   4.815   4.744 -0.3971 -0.6659  0.0123
 2836SOL     OW 8703   0.262   2.617   3.958  0.0660 -0.4129 -0.1520
 2836SOL    HW1 8704   0.175   2.629   3.919 -0.5908  0.6028  1.5287
 2836SOL    HW2 8705   0.314   2.687   3.919 -0.6837  0.8240  0.9685
 2837SOL     OW 8706   1.124   0.535   4.823  0.3052 -0.5271  0.1040
 2837SOL    HW1 8707   1.110   0.445   4.793  0.8228 -0.1681 -1.2798
 2837SOL    HW2 8708   1.156   0.525   4.913 -0.5860 -1.6734  0.3194
 2838SOL     OW 8709   1.790   2.248   2.096  0.2360  0.5560  0.2786
 2838SOL    HW1 8710   1.706   2.223   2.059 -0.4114 -1.1163  2.6305
 2838SOL    HW2 8711   1.834   2.165   2.115  0.7334  1.2724  2.6222
 2839SOL     OW 8712   1.827   3.208   4.340 -0.4148 -0.1099  0.1326
 2839SOL    HW1 8713   1.826   3.137   4.275 -1.7046  1.2457 -1.4000
 2839SOL    HW2 8714   1.917   3.239   4.340 -0.3552 -0.2536 -0.8698
 2840SOL     OW 8715   4.623   4.232   1.129  0.1176 -0.1561  0.0484
 2840SOL    HW1 8716   4.682   4.247   1.055 -1.7530  1.2774 -1.2598
 2840SOL    HW2 8717   4.594   4.141   1.119 -2.0335  0.6742 -2.6092
 2841SOL     OW 8718   0.097   4.737   1.343 -0.1137 -0.2625 -0.0924
 2841SOL    HW1 8719   0.093   4.763   1.251  0.3237  2.7366  0.6153
 2841SOL    HW2 8720   0.176   4.779   1.376 -0.4284 -1.0308  1.7436
 2842SOL     OW 8721   1.511   0.173   3.279 -0.7432  0.2631 -0.9547
 2842SOL    HW1 8722   1.589   0.167   3.335  0.4350  0.2779 -2.5285
 2842SOL    HW2 8723   1.460   0.094   3.299  0.7695 -0.8793 -1.4616
 2843SOL     OW 8724   2.448   4.063   2.534 -0.7081  0.2986  0.2744
 2843SOL    HW1 8725   2.428   4.081   2.442 -1.3744 -0.7741  0.1815
 2843SOL    HW2 8726   2.527   4.113   2.552  0.1361 -0.4174 -1.2353
 2844SOL     OW 8727   3.762   4.647   4.001 -0.4949  0.3662  0.2688
 2844SOL    HW1 8728   3.818   4.581   4.043 -0.9945  0.3804  0.9765
 2844SOL    HW2 8729   3.698   4.597   3.951 -1.3129  0.2819  1.3751
 2845SOL     OW 8730   2.770   1.380   4.754  0.2414 -0.2748 -0.0732
 2845SOL    HW1 8731   2.751   1.420   4.839 -2.2418  0.9496 -1.1287
 2845SOL    HW2 8732   2.788   1.453   4.696  1.6211 -1.0844 -0.7321
 2846SOL     OW 8733   2.878   3.492   3.454 -0.3706 -0.0778  0.2313
 2846SOL    HW1 8734   2.796   3.540   3.444  0.8606  1.7599 -1.8720
 2846SOL    HW2 8735   2.915   3.488   3.366  1.1979 -2.0182  0.8992
 2847SOL     OW 8736   2.783   1.083   0.991 -0.0615 -0.9617  0.1551
 2847SOL    HW1 8737   2.817   1.072   0.902 -0.1471  0.1192 -0.0246
 2847SOL    HW2 8738   2.796   0.998   1.032  1.4457 -1.0316 -0.3950
 2848SOL     OW 8739   2.084   4.657   0.733 -0.0564 -0.2214 -0.4994
 2848SOL    HW1 8740   2.178   4.661   0.716 -0.3276 -0.9317 -2.3607
 2848SOL    HW2 8741   2.047   4.616   0.655 -1.7257 -1.6639  0.9789
 2849SOL     OW 8742   3.287   0.668   4.290  0.3214 -0.2539 -0.1483
 2849SOL    HW1 8743   3.308   0.644   4.200 -1.4390 -0.8645 -0.4320
 2849SOL    HW2 8744   3.199   0.706   4.285 -0.2187 -1.1971  1.4276
 2850SOL     OW 8745   1.621   0.764   0.408  0.5764  0.1129  0.6891
 2850SOL    HW1 8746   1.569   0.845   0.414  1.6303  1.1263 -2.1701
 2850SOL    HW2 8747   1.712   0.794   0.407  0.9869 -1.0667 -0.5134
 2851SOL     OW 8748   1.307   3.388   3.120  0.7403 -0.1507 -0.2112
 2851SOL    HW1 8749   1.298   3.379   3.025 -0.0003  0.2399 -0.1838
 2851SOL    HW2 8750   1.218   3.376   3.153  0.5537  2.1673  0.2357
 2852SOL     OW 8751   2.655   4.149   0.101 -0.5326 -0.0829 -0.3777
 2852SOL    HW1 8752   2.613   4.127   0.184 -1.3410 -0.1962 -0.8155
 2852SOL    HW2 8753   2.718   4.218   0.123 -0.6850 -0.1713  0.3375
 2853SOL     OW 8754   1.316   0.286   4.425  0.4882  0.1938  0.1385
 2853SOL    HW1 8755   1.324   0.381   4.435  0.3757  0.1651  0.5019
 2853SOL    HW2 8756   1.397   0.260   4.381  1.0260  0.3193  1.0244
 2854SOL     OW 8757   1.217   0.067   3.166  0.3145 -0.1182  0.3302
 2854SOL    HW1 8758   1.194  -0.020   3.198 -2.7339 -0.1467 -1.5737
 2854SOL    HW2 8759   1.209   0.124   3.243 -1.0009 -1.0199  0.8846
 2855SOL     OW 8760   0.392   3.016   4.530 -0.0599  0.7837 -0.1102
 2855SOL    HW1 8761   0.467   2.958   4.524 -0.9185 -0.2117 -3.3918
 2855SOL    HW2 8762   0.337   2.977   4.599  1.1233 -0.0755  0.3773
 2856SOL     OW 8763   0.201   2.532   2.496  0.2866 -0.9991  0.2678
 2856SOL    HW1 8764   0.294   2.511   2.505  1.3621  3.0742  0.9030
 2856SOL    HW2 8765   0.197   2.595   2.424 -1.5638  0.5032  1.5499
 2857SOL     OW 8766   0.402   1.171   4.624 -0.1814  0.2160  0.2619
 2857SOL    HW1 8767   0.394   1.232   4.551 -1.0620 -1.0949 -0.7783
 2857SOL    HW2 8768   0.490   1.187   4.659  0.3221  0.7551 -1.1776
 2858SOL     OW 8769   0.830   4.377   0.108 -0.2917  0.3167 -0.2940
 2858SOL    HW1 8770   0.850   4.442   0.041 -0.0020  0.5741  0.0383
 2858SOL    HW2 8771   0.749   4.335   0.078  0.3847 -0.2908 -1.3379
 2859SOL     OW 8772   4.003   0.974   2.918 -0.2750  0.1224  0.2924
 2859SOL    HW1 8773   3.984   0.882   2.934 -0.8901  0.1620 -0.2068
 2859SOL    HW2 8774   4.039   1.005   3.001 -0.7858 -0.3779  0.7086
 2860SOL     OW 8775   0.010   1.736   2.242 -0.2330  1.1287 -0.2884
 2860SOL    HW1 8776  -0.005   1.642   2.239 -1.0452  1.2837 -1.9081
 2860SOL    HW2 8777  -0.064   1.771   2.292 -0.7762  1.0486 -1.0225
 2861SOL     OW 8778   1.362   1.051   2.959 -0.5440 -0.0118 -0.2269
 2861SOL    HW1 8779   1.416   0.988   3.006  0.5476  2.0463  1.4372
 2861SOL    HW2 8780   1.276   1.043   3.000  0.2797  1.4359  1.9784
 2862SOL     OW 8781   4.682   2.802   0.982 -0.5624 -0.2324  0.5614
 2862SOL    HW1 8782   4.738   2.788   0.905 -1.0766 -0.2555  0.1858
 2862SOL    HW2 8783   4.594   2.780   0.951 -1.1400  2.0041  0.4849
 2863SOL     OW 8784   1.102   1.467   3.097  0.1546  0.3780 -0.1594
 2863SOL    HW1 8785   1.152   1.548   3.086 -0.5872  0.6948 -1.2720
 2863SOL    HW2 8786   1.118   1.442   3.188  1.8911  0.7577 -0.3178
 2864SOL     OW 8787   1.024   3.623   1.578 -0.4477  0.2673 -0.4598
 2864SOL    HW1 8788   1.054   3.692   1.518 -0.8250 -0.4844 -1.5451
 2864SOL    HW2 8789   1.029   3.543   1.526 -1.0576 -0.3680  0.4390
 2865SOL     OW 8790   4.609   1.097   2.358 -0.4215 -0.1939 -0.2606
 2865SOL    HW1 8791   4.644   1.026   2.411 -1.0284 -2.6315 -2.8268
 2865SOL    HW2 8792   4.520   1.111   2.392 -0.7490 -1.5974 -0.4738
 2866SOL     OW 8793   1.061   4.169   4.879 -0.0466 -0.0457 -1.0810
 2866SOL    HW1 8794   1.118   4.103   4.839  0.2527 -0.8607  0.6280
 2866SOL    HW2 8795   0.979   4.163   4.829  0.8081  0.0475 -2.5422
 2867SOL     OW 8796   0.326   2.938   2.309  0.0632  0.3415  0.4919
 2867SOL    HW1 8797   0.353   2.897   2.391  0.9392 -0.5246 -0.2080
 2867SOL    HW2 8798   0.404   2.937   2.255 -0.2758  1.7104 -0.0527
 2868SOL     OW 8799   3.558   2.607   2.271  0.1402  0.3533  0.3305
 2868SOL    HW1 8800   3.627   2.542   2.283 -0.5647 -0.2169  1.4398
 2868SOL    HW2 8801   3.577   2.675   2.336 -1.0779 -0.4770  1.6127
 2869SOL     OW 8802   0.629   3.934   2.077 -0.1558  0.0440 -0.5240
 2869SOL    HW1 8803   0.654   3.974   1.993  2.4860  0.4298  0.3618
 2869SOL    HW2 8804   0.660   3.844   2.070 -2.2835 -0.7195 -0.8860
 2870SOL     OW 8805   4.612   4.327   4.203  0.0670 -0.4142  0.1894
 2870SOL    HW1 8806   4.674   4.397   4.223  0.5947 -0.0709 -2.4207
 2870SOL    HW2 8807   4.550   4.366   4.141  0.3324 -2.2132 -1.2808
 2871SOL     OW 8808   0.909   4.800   2.514  0.2096  0.0317 -0.3422
 2871SOL    HW1 8809   0.963   4.763   2.584  0.3732 -0.0171 -0.4941
 2871SOL    HW2 8810   0.919   4.895   2.523  1.3208  0.0023 -1.1513
 2872SOL     OW 8811   2.032   3.542   3.228 -0.0756  0.1366 -0.3228
 2872SOL    HW1 8812   2.013   3.536   3.321  1.0465 -0.1522 -0.0960
 2872SOL    HW2 8813   1.953   3.581   3.189 -1.9340 -2.7200  0.2619
 2873SOL     OW 8814   3.950   0.611   3.509  0.7888 -0.3490  0.3907
 2873SOL    HW1 8815   3.886   0.658   3.457 -0.1785 -2.1164 -0.0751
 2873SOL    HW2 8816   4.034   0.653   3.488 -0.0623  1.3515  0.2661
 2874SOL     OW 8817   3.411   2.442   4.432 -0.1164 -0.1134  0.0514
 2874SOL    HW1 8818   3.448   2.354   4.432  0.8586  0.2632 -1.4120
 2874SOL    HW2 8819   3.475   2.495   4.384 -1.2439  1.1473 -0.1148
 2875SOL     OW 8820   3.527   3.941   3.581  0.5050  0.6258  1.0708
 2875SOL    HW1 8821   3.484   4.021   3.614 -0.7030  0.7630 -0.6740
 2875SOL    HW2 8822   3.534   3.955   3.487  2.8165 -0.2057  1.0623
 2876SOL     OW 8823   0.426   2.266   3.450  0.9081 -0.0312  0.6930
 2876SOL    HW1 8824   0.354   2.203   3.452 -1.7300  2.7592  0.1527
 2876SOL    HW2 8825   0.486   2.235   3.519 -1.4590 -1.7432  2.1447
 2877SOL     OW 8826   3.093   3.877   3.422 -0.3640  0.0258  0.1007
 2877SOL    HW1 8827   3.125   3.915   3.340 -0.4258  1.8550  0.8758
 2877SOL    HW2 8828   3.085   3.951   3.481 -1.2586 -1.1194  1.4813
 2878SOL     OW 8829   3.586   2.544   0.296  0.4710 -0.3441  0.0948
 2878SOL    HW1 8830   3.675   2.530   0.329  0.7509  1.7520  0.3461
 2878SOL    HW2 8831   3.567   2.465   0.246  1.5388 -1.9062  1.9907
 2879SOL     OW 8832   4.663   0.953   3.995  0.7891 -0.0739  0.3030
 2879SOL    HW1 8833   4.751   0.949   3.957  0.8596  0.8168  0.3709
 2879SOL    HW2 8834   4.652   0.867   4.036  1.5672 -0.2525  0.1622
 2880SOL     OW 8835   4.003   0.311   0.298  0.1865  0.1812  0.1000
 2880SOL    HW1 8836   4.003   0.246   0.229 -1.3337  0.4018 -0.1438
 2880SOL    HW2 8837   3.945   0.381   0.266 -0.2221  0.4727  1.4046
 2881SOL     OW 8838   3.731   4.943   1.825  0.3849  0.3234 -0.0002
 2881SOL    HW1 8839   3.791   4.885   1.779 -1.5184 -1.4283 -0.3811
 2881SOL    HW2 8840   3.787   5.016   1.854  2.0631  0.5258 -3.2422
 2882SOL     OW 8841   4.135   0.535   2.837 -0.0848 -0.3215  0.0310
 2882SOL    HW1 8842   4.191   0.467   2.801  1.3081  0.1715  1.1739
 2882SOL    HW2 8843   4.137   0.521   2.931 -1.3101  0.1715  0.1579
 2883SOL     OW 8844   4.942   4.095   2.700 -0.0850 -0.3845  0.3256
 2883SOL    HW1 8845   4.962   4.058   2.786  1.8997  0.3184  0.2051
 2883SOL    HW2 8846   5.020   4.144   2.676 -1.3982  1.1614 -0.9812
 2884SOL     OW 8847   4.537   0.805   3.108  0.2050 -0.2262 -0.4253
 2884SOL    HW1 8848   4.551   0.722   3.153  0.1120  0.1204  0.2645
 2884SOL    HW2 8849   4.514   0.780   3.019  0.1426 -0.9419 -0.2192
 2885SOL     OW 8850   1.813   2.644   1.955 -0.1379 -0.5357  0.1028
 2885SOL    HW1 8851   1.780   2.667   2.042 -0.5827 -3.4124  0.7845
 2885SOL    HW2 8852   1.905   2.622   1.970  0.0359 -0.1414 -0.3553
 2886SOL     OW 8853   3.806   1.707   0.171  0.1538  0.4411  0.2433
 2886SOL    HW1 8854   3.776   1.627   0.215  0.3620  1.1066  1.6471
 2886SOL    HW2 8855   3.898   1.714   0.195  0.1698  1.0295  0.0197
 2887SOL     OW 8856   0.646   3.436   3.403 -0.0708 -0.5593  0.5646
 2887SOL    HW1 8857   0.698   3.517   3.403 -0.9787  0.0413  1.2654
 2887SOL    HW2 8858   0.691   3.379   3.341  0.6807  0.4222  0.1771
 2888SOL     OW 8859   3.523   2.174   4.021  0.2005 -0.2427  0.6385
 2888SOL    HW1 8860   3.484   2.086   4.021  1.4302 -0.8184  1.6508
 2888SOL    HW2 8861   3.584   2.172   3.947 -0.8131  0.2822 -0.2465
 2889SOL     OW 8862   0.304   1.906   4.627 -0.7676  0.0727  0.0170
 2889SOL    HW1 8863   0.308   1.952   4.543 -0.4774  1.2679  0.6630
 2889SOL    HW2 8864   0.311   1.814   4.604 -0.6552  0.3803 -1.2687
 2890SOL     OW 8865   1.858   1.284   4.147 -0.3367 -0.0886  0.1376
 2890SOL    HW1 8866   1.838   1.241   4.230 -0.7980  1.8413  1.0823
 2890SOL    HW2 8867   1.920   1.353   4.171  1.0329 -0.7060 -1.4526
 2891SOL     OW 8868   2.569   0.124   4.134 -0.1994 -0.0517  0.1580
 2891SOL    HW1 8869   2.558   0.216   4.113 -0.0291 -0.1851 -0.5402
 2891SOL    HW2 8870   2.655   0.101   4.099 -0.6219 -0.6921 -0.4912
 2892SOL     OW 8871   3.842   4.474   3.003 -0.4560 -0.2951 -0.2141
 2892SOL    HW1 8872   3.770   4.506   3.058 -0.8559 -0.9642 -0.3370
 2892SOL    HW2 8873   3.845   4.536   2.930 -1.4201 -0.6882 -0.6046
 2893SOL     OW 8874   3.909   0.991   1.547 -0.9370  0.0800 -0.2501
 2893SOL    HW1 8875   3.867   0.978   1.462 -0.9177  1.5054 -0.4949
 2893SOL    HW2 8876   3.993   1.032   1.527  0.1247 -1.7048  0.3195
 2894SOL     OW 8877   2.755   2.076   2.208  0.1709 -0.3579 -0.5727
 2894SOL    HW1 8878   2.710   2.028   2.278 -1.8962  1.9562 -0.1686
 2894SOL    HW2 8879   2.787   2.008   2.149 -0.6471 -2.2752  1.0567
 2895SOL     OW 8880   0.298   0.548   1.465  0.2294  0.5774  0.1320
 2895SOL    HW1 8881   0.267   0.520   1.551 -0.4431 -0.2964 -0.3806
 2895SOL    HW2 8882   0.245   0.624   1.444  0.0159  0.4651  0.2588
 2896SOL     OW 8883   4.418   2.318   1.991  0.2339  0.6003  0.0325
 2896SOL    HW1 8884   4.383   2.394   2.038  0.0777 -0.7704  2.2885
 2896SOL    HW2 8885   4.468   2.270   2.057 -2.4320 -2.9979 -0.2568
 2897SOL     OW 8886   0.366   4.214   1.863 -0.3743 -0.2378  0.1626
 2897SOL    HW1 8887   0.359   4.295   1.914  1.7821  1.2183 -1.6471
 2897SOL    HW2 8888   0.390   4.147   1.928 -1.1504  0.7461  1.5356
 2898SOL     OW 8889   0.753   1.415   4.679  0.2306 -0.3467  0.4503
 2898SOL    HW1 8890   0.675   1.406   4.733  0.8019 -0.1568  1.3399
 2898SOL    HW2 8891   0.817   1.357   4.720  0.7573  0.0158  0.1546
 2899SOL     OW 8892   3.578   3.121   4.550 -0.4856  0.2508  0.0149
 2899SOL    HW1 8893   3.652   3.105   4.491 -1.1173 -1.0924 -0.4701
 2899SOL    HW2 8894   3.515   3.052   4.527 -0.5733 -0.6222  2.5728
 2900SOL     OW 8895   4.904   4.092   3.921  0.4644  0.7020  0.2691
 2900SOL    HW1 8896   4.830   4.030   3.920 -0.7662  2.1031 -0.5923
 2900SOL    HW2 8897   4.971   4.050   3.868  1.3701 -1.7621  3.1274
 2901SOL     OW 8898   3.927   4.890   4.000  0.7824 -0.2943  0.0270
 2901SOL    HW1 8899   3.940   4.839   4.080  0.2608  0.3882  0.5547
 2901SOL    HW2 8900   3.871   4.835   3.945 -1.4649  0.5093  1.4057
 2902SOL     OW 8901   3.264   2.672   4.593  0.2493 -0.4367 -0.3462
 2902SOL    HW1 8902   3.346   2.630   4.569 -0.9876 -2.9668 -0.5202
 2902SOL    HW2 8903   3.218   2.685   4.510  0.4868  1.1252 -0.2717
 2903SOL     OW 8904   1.826   1.538   0.216  0.7328 -0.0809  0.1111
 2903SOL    HW1 8905   1.811   1.625   0.178 -0.3161 -0.0677  0.5125
 2903SOL    HW2 8906   1.799   1.477   0.147 -0.5692 -0.0599  0.5734
 2904SOL     OW 8907   0.265   4.127   2.733 -0.2010  0.2711 -0.7382
 2904SOL    HW1 8908   0.300   4.043   2.703  2.0778  0.8758  0.0541
 2904SOL    HW2 8909   0.304   4.192   2.675 -1.6259  0.8735 -1.0882
 2905SOL     OW 8910   2.665   2.314   1.561  0.0320 -0.3417 -0.4116
 2905SOL    HW1 8911   2.685   2.293   1.652  3.6450  3.4889 -0.0134
 2905SOL    HW2 8912   2.735   2.272   1.511 -0.8206 -0.8074 -1.2355
 2906SOL     OW 8913   2.661   1.472   2.532 -0.6724  0.0328 -0.0884
 2906SOL    HW1 8914   2.681   1.509   2.445 -0.4771  0.9594  0.3353
 2906SOL    HW2 8915   2.714   1.524   2.592  0.5113 -1.7299  0.4424
 2907SOL     OW 8916   0.895   2.524   4.683 -0.4768 -0.0269  0.1701
 2907SOL    HW1 8917   0.938   2.609   4.694  2.1129 -1.1113 -0.9498
 2907SOL    HW2 8918   0.805   2.540   4.711  0.0363  2.9564  0.4829
 2908SOL     OW 8919   2.456   0.382   1.310 -0.3796 -0.2854 -0.1869
 2908SOL    HW1 8920   2.432   0.377   1.402 -1.5768 -0.3289 -0.4896
 2908SOL    HW2 8921   2.549   0.357   1.308  0.5345  2.5318  1.3409
 2909SOL     OW 8922   3.243   1.705   4.216  0.2034 -0.3053  0.1773
 2909SOL    HW1 8923   3.173   1.696   4.151 -0.7015 -0.7728  1.1812
 2909SOL    HW2 8924   3.200   1.745   4.292  0.7653 -1.5913  1.2011
 2910SOL     OW 8925   0.438   4.328   2.632  0.1809  0.5294 -0.4468
 2910SOL    HW1 8926   0.434   4.406   2.576 -0.4576 -0.3965 -1.7458
 2910SOL    HW2 8927   0.521   4.287   2.609 -0.9238 -0.8832 -2.2412
 2911SOL     OW 8928   4.703   3.352   1.854  0.1473 -0.3982  0.0836
 2911SOL    HW1 8929   4.675   3.368   1.764 -0.0762 -0.1244  0.2011
 2911SOL    HW2 8930   4.799   3.354   1.850  0.1399 -0.4422 -0.1567
 2912SOL     OW 8931   0.598   1.820   0.866  0.3332  0.7567  0.0350
 2912SOL    HW1 8932   0.680   1.775   0.845 -0.4531 -0.4574 -0.4842
 2912SOL    HW2 8933   0.571   1.860   0.784 -0.2130  0.1292 -0.0983
 2913SOL     OW 8934   0.875   2.137   1.376 -0.1746  0.4854  0.6385
 2913SOL    HW1 8935   0.956   2.093   1.400  0.3311  1.4840  0.8382
 2913SOL    HW2 8936   0.811   2.108   1.441  0.2985  0.5169  1.1185
 2914SOL     OW 8937   0.054   2.800   2.358 -0.3614 -0.3894 -0.2322
 2914SOL    HW1 8938   0.003   2.843   2.290  0.7545  0.9385 -0.2756
 2914SOL    HW2 8939   0.141   2.839   2.351  0.5197 -2.1825  0.2026
 2915SOL     OW 8940   4.305   4.469   3.564 -0.4786 -0.0423  0.1349
 2915SOL    HW1 8941   4.320   4.470   3.470  0.5787 -1.7791  0.2381
 2915SOL    HW2 8942   4.390   4.491   3.602 -0.5862 -0.5337  0.6806
 2916SOL     OW 8943   0.754   2.035   2.879  0.1572 -0.4105 -0.3476
 2916SOL    HW1 8944   0.818   2.050   2.810  0.3639  1.9006  0.2705
 2916SOL    HW2 8945   0.708   2.118   2.887 -0.1741 -0.7685  1.9840
 2917SOL     OW 8946   1.209   4.895   0.925 -0.1975 -0.0916  0.1548
 2917SOL    HW1 8947   1.140   4.890   0.859 -0.3840 -0.0860  0.3473
 2917SOL    HW2 8948   1.281   4.845   0.888 -0.2324  0.0710 -0.1360
 2918SOL     OW 8949   2.519   2.122   4.423  0.5731 -0.5106  0.4077
 2918SOL    HW1 8950   2.571   2.134   4.343 -0.3534 -0.6424 -0.2331
 2918SOL    HW2 8951   2.536   2.031   4.449  0.3264 -0.6877 -0.0440
 2919SOL     OW 8952   1.865   3.444   1.408  0.0523  0.2708 -0.3237
 2919SOL    HW1 8953   1.865   3.539   1.415 -0.5914  0.4260 -1.9158
 2919SOL    HW2 8954   1.936   3.415   1.465  0.2067  1.6986  0.2340
 2920SOL     OW 8955   1.598   2.972   1.317  0.2009 -0.0833 -0.1876
 2920SOL    HW1 8956   1.506   2.990   1.296  0.0024 -0.2084  0.5220
 2920SOL    HW2 8957   1.638   3.058   1.329 -0.4651 -0.0329  2.0637
 2921SOL     OW 8958   2.648   4.141   3.327 -0.0563 -0.3204  0.0902
 2921SOL    HW1 8959   2.653   4.087   3.406 -0.1100  0.8131  0.8944
 2921SOL    HW2 8960   2.739   4.154   3.301 -0.0698 -1.3822 -0.5330
 2922SOL     OW 8961   0.747   3.376   0.391 -0.9125  0.7760  0.0286
 2922SOL    HW1 8962   0.679   3.419   0.443 -0.9994  0.5685  0.0883
 2922SOL    HW2 8963   0.754   3.429   0.312  0.2196  1.9312  0.8540
 2923SOL     OW 8964   2.605   0.814   3.182 -0.0120 -0.2884 -0.2853
 2923SOL    HW1 8965   2.587   0.869   3.258 -0.7977 -1.6170  0.5284
 2923SOL    HW2 8966   2.523   0.814   3.132 -0.1574 -1.0052 -0.0682
 2924SOL     OW 8967   1.989   0.051   4.473 -0.0131 -0.1914 -0.1991
 2924SOL    HW1 8968   1.934   0.082   4.400 -0.1133  0.0578 -0.0211
 2924SOL    HW2 8969   1.958   0.102   4.548 -1.6801 -2.2263  0.5950
 2925SOL     OW 8970   1.626   1.438   0.760 -0.5046 -0.5683 -0.4271
 2925SOL    HW1 8971   1.670   1.369   0.711 -0.5490  0.4737 -2.0429
 2925SOL    HW2 8972   1.540   1.445   0.718 -0.3034  0.7946 -0.6657
 2926SOL     OW 8973   1.377   2.113   0.095 -0.0673  0.4690  0.1701
 2926SOL    HW1 8974   1.286   2.136   0.114 -0.5541 -0.4997 -0.8949
 2926SOL    HW2 8975   1.413   2.191   0.052  0.0103  1.3293  1.7010
 2927SOL     OW 8976   1.478   4.150   2.572  0.4759 -0.8718 -0.8070
 2927SOL    HW1 8977   1.473   4.241   2.542 -1.1285 -1.4993 -2.5933
 2927SOL    HW2 8978   1.480   4.157   2.668 -1.2181  0.9976 -0.8424
 2928SOL     OW 8979   2.644   4.060   3.576  0.1450 -0.1989  0.3814
 2928SOL    HW1 8980   2.621   3.970   3.553 -2.3687  0.6067 -0.5735
 2928SOL    HW2 8981   2.645   4.061   3.672 -1.5634 -0.8790  0.4428
 2929SOL     OW 8982   4.205   4.426   0.367 -0.6370  0.2353 -0.0972
 2929SOL    HW1 8983   4.119   4.393   0.392 -0.8917  1.1343  0.2529
 2929SOL    HW2 8984   4.213   4.509   0.414 -0.4467  1.1821 -1.7211
 2930SOL     OW 8985   0.771   1.626   3.979 -0.4761 -0.2426 -0.4548
 2930SOL    HW1 8986   0.702   1.604   3.917 -1.1598 -0.2162  0.2738
 2930SOL    HW2 8987   0.751   1.716   4.006 -1.7046 -1.0469  1.6622
 2931SOL     OW 8988   0.593   4.233   0.032  0.6817 -0.1080 -0.0890
 2931SOL    HW1 8989   0.570   4.141   0.020  1.1333  0.0185 -2.2931
 2931SOL    HW2 8990   0.518   4.271   0.079  1.1407 -1.8528  2.2459
 2932SOL     OW 8991   2.302   4.319   4.563  0.4208 -0.5095 -0.3092
 2932SOL    HW1 8992   2.214   4.294   4.536 -0.4238  1.2322  0.6195
 2932SOL    HW2 8993   2.298   4.322   4.659  1.7621 -1.2967 -0.2079
 2933SOL     OW 8994   2.661   4.749   3.890  0.1924  0.1877 -0.4485
 2933SOL    HW1 8995   2.686   4.693   3.963 -0.4465  2.2557  1.4425
 2933SOL    HW2 8996   2.739   4.752   3.834  0.5379 -1.7761 -0.1549
 2934SOL     OW 8997   2.790   1.864   0.578 -0.2256 -0.7771  0.1448
 2934SOL    HW1 8998   2.766   1.789   0.524 -1.6913 -0.6835  0.6003
 2934SOL    HW2 8999   2.731   1.934   0.549  0.6238 -0.0134  0.2224
 2935SOL     OW 9000   3.875   4.746   1.696  0.3985  0.1799 -0.5531
 2935SOL    HW1 9001   3.810   4.694   1.744  0.5535  0.6429  0.1743
 2935SOL    HW2 9002   3.898   4.692   1.621 -0.7105 -0.0638 -0.7396
 2936SOL     OW 9003   3.240   1.698   0.054 -0.0412 -0.1230 -0.8130
 2936SOL    HW1 9004   3.228   1.604   0.035  1.0940 -0.8730  1.7697
 2936SOL    HW2 9005   3.333   1.707   0.072 -0.2079  1.4443 -0.6259
 2937SOL     OW 9006   2.461   1.754   2.198 -0.0352  0.9064 -0.3666
 2937SOL    HW1 9007   2.468   1.847   2.176  0.2634  0.5807 -1.7318
 2937SOL    HW2 9008   2.519   1.710   2.135 -0.8252 -0.2763 -0.2988
 2938SOL     OW 9009   3.029   2.343   0.285 -0.3820 -1.0181 -0.1508
 2938SOL    HW1 9010   3.031   2.427   0.239 -1.0465 -0.5680  0.6244
 2938SOL    HW2 9011   3.110   2.300   0.259  0.7390  0.5162  0.6484
 2939SOL     OW 9012   4.518   0.481   1.975 -0.4181  0.0731 -0.4115
 2939SOL    HW1 9013   4.533   0.535   1.898  0.2802 -1.7047 -1.5905
 2939SOL    HW2 9014   4.534   0.539   2.049  0.1874  1.4873 -1.6070
 2940SOL     OW 9015   4.687   0.823   1.292  0.5073 -0.4952 -0.1619
 2940SOL    HW1 9016   4.685   0.910   1.331 -0.4740  0.2822 -1.7930
 2940SOL    HW2 9017   4.769   0.783   1.323  1.5227  1.4325 -0.2477
 2941SOL     OW 9018   4.914   1.674   4.648  0.3363 -0.1663  0.6814
 2941SOL    HW1 9019   4.883   1.622   4.574 -0.2256  1.3844 -0.2171
 2941SOL    HW2 9020   4.930   1.761   4.611 -2.5065  1.4520  2.8705
 2942SOL     OW 9021   1.435   1.809   0.424 -0.1898 -0.2496  0.4358
 2942SOL    HW1 9022   1.493   1.736   0.446 -0.9165 -0.6311  1.1295
 2942SOL    HW2 9023   1.355   1.768   0.394  0.1849  0.2739 -1.4079
 2943SOL     OW 9024   0.796   2.403   0.027  0.0702  0.7327 -0.1002
 2943SOL    HW1 9025   0.861   2.403   0.097  0.1917 -0.1509 -0.2056
 2943SOL    HW2 9026   0.847   2.419  -0.052  0.0695  0.7159 -0.1040
 2944SOL     OW 9027   0.548   4.597   2.540 -0.5729  0.5438  0.8404
 2944SOL    HW1 9028   0.584   4.681   2.511 -0.5813  1.0019  2.0608
 2944SOL    HW2 9029   0.558   4.599   2.636  0.2694 -1.2576  0.8257
 2945SOL     OW 9030   0.770   0.325   1.249 -0.0438 -0.1441 -0.3251
 2945SOL    HW1 9031   0.778   0.413   1.211  0.7039 -0.7821 -1.7269
 2945SOL    HW2 9032   0.746   0.341   1.340  2.3089  1.6082  0.0933
 2946SOL     OW 9033   1.753   4.759   0.592 -0.0689 -0.4453 -0.0395
 2946SOL    HW1 9034   1.754   4.716   0.677  0.4616 -1.4190 -0.5192
 2946SOL    HW2 9035   1.808   4.837   0.603 -2.1556  0.9572  1.2313
 2947SOL     OW 9036   3.263   0.502   3.752 -0.5559 -0.0337 -0.4332
 2947SOL    HW1 9037   3.210   0.424   3.740 -0.4188 -0.5400  1.7913
 2947SOL    HW2 9038   3.353   0.469   3.758 -0.2878  0.5073 -1.2536
 2948SOL     OW 9039   1.400   1.459   0.266 -0.3952 -0.4641 -0.3234
 2948SOL    HW1 9040   1.328   1.488   0.322  0.4462 -1.0073  1.0868
 2948SOL    HW2 9041   1.427   1.537   0.218  0.8423  0.8152  2.2701
 2949SOL     OW 9042   2.711   0.599   4.254  0.8401  0.5951  0.1843
 2949SOL    HW1 9043   2.687   0.692   4.258  1.3647  0.6847  1.6135
 2949SOL    HW2 9044   2.647   0.555   4.309  1.7848  0.3863  1.1422
 2950SOL     OW 9045   4.039   3.753   4.561 -0.0768  0.7046  0.1669
 2950SOL    HW1 9046   3.979   3.827   4.550 -2.2081 -1.0545 -0.7963
 2950SOL    HW2 9047   4.031   3.730   4.654 -0.8236  0.5720  0.0790
 2951SOL     OW 9048   2.493   4.624   2.774  0.0154 -0.5740 -0.2292
 2951SOL    HW1 9049   2.545   4.597   2.698 -1.0930  0.7621 -1.5294
 2951SOL    HW2 9050   2.407   4.585   2.759 -0.9217  1.5773 -0.9574
 2952SOL     OW 9051   3.042   1.979   2.745 -0.8140 -0.0250  0.3756
 2952SOL    HW1 9052   3.029   1.887   2.767 -2.4014 -0.3337 -1.5571
 2952SOL    HW2 9053   2.998   2.027   2.815 -0.3392 -0.7398  1.1749
 2953SOL     OW 9054   0.361   2.455   3.257  0.2420 -0.0934  0.1091
 2953SOL    HW1 9055   0.402   2.431   3.174  1.3472 -0.5308  0.7579
 2953SOL    HW2 9056   0.382   2.382   3.316  1.9140  1.4433  1.5539
 2954SOL     OW 9057   0.934   3.518   3.761  0.0630  0.1827  0.4604
 2954SOL    HW1 9058   0.930   3.483   3.672  0.0224 -0.0243  0.5440
 2954SOL    HW2 9059   0.893   3.451   3.815 -0.4419  0.5645  0.5596
 2955SOL     OW 9060   1.209   2.514   4.537 -0.1431  0.4178 -0.4114
 2955SOL    HW1 9061   1.164   2.584   4.584  0.3781  0.4716  0.0257
 2955SOL    HW2 9062   1.150   2.490   4.465 -1.6699 -0.7428  1.1675
 2956SOL     OW 9063   3.034   1.322   2.244 -0.1843 -0.2097 -0.1112
 2956SOL    HW1 9064   2.965   1.339   2.179 -0.6492  0.0365  0.4307
 2956SOL    HW2 9065   3.051   1.408   2.283  0.4552 -0.2658 -0.2625
 2957SOL     OW 9066   4.245   3.417   3.798  0.5138 -0.0798  0.4238
 2957SOL    HW1 9067   4.163   3.465   3.788 -0.6763 -2.1420 -0.2759
 2957SOL    HW2 9068   4.292   3.432   3.716 -0.5659 -1.3108 -0.4645
 2958SOL     OW 9069   3.309   2.084   4.593 -0.2131  0.0046 -0.0409
 2958SOL    HW1 9070   3.268   2.110   4.510  0.5927  1.8584  0.0987
 2958SOL    HW2 9071   3.256   2.125   4.660  0.1885  0.0066  0.2785
 2959SOL     OW 9072   0.998   3.080   0.584  0.0278 -0.3446  0.4195
 2959SOL    HW1 9073   0.982   3.036   0.667  0.3025 -1.2588 -0.0017
 2959SOL    HW2 9074   1.057   3.022   0.536  0.9320  0.7951  0.1071
 2960SOL     OW 9075   0.281   4.789   0.621  0.5128 -0.5845  0.7321
 2960SOL    HW1 9076   0.374   4.791   0.597  0.9799 -0.7186  2.3941
 2960SOL    HW2 9077   0.257   4.881   0.632  0.1930 -0.5011 -0.5458
 2961SOL     OW 9078   3.319   4.434   4.500  0.0620  0.8137 -0.2435
 2961SOL    HW1 9079   3.329   4.525   4.530  0.0249  0.5459  0.6128
 2961SOL    HW2 9080   3.408   4.399   4.498 -0.0753  0.3187  1.2567
 2962SOL     OW 9081   1.748   1.097   1.923  0.4822 -0.1298 -0.9278
 2962SOL    HW1 9082   1.706   1.083   1.839  1.3030  1.1348 -1.5894
 2962SOL    HW2 9083   1.677   1.094   1.987 -0.1027 -1.4218 -1.6171
 2963SOL     OW 9084   4.731   2.828   3.820  0.3166 -0.8315 -0.1632
 2963SOL    HW1 9085   4.703   2.915   3.849  1.2616  0.4980 -2.8763
 2963SOL    HW2 9086   4.714   2.828   3.726 -0.2027 -3.8632 -0.1638
 2964SOL     OW 9087   0.850   1.363   3.523  0.1095 -0.7479  0.0096
 2964SOL    HW1 9088   0.868   1.355   3.617 -0.6299  1.0224  0.3437
 2964SOL    HW2 9089   0.865   1.455   3.504 -2.8967 -0.3501 -0.8900
 2965SOL     OW 9090   4.816   2.606   1.948 -0.5963 -0.4518  0.4608
 2965SOL    HW1 9091   4.861   2.539   1.897  0.8588  0.6454  0.2694
 2965SOL    HW2 9092   4.861   2.607   2.032  0.4263  1.3374 -0.0708
 2966SOL     OW 9093   3.048   2.663   4.408  0.0262 -0.4528 -0.4207
 2966SOL    HW1 9094   3.028   2.691   4.318  1.1124  0.6358 -0.3490
 2966SOL    HW2 9095   2.981   2.705   4.462  0.5089  0.4653 -0.5265
 2967SOL     OW 9096   4.427   1.593   1.301 -0.0015 -0.6617  0.3366
 2967SOL    HW1 9097   4.436   1.687   1.315  1.1308 -0.7172  0.0661
 2967SOL    HW2 9098   4.514   1.558   1.318  0.1587 -1.3916 -1.7614
 2968SOL     OW 9099   2.438   1.277   4.022  0.2465 -0.3521  0.0080
 2968SOL    HW1 9100   2.345   1.274   4.042 -0.0805  0.1999 -1.3115
 2968SOL    HW2 9101   2.457   1.370   4.009  1.2665 -0.3344  1.4262
 2969SOL     OW 9102   0.811   4.533   3.325 -0.6788  0.1674 -0.3463
 2969SOL    HW1 9103   0.825   4.470   3.396 -0.7964 -0.3995 -0.8182
 2969SOL    HW2 9104   0.895   4.578   3.317 -0.7371  0.4111  0.3146
 2970SOL     OW 9105   2.148   3.265   1.758  0.5733 -0.3799  0.1275
 2970SOL    HW1 9106   2.141   3.171   1.771 -1.4497 -0.3696 -0.6167
 2970SOL    HW2 9107   2.227   3.290   1.808  0.5452 -2.2657  1.2176
 2971SOL     OW 9108   2.141   0.772   4.946 -0.7533  0.2355 -0.0437
 2971SOL    HW1 9109   2.077   0.707   4.975 -0.2804 -0.6135 -0.8562
 2971SOL    HW2 9110   2.212   0.721   4.908 -0.7946  1.2322 -1.5582
 2972SOL     OW 9111   1.162   0.730   1.118  0.0652 -0.1128 -0.7290
 2972SOL    HW1 9112   1.152   0.663   1.051 -0.9194  0.4921 -1.2013
 2972SOL    HW2 9113   1.170   0.812   1.070 -0.0422  0.2630 -0.1229
 2973SOL     OW 9114   3.119   1.883   2.355  0.1835  0.7006 -0.2139
 2973SOL    HW1 9115   3.101   1.868   2.262 -1.6158 -1.3072  0.3827
 2973SOL    HW2 9116   3.052   1.945   2.383 -0.0086  0.4024 -0.0079
 2974SOL     OW 9117   1.478   3.361   2.612 -0.0883 -0.0759  0.7641
 2974SOL    HW1 9118   1.478   3.270   2.642  0.3958  0.1866  1.6012
 2974SOL    HW2 9119   1.514   3.358   2.524  0.7835 -0.6043  1.1270
 2975SOL     OW 9120   3.106   0.160   4.716 -0.0013  0.6349 -0.3175
 2975SOL    HW1 9121   3.134   0.133   4.628  1.8593  2.0431 -0.2263
 2975SOL    HW2 9122   3.066   0.082   4.753 -1.3849  0.1578 -2.6098
 2976SOL     OW 9123   1.460   2.687   2.446 -0.4585  0.0795  0.6864
 2976SOL    HW1 9124   1.553   2.700   2.465 -0.5420  1.0042  0.5337
 2976SOL    HW2 9125   1.435   2.764   2.395 -1.0137 -0.7665 -0.3623
 2977SOL     OW 9126   4.763   1.835   2.397 -0.3003  0.1080  0.5982
 2977SOL    HW1 9127   4.673   1.813   2.421 -0.2012  2.0275  3.1270
 2977SOL    HW2 9128   4.754   1.909   2.337 -0.3991  0.1175  0.6246
 2978SOL     OW 9129   1.139   4.118   2.332  0.6763  0.3254 -0.1837
 2978SOL    HW1 9130   1.117   4.174   2.406  1.5101 -0.7972  0.9551
 2978SOL    HW2 9131   1.198   4.171   2.278 -0.2670  1.2986 -0.3018
 2979SOL     OW 9132   2.157   4.594   1.155 -0.3498  0.1028 -0.1453
 2979SOL    HW1 9133   2.113   4.510   1.143 -0.3188 -0.2544  1.8847
 2979SOL    HW2 9134   2.250   4.574   1.149 -0.3103 -0.1937  1.0713
 2980SOL     OW 9135   3.035   4.339   4.168  0.1443 -0.5450  0.0996
 2980SOL    HW1 9136   3.074   4.257   4.197  0.5248  0.0773  1.4105
 2980SOL    HW2 9137   2.948   4.339   4.208 -0.7842 -1.3433 -1.7858
 2981SOL     OW 9138   2.495   1.095   3.817  0.1603  0.6480 -0.0390
 2981SOL    HW1 9139   2.578   1.049   3.824 -0.4650 -0.5670 -0.2792
 2981SOL    HW2 9140   2.478   1.128   3.906  1.6560  2.3444 -0.3388
 2982SOL     OW 9141   2.544   0.755   2.507  0.1157 -0.5032  0.4200
 2982SOL    HW1 9142   2.480   0.814   2.467  0.2860 -1.1712 -0.9057
 2982SOL    HW2 9143   2.493   0.705   2.571 -0.2375  0.3726  0.8458
 2983SOL     OW 9144   0.827   0.277   2.959 -0.3661 -0.4579 -0.2329
 2983SOL    HW1 9145   0.735   0.293   2.980 -0.3682  0.7694 -1.0197
 2983SOL    HW2 9146   0.842   0.185   2.980 -1.3799 -0.3120  1.2814
 2984SOL     OW 9147   3.027   2.636   0.410  0.1714 -0.3757  0.8443
 2984SOL    HW1 9148   3.019   2.627   0.315  0.2232  0.1998  0.7816
 2984SOL    HW2 9149   3.007   2.728   0.427  1.4001 -0.1634  1.2472
 2985SOL     OW 9150   3.781   4.897   4.859  0.1724  0.6308  0.7987
 2985SOL    HW1 9151   3.740   4.822   4.817  0.4536  0.9013  0.0121
 2985SOL    HW2 9152   3.856   4.860   4.906  0.8387  0.5087 -0.3198
 2986SOL     OW 9153   0.710   4.147   4.486  0.0226  0.0886  0.8096
 2986SOL    HW1 9154   0.723   4.241   4.502  1.7028 -0.0390  0.4022
 2986SOL    HW2 9155   0.625   4.142   4.442  0.0235  1.4619  0.5960
 2987SOL     OW 9156   2.309   2.092   2.431  0.3562  0.7293  0.4845
 2987SOL    HW1 9157   2.351   2.022   2.481  1.0876  1.1723  0.5146
 2987SOL    HW2 9158   2.225   2.055   2.403  1.8407 -1.2159 -1.9064
 2988SOL     OW 9159   3.281   2.655   2.079  0.0998  0.4392  0.0016
 2988SOL    HW1 9160   3.352   2.597   2.108 -0.4202 -0.4105 -0.3784
 2988SOL    HW2 9161   3.293   2.735   2.130  0.4687 -0.2322  1.0021
 2989SOL     OW 9162   0.495   1.538   1.674  0.0357 -0.4767  0.0287
 2989SOL    HW1 9163   0.461   1.454   1.644 -0.6615 -0.3848  0.5482
 2989SOL    HW2 9164   0.579   1.547   1.629 -0.4934 -0.8361 -1.0499
 2990SOL     OW 9165   4.335   3.817   0.579 -0.0551  0.4332  0.1307
 2990SOL    HW1 9166   4.338   3.905   0.616  1.0381  0.5517 -0.1923
 2990SOL    HW2 9167   4.414   3.774   0.612 -0.6616 -0.4792  0.4116
 2991SOL     OW 9168   4.418   4.742   0.308  0.2974  0.1252  0.3044
 2991SOL    HW1 9169   4.421   4.682   0.383 -2.3322 -2.2338 -1.2544
 2991SOL    HW2 9170   4.408   4.684   0.232  0.0152  2.5045 -1.5765
 2992SOL     OW 9171   4.210   2.593   0.451 -0.1307 -0.1984 -0.3199
 2992SOL    HW1 9172   4.183   2.611   0.361 -0.3303 -1.0715 -0.4417
 2992SOL    HW2 9173   4.182   2.670   0.500 -0.5809  0.0120 -0.8926
 2993SOL     OW 9174   2.087   1.916   2.373  0.3909  0.3722  0.5588
 2993SOL    HW1 9175   2.063   1.902   2.464 -1.7893  0.8300  0.1116
 2993SOL    HW2 9176   2.126   1.833   2.345 -1.4353 -0.7459  1.1773
 2994SOL     OW 9177   3.665   4.349   0.537 -0.3436 -0.0298 -0.1724
 2994SOL    HW1 9178   3.592   4.402   0.569 -1.3236 -1.6949  0.5083
 2994SOL    HW2 9179   3.628   4.301   0.463 -0.3254 -1.7381  0.8763
 2995SOL     OW 9180   4.030   3.155   1.259 -0.4254 -0.6285 -1.0219
 2995SOL    HW1 9181   4.008   3.097   1.186  1.4741 -0.0172 -2.1559
 2995SOL    HW2 9182   4.048   3.240   1.218  0.4196 -0.1984  0.1720
 2996SOL     OW 9183   2.461   2.119   3.095  0.0025 -0.3719  0.3952
 2996SOL    HW1 9184   2.506   2.201   3.072 -1.0988 -0.5126 -2.7876
 2996SOL    HW2 9185   2.452   2.123   3.190  1.2202  2.5461  0.5105
 2997SOL     OW 9186   4.355   0.160   1.727  0.1302 -0.0511 -0.3971
 2997SOL    HW1 9187   4.301   0.153   1.648 -0.3664  1.0290 -0.1624
 2997SOL    HW2 9188   4.440   0.189   1.695 -0.3826  1.4788 -0.4486
 2998SOL     OW 9189   1.333   2.540   1.080  0.0783  0.2371 -0.2584
 2998SOL    HW1 9190   1.355   2.517   1.170 -0.3011 -0.3928 -0.3200
 2998SOL    HW2 9191   1.239   2.558   1.083  0.1749  0.7958 -0.4186
 2999SOL     OW 9192   4.439   0.064   4.252  0.1656  0.0267  1.1178
 2999SOL    HW1 9193   4.479   0.086   4.168 -0.5948  0.2049  0.7915
 2999SOL    HW2 9194   4.380  -0.009   4.231 -0.6925  0.6514  1.3217
 3000SOL     OW 9195   2.332   4.588   4.327 -0.0812  0.1172  0.0470
 3000SOL    HW1 9196   2.416   4.583   4.373 -0.2863 -1.1251  0.3319
 3000SOL    HW2 9197   2.355   4.612   4.237  0.9176 -3.0897 -0.6744
 3001SOL     OW 9198   4.308   2.183   3.651 -0.3432 -0.1739  0.2862
 3001SOL    HW1 9199   4.343   2.187   3.740 -1.1350 -0.4452  0.6247
 3001SOL    HW2 9200   4.215   2.202   3.661 -0.3452  0.3075 -0.5560
 3002SOL     OW 9201   2.957   2.836   1.594 -0.3715 -0.2322 -0.1392
 3002SOL    HW1 9202   2.894   2.865   1.659 -1.8052 -2.8736 -0.2270
 3002SOL    HW2 9203   3.041   2.832   1.641 -0.6516  1.2547  0.5456
 3003SOL     OW 9204   3.139   2.212   0.532  0.4216 -0.4304 -0.5570
 3003SOL    HW1 9205   3.082   2.279   0.494  0.5603  0.0918  0.1369
 3003SOL    HW2 9206   3.226   2.251   0.531  0.7098 -1.0740 -1.2502
 3004SOL     OW 9207   4.928   3.945   1.581 -0.1076  0.1602  0.0931
 3004SOL    HW1 9208   4.931   4.038   1.561 -0.2284 -0.0004 -0.7060
 3004SOL    HW2 9209   4.835   3.925   1.592 -0.1893 -0.1214 -1.0257
 3005SOL     OW 9210   4.383   3.442   0.010 -0.0085 -0.4275  0.3989
 3005SOL    HW1 9211   4.334   3.517   0.043  0.7355  0.5157 -0.5592
 3005SOL    HW2 9212   4.388   3.456  -0.085  0.9171 -1.2222  0.3087
 3006SOL     OW 9213   2.384   4.677   4.672  0.4352 -0.0828 -0.4793
 3006SOL    HW1 9214   2.437   4.688   4.751  0.8113  0.2373 -0.7708
 3006SOL    HW2 9215   2.355   4.765   4.650 -1.0259 -0.3678  0.2171
 3007SOL     OW 9216   0.558   4.590   3.183 -0.0719  0.2209 -0.5009
 3007SOL    HW1 9217   0.619   4.561   3.251 -1.0083 -0.8313 -0.0847
 3007SOL    HW2 9218   0.599   4.566   3.101 -0.4643 -1.6637 -0.1919
 3008SOL     OW 9219   0.518   2.507   1.271 -1.0031  0.0245  0.0501
 3008SOL    HW1 9220   0.593   2.449   1.258 -1.6029 -1.3217  2.0947
 3008SOL    HW2 9221   0.509   2.554   1.188  1.5956 -0.3382 -0.5309
 3009SOL     OW 9222   2.849   0.463   0.279  0.6075  0.8230 -0.0355
 3009SOL    HW1 9223   2.862   0.368   0.281 -0.6360  0.6391  2.4563
 3009SOL    HW2 9224   2.937   0.499   0.269  1.0656 -0.5460 -1.3685
 3010SOL     OW 9225   3.046   3.590   1.397  0.0343 -0.0725 -0.2314
 3010SOL    HW1 9226   3.089   3.597   1.483 -1.7588 -0.6775  0.7691
 3010SOL    HW2 9227   3.079   3.509   1.359  0.2559 -0.2028  0.2355
 3011SOL     OW 9228   0.419   3.810   2.736  0.5021 -0.5945 -0.1980
 3011SOL    HW1 9229   0.420   3.864   2.657  3.0846  0.2123  0.2798
 3011SOL    HW2 9230   0.512   3.801   2.760 -0.1131 -2.0035  1.9436
 3012SOL     OW 9231   2.169   3.114   2.493 -0.4717  0.3770  0.0513
 3012SOL    HW1 9232   2.096   3.088   2.549 -0.3655  0.1943  0.1077
 3012SOL    HW2 9233   2.129   3.170   2.426 -0.9046 -0.8095 -0.7208
 3013SOL     OW 9234   4.210   2.676   4.876  0.4023 -0.6177  0.3441
 3013SOL    HW1 9235   4.246   2.754   4.834 -0.7903 -0.7721 -1.0460
 3013SOL    HW2 9236   4.149   2.640   4.812  0.5024 -2.3904  1.1729
 3014SOL     OW 9237   0.912   3.899   3.594 -0.2172  0.1195  0.0022
 3014SOL    HW1 9238   0.975   3.914   3.523  0.7177 -1.1592  0.5238
 3014SOL    HW2 9239   0.961   3.850   3.660 -1.5835 -0.3398  0.7161
 3015SOL     OW 9240   1.412   1.977   3.381  0.2354  0.4970 -0.1766
 3015SOL    HW1 9241   1.451   1.901   3.337 -0.4467 -0.9960  1.6376
 3015SOL    HW2 9242   1.329   1.991   3.336 -0.2537 -0.7224  0.2870
 3016SOL     OW 9243   2.580   0.999   3.369  0.4328  0.1431 -0.0008
 3016SOL    HW1 9244   2.519   1.061   3.410  1.9672  2.0930 -0.4681
 3016SOL    HW2 9245   2.648   0.986   3.435  0.1569 -1.0505  0.0697
 3017SOL     OW 9246   3.134   0.171   2.380 -0.0983  0.4091  0.2227
 3017SOL    HW1 9247   3.052   0.122   2.390  1.1131 -1.8821 -0.3423
 3017SOL    HW2 9248   3.178   0.164   2.464 -0.3190  1.3947  0.4374
 3018SOL     OW 9249   1.731   0.085   3.460 -0.5231 -0.2266 -0.2894
 3018SOL    HW1 9250   1.824   0.110   3.458 -0.0545 -1.8079  0.0230
 3018SOL    HW2 9251   1.701   0.112   3.547 -0.3788  0.3238 -0.4049
 3019SOL     OW 9252   1.639   2.002   1.745  0.3829  0.0138 -0.0953
 3019SOL    HW1 9253   1.598   1.985   1.829 -1.1289  2.0002 -0.3586
 3019SOL    HW2 9254   1.691   1.924   1.727  0.3558 -0.6498  2.4277
 3020SOL     OW 9255   4.897   3.449   0.221  0.3746  0.1768  0.7242
 3020SOL    HW1 9256   4.993   3.449   0.219  0.3967 -1.3435 -0.4914
 3020SOL    HW2 9257   4.874   3.524   0.274  2.2483  0.6120  0.9938
 3021SOL     OW 9258   0.705   1.177   1.695  0.1822  0.2028  0.7345
 3021SOL    HW1 9259   0.694   1.271   1.676  2.4150  0.4359  0.3294
 3021SOL    HW2 9260   0.769   1.175   1.766 -0.1053 -1.0274  0.9736
 3022SOL     OW 9261   4.198   2.073   0.527 -0.7776 -0.4503 -0.6392
 3022SOL    HW1 9262   4.224   2.063   0.435  1.0579 -0.1292 -0.1787
 3022SOL    HW2 9263   4.149   2.155   0.529 -1.1223 -0.6247 -1.3813
 3023SOL     OW 9264   1.935   1.137   1.221 -0.0369 -0.7898  0.3981
 3023SOL    HW1 9265   1.959   1.215   1.171 -1.3085 -0.8898 -0.3970
 3023SOL    HW2 9266   1.933   1.066   1.156 -0.5920 -1.1397  0.7851
 3024SOL     OW 9267   0.993   4.886   4.737 -0.4497  0.0992  0.1296
 3024SOL    HW1 9268   0.963   4.818   4.798 -2.6366  0.0511 -0.8924
 3024SOL    HW2 9269   0.973   4.850   4.651  0.0284  1.3094 -0.5067
 3025SOL     OW 9270   1.255   3.862   2.119 -0.1708 -0.3969  0.3715
 3025SOL    HW1 9271   1.270   3.773   2.088  1.3765  0.0084 -0.1111
 3025SOL    HW2 9272   1.307   3.917   2.061  0.0247  0.6958  1.5386
 3026SOL     OW 9273   2.739   1.381   0.735  0.0611 -0.3010 -0.0332
 3026SOL    HW1 9274   2.767   1.397   0.645 -1.7924  0.6185 -0.5076
 3026SOL    HW2 9275   2.820   1.367   0.784  1.1775  0.3133 -1.6300
 3027SOL     OW 9276   0.393   4.097   3.336 -0.2395 -0.3349 -0.1079
 3027SOL    HW1 9277   0.405   4.018   3.390  0.6592 -0.0176  0.1826
 3027SOL    HW2 9278   0.452   4.084   3.262  1.0290  0.6854  0.6751
 3028SOL     OW 9279   2.908   1.738   3.383  0.6133  0.3173 -0.0409
 3028SOL    HW1 9280   2.826   1.743   3.335 -0.2413  1.8526  1.4659
 3028SOL    HW2 9281   2.889   1.679   3.457  0.7686  0.8781  0.4559
 3029SOL     OW 9282   2.067   4.743   4.371 -0.0355  0.1725 -0.1741
 3029SOL    HW1 9283   2.161   4.731   4.358  0.3235  1.5201  0.9245
 3029SOL    HW2 9284   2.058   4.834   4.398 -1.7895  0.3730 -1.2905
 3030SOL     OW 9285   0.716   0.516   3.370  0.4670 -0.3380 -0.2093
 3030SOL    HW1 9286   0.690   0.484   3.456  0.5628 -0.4799 -0.2330
 3030SOL    HW2 9287   0.742   0.607   3.385  1.0721 -0.5422  0.0279
 3031SOL     OW 9288   4.828   4.579   1.112  0.0360  0.0072  0.2745
 3031SOL    HW1 9289   4.865   4.491   1.100 -2.2331 -0.7978 -2.0054
 3031SOL    HW2 9290   4.903   4.637   1.117  1.6771 -1.7060 -2.1111
 3032SOL     OW 9291   2.700   2.593   1.479 -0.0788  0.5313 -0.2271
 3032SOL    HW1 9292   2.784   2.589   1.433 -0.7225 -1.3881 -1.3173
 3032SOL    HW2 9293   2.682   2.503   1.506 -0.7604  1.2633  1.9495
 3033SOL     OW 9294   1.294   4.251   0.893  0.0288  0.1836 -0.1564
 3033SOL    HW1 9295   1.360   4.300   0.942 -2.0592  1.8259  1.2044
 3033SOL    HW2 9296   1.270   4.179   0.950 -0.4069  0.4560  0.0058
 3034SOL     OW 9297   4.174   0.206   3.049  0.2108 -0.1834  0.0507
 3034SOL    HW1 9298   4.224   0.149   2.991 -1.4269  0.0144 -1.6306
 3034SOL    HW2 9299   4.100   0.152   3.077  0.6140 -0.0487  1.4392
 3035SOL     OW 9300   4.438   1.401   2.914 -0.4693  0.0161 -0.5126
 3035SOL    HW1 9301   4.404   1.472   2.967  0.3178  2.5107 -3.1021
 3035SOL    HW2 9302   4.360   1.354   2.883 -1.2401  1.8525 -1.4548
 3036SOL     OW 9303   4.879   3.108   0.392 -0.1654  0.0874 -0.0593
 3036SOL    HW1 9304   4.946   3.174   0.371 -1.4655  0.6373 -2.9318
 3036SOL    HW2 9305   4.920   3.054   0.459  1.7903  2.4948  0.8600
 3037SOL     OW 9306   3.656   2.301   0.604 -0.2762  0.0738 -0.2262
 3037SOL    HW1 9307   3.719   2.367   0.578  0.2471 -1.0305 -1.9288
 3037SOL    HW2 9308   3.705   2.242   0.661  0.1903 -0.6045 -1.2917
 3038SOL     OW 9309   3.243   3.869   3.775  0.0813 -0.6596  0.1974
 3038SOL    HW1 9310   3.204   3.933   3.715 -1.2964 -0.4440  1.2736
 3038SOL    HW2 9311   3.320   3.912   3.810  0.9976 -0.8330 -1.4744
 3039SOL     OW 9312   1.854   0.128   1.567  0.1306 -0.2360  0.3533
 3039SOL    HW1 9313   1.759   0.131   1.583 -0.1505  1.6985 -1.3043
 3039SOL    HW2 9314   1.886   0.212   1.598  0.8534  0.2142 -1.4815
 3040SOL     OW 9315   4.168   1.052   2.347 -0.0060 -0.0177  0.5936
 3040SOL    HW1 9316   4.083   1.083   2.379  0.4225  1.8359  0.0398
 3040SOL    HW2 9317   4.148   1.010   2.264 -0.2740  1.5520 -0.1778
 3041SOL     OW 9318   3.712   1.027   4.858  0.3924 -0.3142  0.6784
 3041SOL    HW1 9319   3.680   1.098   4.914 -0.8778 -0.4373  0.1388
 3041SOL    HW2 9320   3.765   0.973   4.916  0.0365  0.1785  1.4831
 3042SOL     OW 9321   0.256   3.818   0.314  0.2767  0.3797 -0.2769
 3042SOL    HW1 9322   0.289   3.736   0.350  0.1269  0.8653  1.0298
 3042SOL    HW2 9323   0.309   3.834   0.236  1.9195  0.2485  0.7855
 3043SOL     OW 9324   0.265   4.736   4.615  0.1817  0.2905  0.8222
 3043SOL    HW1 9325   0.215   4.717   4.694 -0.6945  0.7515  0.3940
 3043SOL    HW2 9326   0.214   4.803   4.570  0.4592 -0.2433 -0.3269
 3044SOL     OW 9327   3.706   2.976   0.883  0.4007  0.5771  0.0982
 3044SOL    HW1 9328   3.652   2.909   0.923  0.2531  1.4401  1.3780
 3044SOL    HW2 9329   3.789   2.972   0.930  0.5458  0.9969 -0.1089
 3045SOL     OW 9330   3.839   1.514   3.019  0.1215 -0.3588  0.2039
 3045SOL    HW1 9331   3.763   1.460   3.041 -0.7121  0.3537 -0.8387
 3045SOL    HW2 9332   3.901   1.497   3.089 -1.1922 -0.5666  1.3605
 3046SOL     OW 9333   0.436   0.621   1.817  0.2093  0.4989  0.4858
 3046SOL    HW1 9334   0.385   0.641   1.896 -0.6770 -0.4248  0.1790
 3046SOL    HW2 9335   0.438   0.525   1.813 -1.6845  0.4498 -1.7596
 3047SOL     OW 9336   4.563   3.977   1.051  0.1370 -0.3268  0.6751
 3047SOL    HW1 9337   4.603   3.977   0.964  0.1904  2.5809  0.5976
 3047SOL    HW2 9338   4.631   3.942   1.108  2.0941  2.3474  0.1889
 3048SOL     OW 9339   0.447   0.763   2.903 -0.0965  0.1308  0.3698
 3048SOL    HW1 9340   0.521   0.745   2.962  0.3409  0.1453 -0.1719
 3048SOL    HW2 9341   0.461   0.853   2.874  0.0662 -0.1045 -0.2919
 3049SOL     OW 9342   4.137   2.678   2.240 -0.2263 -0.2247  0.0246
 3049SOL    HW1 9343   4.062   2.623   2.264 -0.2313  0.7350  2.5852
 3049SOL    HW2 9344   4.098   2.756   2.200 -0.6214  0.0813  0.9628
 3050SOL     OW 9345   0.948   1.463   0.733  0.3089 -0.1557 -0.0154
 3050SOL    HW1 9346   0.995   1.546   0.720 -0.3398  0.1760 -0.2890
 3050SOL    HW2 9347   0.964   1.441   0.824  0.7293  0.1182 -0.0173
 3051SOL     OW 9348   0.484   2.616   0.659  0.0685 -0.6073  0.0767
 3051SOL    HW1 9349   0.535   2.696   0.645 -0.9445  0.0267 -0.0703
 3051SOL    HW2 9350   0.398   2.634   0.621 -0.9618 -0.8800  2.1184
 3052SOL     OW 9351   0.502   3.614   1.846  0.8449  0.2014  0.4506
 3052SOL    HW1 9352   0.522   3.527   1.812  1.8084  0.2525  0.8566
 3052SOL    HW2 9353   0.490   3.601   1.940 -2.1145  0.0037  0.1403
 3053SOL     OW 9354   0.332   4.742   2.040  0.1099 -0.0584  0.2167
 3053SOL    HW1 9355   0.277   4.681   2.089  0.1730 -0.4731 -0.2190
 3053SOL    HW2 9356   0.332   4.822   2.092 -0.8239 -0.0836  0.2732
 3054SOL     OW 9357   2.628   2.825   4.217  0.6441 -0.3984  0.8227
 3054SOL    HW1 9358   2.624   2.894   4.282 -0.2540 -1.3682  1.8492
 3054SOL    HW2 9359   2.538   2.818   4.183  1.1234  0.1770 -0.6372
 3055SOL     OW 9360   3.149   1.633   4.568  0.0417  0.4299  0.4396
 3055SOL    HW1 9361   3.124   1.574   4.497  1.2733 -0.7828  0.9528
 3055SOL    HW2 9362   3.146   1.720   4.529 -1.0044 -0.0399 -0.5917
 3056SOL     OW 9363   1.987   1.802   0.464  0.0631 -0.3488 -0.4155
 3056SOL    HW1 9364   1.923   1.731   0.451  0.9337 -1.6470  1.8172
 3056SOL    HW2 9365   1.935   1.874   0.499 -0.3348 -1.2171  0.8816
 3057SOL     OW 9366   4.820   4.490   3.535 -0.0603 -0.4748  0.4744
 3057SOL    HW1 9367   4.859   4.465   3.619  0.9830  2.0689  0.8426
 3057SOL    HW2 9368   4.895   4.509   3.478 -0.7512  0.0464 -0.2884
 3058SOL     OW 9369   0.825   0.332   4.206  0.0179 -0.6514 -0.1262
 3058SOL    HW1 9370   0.822   0.390   4.282  0.9051 -0.8978  0.1073
 3058SOL    HW2 9371   0.891   0.370   4.149 -0.0294 -0.9383 -0.3765
 3059SOL     OW 9372   1.901   4.693   3.354  0.0689 -0.2172 -0.3142
 3059SOL    HW1 9373   1.878   4.713   3.263 -1.5077  1.5463  0.4045
 3059SOL    HW2 9374   1.993   4.668   3.350 -0.1134 -0.8193 -2.4628
 3060SOL     OW 9375   2.464   1.574   4.020 -0.0057 -0.3840 -0.1628
 3060SOL    HW1 9376   2.509   1.655   3.994  1.5843 -1.4043 -0.7534
 3060SOL    HW2 9377   2.399   1.602   4.084  1.0981  1.2642  0.3003
 3061SOL     OW 9378   2.026   4.386   1.735 -0.1252  0.1198  0.3969
 3061SOL    HW1 9379   1.947   4.423   1.773 -0.1247  0.9434 -0.3536
 3061SOL    HW2 9380   2.098   4.427   1.783 -0.1149 -1.5758  1.9505
 3062SOL     OW 9381   2.304   3.782   0.131 -0.2891 -0.0889  0.0056
 3062SOL    HW1 9382   2.240   3.738   0.186 -1.0146  0.3902 -0.4426
 3062SOL    HW2 9383   2.257   3.856   0.092  0.2636 -0.2690 -1.0640
 3063SOL     OW 9384   0.605   1.734   4.694 -0.2427 -0.1086 -0.3175
 3063SOL    HW1 9385   0.553   1.705   4.619 -2.1686  0.2674  0.8321
 3063SOL    HW2 9386   0.627   1.825   4.674 -0.6635 -0.0406 -0.4720
 3064SOL     OW 9387   1.498   2.436   2.066  0.4574 -0.1012 -0.6247
 3064SOL    HW1 9388   1.469   2.391   2.146 -1.1163 -0.1040 -1.1543
 3064SOL    HW2 9389   1.590   2.456   2.082  0.4270 -0.9277  0.8090
 3065SOL     OW 9390   3.189   4.844   3.973  0.3075  0.3885  0.4279
 3065SOL    HW1 9391   3.131   4.786   3.924  0.9255 -0.4750  0.6894
 3065SOL    HW2 9392   3.130   4.907   4.015 -0.4826 -0.7432  1.0522
 3066SOL     OW 9393   2.727   1.476   0.044  0.4824  0.1882 -0.4449
 3066SOL    HW1 9394   2.797   1.539   0.060 -0.3887  0.8796  0.9031
 3066SOL    HW2 9395   2.719   1.428   0.126 -0.1182 -0.3876 -0.8328
 3067SOL     OW 9396   3.131   4.302   2.252  0.6153 -0.3252  0.2773
 3067SOL    HW1 9397   3.125   4.216   2.293  3.1162 -0.0391  1.4409
 3067SOL    HW2 9398   3.195   4.291   2.182  1.6491  0.7454  1.0187
 3068SOL     OW 9399   0.859   3.691   1.357 -0.3665 -0.0441  0.0711
 3068SOL    HW1 9400   0.874   3.734   1.441 -0.0781  1.4795 -0.7180
 3068SOL    HW2 9401   0.946   3.687   1.317 -0.5565 -0.4203 -0.2991
 3069SOL     OW 9402   2.767   0.164   1.048  0.1029 -0.6482  0.6155
 3069SOL    HW1 9403   2.737   0.215   1.123  3.9537 -1.6533  3.1333
 3069SOL    HW2 9404   2.791   0.079   1.084  1.4562 -1.4545 -1.9109
 3070SOL     OW 9405   0.165   3.774   2.696 -0.7547 -0.1479 -0.0515
 3070SOL    HW1 9406   0.184   3.801   2.606 -0.8695 -1.6962 -0.5838
 3070SOL    HW2 9407   0.250   3.770   2.739 -0.3946 -1.6260 -0.7985
 3071SOL     OW 9408   1.046   4.541   2.660  0.6800 -0.7879  0.5400
 3071SOL    HW1 9409   0.971   4.548   2.719 -0.0285 -0.4254 -0.3733
 3071SOL    HW2 9410   1.113   4.496   2.711  0.4542  0.4202  1.9607
 3072SOL     OW 9411   2.811   3.807   4.160  0.2381 -0.2648 -0.1086
 3072SOL    HW1 9412   2.857   3.848   4.087 -1.1398 -0.7716 -1.2869
 3072SOL    HW2 9413   2.872   3.740   4.192  1.7719  1.4339  0.6912
 3073SOL     OW 9414   1.513   0.204   4.241  0.3263 -0.1516 -0.0124
 3073SOL    HW1 9415   1.497   0.128   4.185 -0.2228  0.1144 -0.2165
 3073SOL    HW2 9416   1.553   0.269   4.184 -1.0559  0.4534 -0.3307
 3074SOL     OW 9417   0.558   3.230   4.893 -0.1216 -0.3908 -0.5066
 3074SOL    HW1 9418   0.593   3.141   4.902 -1.8543 -1.0124  0.7314
 3074SOL    HW2 9419   0.525   3.234   4.804  2.1313 -0.1039 -1.3856
 3075SOL     OW 9420   3.650   2.187   0.908  0.7567 -0.0924 -0.4105
 3075SOL    HW1 9421   3.734   2.142   0.901  1.1152  0.3303  0.9032
 3075SOL    HW2 9422   3.672   2.280   0.910  0.6116 -0.0035  3.0601
 3076SOL     OW 9423   0.402   3.544   3.358  0.4061  0.2900 -0.2411
 3076SOL    HW1 9424   0.473   3.483   3.379 -1.0935 -1.7189 -0.6601
 3076SOL    HW2 9425   0.432   3.590   3.280  1.5474  0.0679  0.0427
 3077SOL     OW 9426   2.819   2.083   1.733  0.2663  0.1022 -0.0134
 3077SOL    HW1 9427   2.743   2.036   1.768  0.3868 -0.3917 -0.4029
 3077SOL    HW2 9428   2.840   2.147   1.801 -0.3449  0.0772  0.2070
 3078SOL     OW 9429   2.867   4.181   0.868  0.0798 -0.2072 -0.0375
 3078SOL    HW1 9430   2.903   4.136   0.791  0.1701 -2.4820  1.2449
 3078SOL    HW2 9431   2.783   4.137   0.883 -0.2346  0.6600  0.7817
 3079SOL     OW 9432   0.650   2.979   0.031 -0.0290 -0.2638  0.0304
 3079SOL    HW1 9433   0.729   2.972  -0.023  0.3431 -1.6004  0.6949
 3079SOL    HW2 9434   0.678   2.952   0.118 -1.0421  0.0532  0.4729
 3080SOL     OW 9435   0.345   0.668   4.188  0.5804  0.5189  0.3229
 3080SOL    HW1 9436   0.404   0.664   4.113 -1.2330 -1.2876 -1.1490
 3080SOL    HW2 9437   0.391   0.621   4.257  0.2911 -2.5100 -1.3508
 3081SOL     OW 9438   3.632   2.593   3.855  0.1080 -0.0988  0.9469
 3081SOL    HW1 9439   3.707   2.589   3.795 -0.5485 -1.9059  0.1688
 3081SOL    HW2 9440   3.663   2.646   3.929  1.7653  0.1236  0.1381
 3082SOL     OW 9441   3.926   3.299   3.695  0.4465  0.1352  0.3037
 3082SOL    HW1 9442   3.979   3.221   3.683  2.5374  1.5466 -0.1670
 3082SOL    HW2 9443   3.844   3.281   3.648  1.6395 -1.0234 -1.4292
 3083SOL     OW 9444   1.668   1.996   3.603 -0.0483  0.3143  0.9203
 3083SOL    HW1 9445   1.639   2.084   3.629 -2.1789 -0.0175 -0.1254
 3083SOL    HW2 9446   1.597   1.939   3.631  0.3812 -0.8111 -0.2282
 3084SOL     OW 9447   4.433   0.192   4.494  0.3383  0.4836  0.1313
 3084SOL    HW1 9448   4.517   0.212   4.535  1.1994  1.1384 -1.8324
 3084SOL    HW2 9449   4.456   0.157   4.408 -1.3966  0.6322 -0.4334
 3085SOL     OW 9450   1.356   4.650   1.683  0.2781 -0.5117  0.6320
 3085SOL    HW1 9451   1.297   4.676   1.613  2.4528  2.3690 -0.3384
 3085SOL    HW2 9452   1.423   4.597   1.640  0.4905 -0.4963  0.9393
 3086SOL     OW 9453   3.785   0.611   2.561  0.5430  0.5021 -0.2167
 3086SOL    HW1 9454   3.825   0.679   2.615  1.3992  0.2481 -0.5160
 3086SOL    HW2 9455   3.853   0.587   2.498 -0.2132  0.3339 -0.9923
 3087SOL     OW 9456   2.913   4.716   3.162 -0.7544  0.1464  0.0971
 3087SOL    HW1 9457   2.879   4.678   3.081 -0.5388 -1.7861  0.8446
 3087SOL    HW2 9458   2.946   4.802   3.137 -0.4377 -0.5122 -1.9186
 3088SOL     OW 9459   0.927   0.906   3.189 -0.6663 -0.8317 -0.3637
 3088SOL    HW1 9460   0.883   0.822   3.205 -2.4643  0.1810  0.2998
 3088SOL    HW2 9461   0.872   0.971   3.233 -0.7590  1.0368 -2.9781
 3089SOL     OW 9462   4.665   2.790   3.170 -0.1885  0.7331 -1.1142
 3089SOL    HW1 9463   4.646   2.702   3.136 -0.8137  0.7944 -0.9299
 3089SOL    HW2 9464   4.580   2.832   3.177 -0.0798  0.7534  0.4557
 3090SOL     OW 9465   1.179   0.431   0.788  0.0615  0.1160  0.0686
 3090SOL    HW1 9466   1.230   0.472   0.718 -0.0837 -0.3420 -0.3117
 3090SOL    HW2 9467   1.098   0.480   0.791 -0.3917 -0.5555 -0.8446
 3091SOL     OW 9468   1.513   4.494   4.680 -0.1883  0.2736 -0.5972
 3091SOL    HW1 9469   1.548   4.572   4.722 -1.6292  1.6777 -1.8789
 3091SOL    HW2 9470   1.431   4.476   4.727 -0.8031  0.6793 -1.4802
 3092SOL     OW 9471   0.877   4.670   4.861  0.9221  0.3264 -0.2954
 3092SOL    HW1 9472   0.815   4.661   4.788 -0.6583 -1.6583  1.1856
 3092SOL    HW2 9473   0.956   4.626   4.829 -0.1402 -1.5834 -0.4730
 3093SOL     OW 9474   4.805   1.974   3.880  0.3181  0.2969 -0.6818
 3093SOL    HW1 9475   4.723   1.941   3.844 -0.4780  3.3277 -1.9248
 3093SOL    HW2 9476   4.850   2.016   3.806  0.9555  2.4025  0.8041
 3094SOL     OW 9477   3.876   3.061   3.054  0.9383 -0.5547  0.2438
 3094SOL    HW1 9478   3.960   3.031   3.022  0.2056 -3.1729  0.5361
 3094SOL    HW2 9479   3.826   2.981   3.071 -1.5105  0.8802  0.3764
 3095SOL     OW 9480   4.220   0.002   0.045 -0.3316 -0.3371 -0.0862
 3095SOL    HW1 9481   4.217  -0.002   0.141  1.0110 -0.9708 -0.0481
 3095SOL    HW2 9482   4.209  -0.089   0.017 -2.9617  0.0844 -0.6637
 3096SOL     OW 9483   4.302   4.256   2.924  0.0036  0.0859  0.5621
 3096SOL    HW1 9484   4.242   4.330   2.911 -0.0139  0.3226  1.8405
 3096SOL    HW2 9485   4.247   4.178   2.911 -0.1862  0.2915  0.1038
 3097SOL     OW 9486   3.348   1.641   3.418  0.6104  0.5511  0.3677
 3097SOL    HW1 9487   3.281   1.671   3.357 -0.7709 -0.7979  1.1414
 3097SOL    HW2 9488   3.312   1.662   3.505 -0.0667 -2.4210  0.9187
 3098SOL     OW 9489   1.587   0.835   1.666 -0.5089 -0.5777 -0.2740
 3098SOL    HW1 9490   1.588   0.802   1.576 -1.4747  0.3293 -0.6393
 3098SOL    HW2 9491   1.494   0.845   1.687 -0.3567  3.1874 -0.7073
 3099SOL     OW 9492   4.457   0.589   1.557 -0.1306  0.1539 -0.3903
 3099SOL    HW1 9493   4.521   0.517   1.547  0.4616  0.7165 -0.7224
 3099SOL    HW2 9494   4.485   0.635   1.636 -1.5169 -0.9689  0.8030
 3100SOL     OW 9495   4.484   0.512   4.837 -0.0468  0.2808  0.3089
 3100SOL    HW1 9496   4.567   0.464   4.829  0.6003  1.1085  1.6208
 3100SOL    HW2 9497   4.422   0.460   4.786  1.4708  0.1767 -1.5678
 3101SOL     OW 9498   1.252   0.291   3.347  0.2002  0.1452  0.1463
 3101SOL    HW1 9499   1.290   0.348   3.414 -1.2430 -0.1051  1.2132
 3101SOL    HW2 9500   1.327   0.265   3.293  1.2089  1.3220  0.9258
 3102SOL     OW 9501   3.045   2.706   1.115  0.0916 -0.5043  0.2926
 3102SOL    HW1 9502   2.991   2.680   1.190  0.5695 -0.6370  0.5971
 3102SOL    HW2 9503   3.044   2.629   1.057  0.9308 -0.9610  0.8656
 3103SOL     OW 9504   0.274   2.168   2.645  0.1923 -0.7274  0.4125
 3103SOL    HW1 9505   0.325   2.115   2.584  0.1938  1.1111 -1.2556
 3103SOL    HW2 9506   0.327   2.245   2.661 -0.7087 -0.2323  1.1332
 3104SOL     OW 9507   2.114   4.066   1.008 -0.2677  0.1472  0.1947
 3104SOL    HW1 9508   2.114   3.983   1.056 -0.8920  0.3660  0.5972
 3104SOL    HW2 9509   2.143   4.044   0.920 -0.7010 -0.5525  0.2214
 3105SOL     OW 9510   3.863   2.985   1.657  0.1453 -0.2649  0.3275
 3105SOL    HW1 9511   3.930   2.931   1.698  0.5024 -0.3272 -0.3262
 3105SOL    HW2 9512   3.787   2.928   1.649 -0.2761  0.0369  1.8039
 3106SOL     OW 9513   4.614   0.411   1.364  0.4503 -0.1085  0.6240
 3106SOL    HW1 9514   4.569   0.478   1.312 -1.7744 -0.4013  2.0174
 3106SOL    HW2 9515   4.696   0.452   1.391  0.3823  1.0377 -0.7864
 3107SOL     OW 9516   3.997   2.416   2.099 -1.0889 -0.1202  0.4259
 3107SOL    HW1 9517   3.996   2.452   2.188 -1.4932 -2.1819  1.3158
 3107SOL    HW2 9518   3.954   2.483   2.046 -0.5774  1.2927  1.6993
 3108SOL     OW 9519   0.195   3.025   0.102 -0.3446 -0.0887  0.3852
 3108SOL    HW1 9520   0.194   3.087   0.028  0.2806  1.6978  1.7927
 3108SOL    HW2 9521   0.105   3.025   0.134 -0.8353 -1.5515 -0.8379
 3109SOL     OW 9522   0.190   0.669   3.941  0.0521 -0.6735 -0.7067
 3109SOL    HW1 9523   0.281   0.692   3.922 -0.0568  0.0797 -0.3645
 3109SOL    HW2 9524   0.158   0.743   3.993 -0.6676 -1.0742 -0.5777
 3110SOL     OW 9525   1.751   2.873   4.641 -0.5329  0.6473  0.1230
 3110SOL    HW1 9526   1.723   2.910   4.725  0.3059 -1.4509  1.4248
 3110SOL    HW2 9527   1.759   2.779   4.658  0.8704  0.3096 -1.9818
 3111SOL     OW 9528   2.955   1.190   4.625 -0.5099 -0.1180  0.0118
 3111SOL    HW1 9529   2.911   1.273   4.609 -0.3148 -0.0723 -0.3057
 3111SOL    HW2 9530   3.038   1.198   4.578 -0.1785 -0.2140  0.5788
 3112SOL     OW 9531   2.116   2.111   0.469  0.1189  0.4398  0.2030
 3112SOL    HW1 9532   2.103   2.156   0.552  1.1272  0.1576  0.5188
 3112SOL    HW2 9533   2.060   2.033   0.475  1.5384 -0.5608  1.3986
 3113SOL     OW 9534   3.045   4.467   4.517  0.5208  0.2175  0.3352
 3113SOL    HW1 9535   3.033   4.436   4.607  1.5450  1.2515  0.8512
 3113SOL    HW2 9536   3.133   4.440   4.493  0.0531 -0.5552 -0.5906
 3114SOL     OW 9537   0.461   2.483   4.544 -0.5956 -0.1159  0.5465
 3114SOL    HW1 9538   0.366   2.483   4.532 -0.6639 -0.6416  1.0274
 3114SOL    HW2 9539   0.477   2.408   4.602 -0.0207  0.7472  1.5353
 3115SOL     OW 9540   3.665   2.458   0.857  0.3074  0.4026 -0.2213
 3115SOL    HW1 9541   3.755   2.470   0.827  0.0447  0.7329 -0.8962
 3115SOL    HW2 9542   3.613   2.516   0.802 -0.5010 -0.8834 -0.8792
 3116SOL     OW 9543   2.995   4.374   2.537 -0.0362 -0.0969  0.2111
 3116SOL    HW1 9544   3.008   4.468   2.547  5.8172 -0.7367  2.0288
 3116SOL    HW2 9545   3.014   4.357   2.445 -0.3101  0.3446  0.0673
 3117SOL     OW 9546   3.265   4.943   3.706 -0.6011  0.6910 -0.2671
 3117SOL    HW1 9547   3.257   4.929   3.801 -0.6250 -1.5188 -0.5535
 3117SOL    HW2 9548   3.321   5.021   3.699 -0.3916  0.7638  1.5618
 3118SOL     OW 9549   3.124   2.195   3.958 -0.2209  0.1428 -0.3346
 3118SOL    HW1 9550   3.187   2.267   3.955 -0.3562  0.2154 -2.3928
 3118SOL    HW2 9551   3.150   2.138   3.886 -0.0104 -2.0090  1.3369
 3119SOL     OW 9552   0.054   4.505   1.525  0.3565  0.0963  0.2758
 3119SOL    HW1 9553   0.077   4.546   1.442 -0.3559 -2.0074 -1.0474
 3119SOL    HW2 9554   0.019   4.577   1.579 -2.0907  1.0969 -2.3510
 3120SOL     OW 9555   2.674   2.932   3.368  0.0563 -0.2936  0.2400
 3120SOL    HW1 9556   2.735   2.863   3.346 -0.4146 -0.9231  0.8726
 3120SOL    HW2 9557   2.684   2.945   3.462 -0.3278  0.0401  0.2392
 3121SOL     OW 9558   3.077   1.599   1.560  0.3786 -0.0111  0.2950
 3121SOL    HW1 9559   3.129   1.519   1.562  2.3047  1.1031 -1.3973
 3121SOL    HW2 9560   3.069   1.621   1.467 -0.1416  1.7172  0.7016
 3122SOL     OW 9561   1.501   0.930   1.944 -0.3428  0.4552  0.2562
 3122SOL    HW1 9562   1.528   0.936   1.852  1.4299 -1.8620  0.5215
 3122SOL    HW2 9563   1.438   0.857   1.945  1.0637 -0.8152  1.0752
 3123SOL     OW 9564   4.705   3.550   2.504 -0.2938 -0.0837 -0.7239
 3123SOL    HW1 9565   4.648   3.487   2.548 -1.4774  0.3769 -1.5379
 3123SOL    HW2 9566   4.646   3.599   2.446  0.6382  1.5764 -0.3177
 3124SOL     OW 9567   2.452   4.891   1.771 -0.5647  0.1502  0.2309
 3124SOL    HW1 9568   2.515   4.885   1.842  1.2811 -0.0605 -1.3503
 3124SOL    HW2 9569   2.395   4.814   1.783 -0.4893  0.2840  1.6114
 3125SOL     OW 9570   2.811   3.381   1.046  0.3888  0.3528 -0.4268
 3125SOL    HW1 9571   2.837   3.297   1.083 -0.2995  0.3970  0.1809
 3125SOL    HW2 9572   2.894   3.428   1.034  0.6616  0.3804  1.2154
 3126SOL     OW 9573   2.123   1.797   1.366  0.7898 -0.0203  0.0210
 3126SOL    HW1 9574   2.086   1.720   1.323 -3.8807  0.7470  2.0273
 3126SOL    HW2 9575   2.116   1.867   1.302 -2.6931  0.3262  0.6001
 3127SOL     OW 9576   3.744   2.561   4.887  0.0355  0.0960  0.2805
 3127SOL    HW1 9577   3.709   2.620   4.953  2.3943  2.7578 -0.6415
 3127SOL    HW2 9578   3.808   2.507   4.935 -0.9624 -0.6368  0.8198
 3128SOL     OW 9579   4.295   2.965   0.196 -0.5884 -0.3044  0.2912
 3128SOL    HW1 9580   4.227   2.952   0.130 -1.2509  0.1395  0.8769
 3128SOL    HW2 9581   4.349   3.036   0.161  0.0344 -1.1614 -0.5283
 3129SOL     OW 9582   2.765   1.353   1.118 -0.4212 -0.0747  0.3634
 3129SOL    HW1 9583   2.784   1.437   1.077  2.1769 -0.5703  0.3979
 3129SOL    HW2 9584   2.784   1.288   1.051 -2.1788 -0.7071  0.4108
 3130SOL     OW 9585   1.768   2.275   0.810  0.0100 -0.6597  0.0497
 3130SOL    HW1 9586   1.722   2.326   0.743 -0.0927 -1.2019 -0.2969
 3130SOL    HW2 9587   1.858   2.269   0.779  0.2500  0.1253  0.5687
 3131SOL     OW 9588   4.474   0.797   4.848  0.0126 -0.4653 -0.4794
 3131SOL    HW1 9589   4.444   0.708   4.829  0.6935 -0.4665 -1.6299
 3131SOL    HW2 9590   4.480   0.839   4.762 -0.6119  0.8031  0.0808
 3132SOL     OW 9591   3.256   3.926   2.784 -0.0059  0.0032  0.0203
 3132SOL    HW1 9592   3.197   3.900   2.713  1.4226  0.7126 -1.4943
 3132SOL    HW2 9593   3.332   3.963   2.740  1.1306  0.0986  1.9378
 3133SOL     OW 9594   2.260   0.067   2.428  0.3839  0.6347 -0.0559
 3133SOL    HW1 9595   2.354   0.085   2.419  1.5229 -3.4444  0.9716
 3133SOL    HW2 9596   2.229   0.054   2.339  1.0496  1.1045 -0.3642
 3134SOL     OW 9597   1.022   1.555   0.301  0.3959 -0.2071  0.8625
 3134SOL    HW1 9598   0.926   1.556   0.301  0.3831 -0.8802  0.7988
 3134SOL    HW2 9599   1.047   1.633   0.251 -0.0840  1.2388  2.7417
 3135SOL     OW 9600   4.768   3.947   2.287  0.0619 -0.0689  0.0473
 3135SOL    HW1 9601   4.854   3.919   2.318  0.6401 -1.6090 -2.5930
 3135SOL    HW2 9602   4.708   3.929   2.359  1.6193 -1.1112  1.1198
 3136SOL     OW 9603   3.063   1.713   1.278  0.9162 -0.8023 -0.0568
 3136SOL    HW1 9604   3.049   1.754   1.193 -1.6427 -0.5773  0.3937
 3136SOL    HW2 9605   3.101   1.781   1.333  0.1494 -0.1352 -0.3360
 3137SOL     OW 9606   1.436   3.097   0.901 -0.3328  0.3651  1.1736
 3137SOL    HW1 9607   1.384   3.177   0.907  0.3752  0.9177  0.0518
 3137SOL    HW2 9608   1.374   3.031   0.872 -0.8841  0.5220  1.9489
 3138SOL     OW 9609   2.413   2.943   3.438  0.4167  0.2445  0.6408
 3138SOL    HW1 9610   2.500   2.918   3.405 -0.7017 -1.2288 -1.3667
 3138SOL    HW2 9611   2.381   2.865   3.483 -2.4082 -1.8038 -4.2103
 3139SOL     OW 9612   2.612   4.111   0.366 -0.1121  0.2056  0.1493
 3139SOL    HW1 9613   2.574   4.175   0.426 -1.0093  0.3896 -0.6093
 3139SOL    HW2 9614   2.553   4.036   0.369 -1.5417  1.1170 -2.2696
 3140SOL     OW 9615   0.455   2.365   2.625  0.3979  0.3599  0.1015
 3140SOL    HW1 9616   0.530   2.353   2.566  0.3276 -1.7258  0.3420
 3140SOL    HW2 9617   0.494   2.363   2.713  0.0631 -1.2428  0.2475
 3141SOL     OW 9618   2.928   2.583   4.106  0.5848  0.2920 -0.3224
 3141SOL    HW1 9619   2.958   2.512   4.049  0.4973 -0.8905  1.0435
 3141SOL    HW2 9620   2.833   2.585   4.093  0.3906 -0.8658  0.7016
 3142SOL     OW 9621   2.793   0.296   3.602 -0.3801  0.3144 -0.1062
 3142SOL    HW1 9622   2.822   0.372   3.552 -2.7927  0.8896 -0.7367
 3142SOL    HW2 9623   2.746   0.332   3.676 -0.3224 -0.5736  0.3779
 3143SOL     OW 9624   0.016   3.398   4.750  0.1743 -0.8352 -0.4968
 3143SOL    HW1 9625  -0.029   3.409   4.666  0.0276  0.3314 -0.2798
 3143SOL    HW2 9626  -0.051   3.416   4.816  0.7767  0.3239 -0.1652
 3144SOL     OW 9627   2.493   4.253   4.385  0.4394 -0.3676 -0.1278
 3144SOL    HW1 9628   2.555   4.196   4.432 -0.6653 -1.8142 -0.3573
 3144SOL    HW2 9629   2.446   4.299   4.454 -0.2950 -1.5273  0.1600
 3145SOL     OW 9630   4.605   2.242   0.280 -0.1737 -0.2072 -0.2807
 3145SOL    HW1 9631   4.664   2.315   0.264 -0.7572  0.3610  0.1160
 3145SOL    HW2 9632   4.517   2.279   0.272 -0.4909 -0.5095  1.4236
 3146SOL     OW 9633   3.594   3.840   1.941 -0.2458 -0.3222 -0.8068
 3146SOL    HW1 9634   3.644   3.922   1.949 -0.6325 -0.0409 -1.1937
 3146SOL    HW2 9635   3.503   3.868   1.935 -0.4694 -0.8420  0.0216
 3147SOL     OW 9636   2.267   4.730   3.026  0.1759  0.0265  0.2127
 3147SOL    HW1 9637   2.183   4.699   2.993  0.7094 -0.2942 -0.8713
 3147SOL    HW2 9638   2.297   4.793   2.961 -0.1149  1.6488  1.5646
 3148SOL     OW 9639   1.676   3.392   2.373  0.1915 -0.1548  0.1900
 3148SOL    HW1 9640   1.761   3.380   2.415  2.2202  1.5619 -3.0273
 3148SOL    HW2 9641   1.654   3.306   2.338  1.4187 -0.2805 -0.3070
 3149SOL     OW 9642   4.162   0.311   0.881  0.1584 -0.3876 -0.5039
 3149SOL    HW1 9643   4.228   0.317   0.950 -1.7839 -0.6369  1.4661
 3149SOL    HW2 9644   4.134   0.220   0.882 -0.8967 -0.0720 -0.6462
 3150SOL     OW 9645   4.597   1.390   4.231  0.3202 -0.2538  0.5578
 3150SOL    HW1 9646   4.627   1.433   4.151 -0.6772  0.1141  0.3639
 3150SOL    HW2 9647   4.664   1.409   4.296  0.2120  1.0794  0.3072
 3151SOL     OW 9648   0.830   1.006   2.878  0.0695 -1.0813  0.6493
 3151SOL    HW1 9649   0.874   1.078   2.922  0.0283 -0.5931 -0.0858
 3151SOL    HW2 9650   0.884   0.929   2.897  0.4849 -0.7329  0.8802
 3152SOL     OW 9651   3.784   3.670   4.084 -0.2514 -0.0888  0.1108
 3152SOL    HW1 9652   3.874   3.702   4.092  0.1922 -1.0694 -0.7254
 3152SOL    HW2 9653   3.731   3.735   4.130  0.8563  0.6402  0.3887
 3153SOL     OW 9654   2.271   0.966   3.754 -0.2015  0.0776  0.2827
 3153SOL    HW1 9655   2.212   1.027   3.797 -0.7801  0.0254 -0.4144
 3153SOL    HW2 9656   2.356   1.010   3.754 -0.2583  0.2006  1.1846
 3154SOL     OW 9657   2.077   3.017   2.078 -0.0035  0.9276 -0.3252
 3154SOL    HW1 9658   2.163   3.028   2.118  0.3266  1.3533 -1.1416
 3154SOL    HW2 9659   2.094   3.015   1.984 -1.0511  2.8252 -0.6069
 3155SOL     OW 9660   1.318   2.371   3.517  0.2815 -0.0712 -0.3579
 3155SOL    HW1 9661   1.291   2.421   3.594 -1.3824 -0.9404 -0.3420
 3155SOL    HW2 9662   1.389   2.315   3.548 -0.1698 -0.1958  0.4636
 3156SOL     OW 9663   4.161   1.756   0.064  0.0198  0.2828  0.3533
 3156SOL    HW1 9664   4.133   1.706   0.140 -0.0881  0.1550  0.2313
 3156SOL    HW2 9665   4.251   1.727   0.049 -0.2521 -0.3702 -0.1084
 3157SOL     OW 9666   3.619   1.541   3.794 -0.6152  0.4096  0.5550
 3157SOL    HW1 9667   3.551   1.597   3.831 -2.7892 -1.3945 -0.5088
 3157SOL    HW2 9668   3.647   1.587   3.715 -1.7437  0.4063  0.1484
 3158SOL     OW 9669   2.596   2.048   0.562 -0.0222  0.3183 -0.0555
 3158SOL    HW1 9670   2.538   2.123   0.554 -0.4997 -0.0567 -0.1912
 3158SOL    HW2 9671   2.538   1.972   0.551  0.5713 -0.0530 -0.7047
 3159SOL     OW 9672   2.294   2.977   0.755  0.3027 -0.4723 -0.4567
 3159SOL    HW1 9673   2.358   3.039   0.719  0.9384 -0.5698  0.4736
 3159SOL    HW2 9674   2.322   2.892   0.724  0.0312 -0.4138 -0.8758
 3160SOL     OW 9675   0.019   0.261   1.953  0.0493 -0.6877  0.1249
 3160SOL    HW1 9676   0.050   0.299   1.870  1.9004 -0.7880  0.7234
 3160SOL    HW2 9677  -0.032   0.185   1.926  0.9471 -0.9512 -0.9456
 3161SOL     OW 9678   2.540   4.124   4.799  0.0246  0.4072 -0.0352
 3161SOL    HW1 9679   2.525   4.213   4.767  1.0454  0.3546 -0.7037
 3161SOL    HW2 9680   2.578   4.136   4.887  0.1551  0.6273 -0.1215
 3162SOL     OW 9681   2.182   0.140   0.705 -0.0519 -0.2168 -0.0081
 3162SOL    HW1 9682   2.272   0.149   0.673 -0.0138  0.1770  0.2126
 3162SOL    HW2 9683   2.187   0.069   0.769  0.0314 -0.4368 -0.2558
 3163SOL     OW 9684   0.250   3.518   4.784 -0.4492 -0.2949  0.0017
 3163SOL    HW1 9685   0.212   3.602   4.809 -0.1623 -0.4407  0.9839
 3163SOL    HW2 9686   0.175   3.461   4.770 -0.6814 -0.7704  2.5993
 3164SOL     OW 9687   1.511   1.079   3.567 -0.0504 -0.5646  0.0918
 3164SOL    HW1 9688   1.541   1.050   3.481 -1.6791 -0.6014 -0.5016
 3164SOL    HW2 9689   1.557   1.162   3.582 -2.7383  1.6355 -2.7223
 3165SOL     OW 9690   3.368   3.679   2.390  0.2031 -0.3468  0.1966
 3165SOL    HW1 9691   3.298   3.712   2.445 -0.3295 -1.4223  0.2027
 3165SOL    HW2 9692   3.447   3.686   2.444 -0.0407  0.1207  0.4903
 3166SOL     OW 9693   3.677   3.035   0.490 -0.1704  0.0788  0.4292
 3166SOL    HW1 9694   3.636   3.056   0.574 -0.7812 -1.0963  0.4552
 3166SOL    HW2 9695   3.638   2.950   0.465 -0.0726  0.4356 -1.0738
 3167SOL     OW 9696   0.839   1.503   3.058 -0.2692  0.8890  0.1348
 3167SOL    HW1 9697   0.930   1.474   3.057 -0.6240 -0.3438 -1.7655
 3167SOL    HW2 9698   0.837   1.573   3.123  2.0664  1.0975  0.0766
 3168SOL     OW 9699   4.064   1.786   4.753  0.3697 -0.0727 -0.3329
 3168SOL    HW1 9700   4.046   1.880   4.750 -0.5281 -0.2477 -0.8158
 3168SOL    HW2 9701   4.090   1.769   4.844 -0.0963  0.5366 -0.0785
 3169SOL     OW 9702   1.082   1.552   2.087  0.1947  0.2833 -0.0174
 3169SOL    HW1 9703   1.024   1.483   2.119 -0.2656  1.4608  1.8293
 3169SOL    HW2 9704   1.166   1.535   2.130  0.6723 -0.2850 -1.1526
 3170SOL     OW 9705   0.521   0.437   0.504  0.3748  0.3229  0.3328
 3170SOL    HW1 9706   0.576   0.360   0.519  1.1631  0.9673  0.8384
 3170SOL    HW2 9707   0.526   0.452   0.409  0.4600 -0.0658  0.2761
 3171SOL     OW 9708   4.048   4.297   3.159 -0.0763  0.2851  0.2165
 3171SOL    HW1 9709   4.037   4.340   3.244 -1.2339 -1.5891  1.0991
 3171SOL    HW2 9710   4.012   4.359   3.096 -0.9439  0.9609  1.3305
 3172SOL     OW 9711   2.657   2.546   4.347 -0.4904 -0.3176 -0.2126
 3172SOL    HW1 9712   2.673   2.475   4.284  1.5260  0.3126 -0.4835
 3172SOL    HW2 9713   2.631   2.620   4.293 -2.0413 -0.6505  0.0253
 3173SOL     OW 9714   1.362   2.030   2.520 -0.2733 -0.6705 -1.0542
 3173SOL    HW1 9715   1.442   2.012   2.569 -0.5094 -0.5465 -0.6135
 3173SOL    HW2 9716   1.392   2.066   2.437  0.1341 -0.8604 -0.9902
 3174SOL     OW 9717   4.667   3.289   0.286 -0.0504 -0.7351  0.4269
 3174SOL    HW1 9718   4.742   3.336   0.250 -0.6604 -1.0820 -1.4181
 3174SOL    HW2 9719   4.705   3.220   0.340  0.9004  0.3317  1.1457
 3175SOL     OW 9720   1.815   1.156   4.361  0.1856 -0.4256 -0.4279
 3175SOL    HW1 9721   1.903   1.145   4.398  0.7462 -1.6741 -2.0543
 3175SOL    HW2 9722   1.761   1.183   4.436  1.5219 -1.6450  1.0336
 3176SOL     OW 9723   3.871   1.648   1.106 -0.1423  0.1557 -0.4321
 3176SOL    HW1 9724   3.928   1.650   1.182  0.0213 -0.3369 -0.5407
 3176SOL    HW2 9725   3.929   1.667   1.032 -0.4572  1.5101 -0.3468
 3177SOL     OW 9726   0.112   4.335   2.384 -0.3290  0.2129 -0.1068
 3177SOL    HW1 9727   0.058   4.359   2.308  0.0027 -0.8855 -0.7069
 3177SOL    HW2 9728   0.184   4.285   2.347  0.4636  0.6409  0.8256
 3178SOL     OW 9729   4.348   0.584   0.136 -0.4211  0.1843  0.1487
 3178SOL    HW1 9730   4.370   0.578   0.043  0.9191  0.3210  0.4383
 3178SOL    HW2 9731   4.310   0.498   0.157  0.2174 -0.2191 -0.3015
 3179SOL     OW 9732   0.290   3.270   0.837 -0.9790  0.4530 -0.9059
 3179SOL    HW1 9733   0.234   3.205   0.794  0.5086 -1.8253  0.3551
 3179SOL    HW2 9734   0.357   3.218   0.881  1.0181  2.9478 -0.7559
 3180SOL     OW 9735   4.763   3.208   2.739 -0.3997 -0.1021  0.2371
 3180SOL    HW1 9736   4.821   3.252   2.801  0.6184  1.0242 -1.4194
 3180SOL    HW2 9737   4.819   3.188   2.664 -1.4591 -1.8853 -0.1398
 3181SOL     OW 9738   2.005   0.251   1.833  0.3656 -0.2465 -0.1459
 3181SOL    HW1 9739   2.067   0.201   1.781  0.7059 -0.8680  0.8386
 3181SOL    HW2 9740   1.968   0.314   1.771  2.4869  0.6365 -0.6232
 3182SOL     OW 9741   1.063   4.736   0.766  0.5686  0.0584 -0.0815
 3182SOL    HW1 9742   1.016   4.813   0.732  1.2120  0.8679  0.8179
 3182SOL    HW2 9743   1.073   4.679   0.689 -2.9051 -0.7438 -0.1179
 3183SOL     OW 9744   3.867   1.919   3.815 -0.1129 -0.8796 -0.1289
 3183SOL    HW1 9745   3.944   1.958   3.856 -2.0913  1.3760  1.7302
 3183SOL    HW2 9746   3.850   1.840   3.866 -0.4664 -0.0249  1.1042
 3184SOL     OW 9747   1.763   3.632   2.791  0.1548 -0.0535 -0.1060
 3184SOL    HW1 9748   1.773   3.563   2.855 -0.6470  0.4441  0.5704
 3184SOL    HW2 9749   1.674   3.665   2.804 -0.4612 -0.6846 -2.2262
 3185SOL     OW 9750   0.030   4.517   3.211  0.2834 -0.5098  0.1012
 3185SOL    HW1 9751   0.052   4.454   3.279  1.5399 -0.1612  0.0400
 3185SOL    HW2 9752   0.113   4.559   3.189 -0.7199  2.3479  1.3017
 3186SOL     OW 9753   0.889   4.763   3.896 -0.2451  0.1322  0.1977
 3186SOL    HW1 9754   0.839   4.687   3.925 -0.0676  0.0662  0.3387
 3186SOL    HW2 9755   0.852   4.786   3.811  1.4933 -1.8159 -1.2002
 3187SOL     OW 9756   0.495   4.252   1.633 -0.1410  0.3138  0.2097
 3187SOL    HW1 9757   0.446   4.226   1.711 -0.5423  0.1321 -0.0996
 3187SOL    HW2 9758   0.459   4.337   1.608  0.5159  0.7360  0.6641
 3188SOL     OW 9759   3.578   2.735   2.704  0.1375  0.4673  0.0943
 3188SOL    HW1 9760   3.646   2.730   2.771  0.3142  1.9256  0.0667
 3188SOL    HW2 9761   3.506   2.681   2.737  0.5755  0.4475  1.0325
 3189SOL     OW 9762   2.186   3.560   2.283 -0.6492 -0.0459 -0.1221
 3189SOL    HW1 9763   2.224   3.475   2.309 -0.7387 -0.1024 -0.1757
 3189SOL    HW2 9764   2.125   3.538   2.212 -0.0532  0.1714 -0.7050
 3190SOL     OW 9765   1.358   2.838   3.027  0.4586  0.2725  0.3027
 3190SOL    HW1 9766   1.268   2.844   3.059 -0.1885  0.3283 -1.4405
 3190SOL    HW2 9767   1.403   2.786   3.093 -0.6456  0.8992  1.6113
 3191SOL     OW 9768   0.612   3.991   1.771 -0.1563 -0.3056 -0.1802
 3191SOL    HW1 9769   0.519   3.980   1.791 -0.0907  1.8744  1.6483
 3191SOL    HW2 9770   0.615   4.001   1.676 -1.5616 -1.9336 -0.4616
 3192SOL     OW 9771   1.496   4.802   0.884 -0.2156  0.0785 -0.5305
 3192SOL    HW1 9772   1.545   4.795   0.966 -0.9758  1.5142  0.0886
 3192SOL    HW2 9773   1.479   4.712   0.859 -0.0821 -0.4052  0.9858
 3193SOL     OW 9774   0.785   1.466   1.812  0.2267 -0.1399  0.1496
 3193SOL    HW1 9775   0.730   1.499   1.882 -1.0182 -0.7057 -0.5283
 3193SOL    HW2 9776   0.735   1.482   1.732  1.4220  0.0958 -0.5762
 3194SOL     OW 9777   4.495   1.965   0.298  0.4678  0.2778  0.6401
 3194SOL    HW1 9778   4.452   2.050   0.289 -0.5666 -0.0183  2.3423
 3194SOL    HW2 9779   4.576   1.984   0.344 -0.2452  0.2452  1.9439
 3195SOL     OW 9780   3.544   0.575   2.410 -0.9357 -0.2898 -0.6280
 3195SOL    HW1 9781   3.585   0.638   2.350 -2.2242  2.2160  0.9741
 3195SOL    HW2 9782   3.608   0.565   2.480 -1.2479  0.2582 -0.2577
 3196SOL     OW 9783   3.572   3.572   3.378  0.5601 -0.1700  0.0363
 3196SOL    HW1 9784   3.502   3.598   3.438  1.4821 -0.4210  1.2778
 3196SOL    HW2 9785   3.653   3.598   3.424  1.2827  0.3061 -1.4493
 3197SOL     OW 9786   0.472   2.610   1.026 -0.7263 -0.6383 -0.1848
 3197SOL    HW1 9787   0.465   2.551   0.951 -0.1511  0.2330 -0.9517
 3197SOL    HW2 9788   0.493   2.696   0.987  1.2561 -0.5028  1.0408
 3198SOL     OW 9789   3.921   2.974   3.971 -0.2240 -0.4420  0.7302
 3198SOL    HW1 9790   3.973   2.973   4.051  1.3430 -0.3750 -0.2284
 3198SOL    HW2 9791   3.906   3.067   3.953 -1.5945 -0.4775  1.5282
 3199SOL     OW 9792   2.541   0.385   4.100  0.3940  0.1177  0.4896
 3199SOL    HW1 9793   2.536   0.423   4.188  1.3621 -0.3287  0.7494
 3199SOL    HW2 9794   2.452   0.393   4.065  0.3701  1.7777  0.8785
 3200SOL     OW 9795   2.495   3.416   1.411 -0.2638  0.1744 -0.7649
 3200SOL    HW1 9796   2.414   3.466   1.418  0.5748  1.4783  0.1833
 3200SOL    HW2 9797   2.522   3.427   1.319  0.8720  3.1642 -0.1760
 3201SOL     OW 9798   2.793   3.058   4.710  0.0868  0.3634 -0.1040
 3201SOL    HW1 9799   2.745   2.986   4.752  0.7556  1.2668  2.4456
 3201SOL    HW2 9800   2.871   3.069   4.765  1.4614  1.1936 -2.1186
 3202SOL     OW 9801   0.116   0.389   4.684  0.1566 -0.5052  0.1603
 3202SOL    HW1 9802   0.054   0.323   4.653  1.8408 -1.7694 -0.6738
 3202SOL    HW2 9803   0.164   0.346   4.755 -0.0499  0.5333  0.9564
 3203SOL     OW 9804   0.862   0.002   2.996 -0.1263 -0.2152  0.3145
 3203SOL    HW1 9805   0.843  -0.001   3.090 -1.2677 -0.1361  0.1098
 3203SOL    HW2 9806   0.905  -0.081   2.977  0.4220 -0.0829  0.9665
 3204SOL     OW 9807   1.621   0.382   0.123 -0.6076 -0.5336 -0.3675
 3204SOL    HW1 9808   1.714   0.376   0.140 -0.6538 -1.3126 -0.3400
 3204SOL    HW2 9809   1.600   0.475   0.130  0.0896 -0.4045  0.0042
 3205SOL     OW 9810   0.580   3.289   1.031 -0.1411 -1.0330  0.0332
 3205SOL    HW1 9811   0.611   3.223   1.093  0.2171  0.4939  1.5166
 3205SOL    HW2 9812   0.520   3.343   1.081 -0.8878 -0.5526 -1.3271
 3206SOL     OW 9813   1.080   4.194   3.284 -0.5443  0.9714 -0.2829
 3206SOL    HW1 9814   1.104   4.235   3.201 -0.2031  2.6912  0.6029
 3206SOL    HW2 9815   1.072   4.268   3.345  2.6928 -0.3789  2.0936
 3207SOL     OW 9816   1.621   2.114   3.079  0.1693  0.2584  0.4618
 3207SOL    HW1 9817   1.707   2.080   3.105  0.8710  1.5004 -0.1311
 3207SOL    HW2 9818   1.591   2.054   3.011  0.6859 -0.0640  0.5130
 3208SOL     OW 9819   0.001   4.697   2.879 -0.8941  0.1470  0.4923
 3208SOL    HW1 9820  -0.048   4.760   2.825  0.5605  1.3119  0.4795
 3208SOL    HW2 9821   0.091   4.704   2.849 -0.6174 -1.6806  0.7834
 3209SOL     OW 9822   1.115   2.360   2.883  0.4760 -0.0135 -0.2660
 3209SOL    HW1 9823   1.096   2.352   2.976 -2.7289  0.0060 -0.8092
 3209SOL    HW2 9824   1.033   2.337   2.839  2.1799 -1.1315 -3.1615
 3210SOL     OW 9825   2.126   1.906   2.897 -0.7906 -0.3159  0.2269
 3210SOL    HW1 9826   2.185   1.872   2.830 -1.0515  0.2398 -0.2932
 3210SOL    HW2 9827   2.180   1.915   2.975  0.2569  1.7451 -0.6705
 3211SOL     OW 9828   0.641   4.841   2.477 -0.5643  0.4697  0.2427
 3211SOL    HW1 9829   0.633   4.911   2.412  0.3857  1.0700  0.7566
 3211SOL    HW2 9830   0.735   4.832   2.492 -0.7149 -0.4546  0.6806
 3212SOL     OW 9831   3.441   4.471   0.609 -0.2473 -0.3331  0.1133
 3212SOL    HW1 9832   3.388   4.515   0.542 -1.0041 -0.4413  0.6259
 3212SOL    HW2 9833   3.377   4.432   0.668  0.4000 -1.5220  0.0751
 3213SOL     OW 9834   4.006   1.408   0.218 -0.1650  0.5074  0.1202
 3213SOL    HW1 9835   4.073   1.403   0.149  0.9098 -2.0356  1.2471
 3213SOL    HW2 9836   4.034   1.480   0.274  0.5760  0.6824 -0.4620
 3214SOL     OW 9837   0.005   3.844   3.651 -0.5647 -0.0248  0.2277
 3214SOL    HW1 9838  -0.037   3.767   3.690 -2.5961  0.0908 -1.5308
 3214SOL    HW2 9839   0.080   3.809   3.604 -0.7772 -0.7695  0.4258
 3215SOL     OW 9840   2.739   0.815   0.189 -0.1169  0.6590 -0.2151
 3215SOL    HW1 9841   2.683   0.742   0.162 -1.6455  2.0748 -1.0473
 3215SOL    HW2 9842   2.680   0.878   0.230  0.8485  2.1738 -1.0409
 3216SOL     OW 9843   2.599   1.964   0.228 -0.6203 -1.1917  0.0266
 3216SOL    HW1 9844   2.605   1.910   0.150  0.7769  1.0680 -1.5584
 3216SOL    HW2 9845   2.505   1.968   0.248 -1.0241 -1.6870 -1.6478
 3217SOL     OW 9846   3.732   4.257   0.183 -0.1778 -0.4475 -0.2725
 3217SOL    HW1 9847   3.818   4.289   0.155 -0.2542  0.4293  0.4288
 3217SOL    HW2 9848   3.689   4.229   0.102  0.7481 -0.8601 -0.6326
 3218SOL     OW 9849   3.490   2.899   3.937  0.7905  0.2733  1.2891
 3218SOL    HW1 9850   3.471   2.830   3.873  0.3007  2.0482 -0.5716
 3218SOL    HW2 9851   3.575   2.874   3.973  0.7212 -1.1968  0.5407
 3219SOL     OW 9852   4.697   3.239   3.643  0.0652 -0.4920  0.5799
 3219SOL    HW1 9853   4.724   3.329   3.663  1.0109 -0.6838  0.2086
 3219SOL    HW2 9854   4.738   3.186   3.710  0.4435 -0.7713  0.1309
 3220SOL     OW 9855   4.032   3.716   1.470  0.5909 -0.2550 -0.6259
 3220SOL    HW1 9856   4.111   3.664   1.486  1.8894  1.6365 -0.5562
 3220SOL    HW2 9857   4.012   3.756   1.554  1.5299  1.8456 -1.3462
 3221SOL     OW 9858   0.102   4.151   2.076 -0.1724  0.2838  0.2888
 3221SOL    HW1 9859   0.108   4.121   2.167 -0.2893 -1.7216 -0.3101
 3221SOL    HW2 9860   0.181   4.204   2.064  0.5456 -0.5132  1.2072
 3222SOL     OW 9861   2.397   1.183   3.427 -0.0226 -0.8419 -0.2815
 3222SOL    HW1 9862   2.306   1.155   3.437  0.7958 -3.5280  0.6980
 3222SOL    HW2 9863   2.405   1.207   3.335 -1.9044  0.2825 -0.1934
 3223SOL     OW 9864   0.294   2.337   0.094  0.5527  0.0197  0.0559
 3223SOL    HW1 9865   0.316   2.246   0.113  3.3129  0.5730 -0.0302
 3223SOL    HW2 9866   0.289   2.379   0.180  1.1522  0.1374  0.0390
 3224SOL     OW 9867   2.772   3.143   2.678  0.5158 -0.0364  0.4086
 3224SOL    HW1 9868   2.824   3.198   2.736  1.3152 -1.5432  1.1778
 3224SOL    HW2 9869   2.790   3.053   2.707  0.1476 -0.7877 -1.5188
 3225SOL     OW 9870   3.504   1.308   2.648  0.0821 -0.3142 -0.7032
 3225SOL    HW1 9871   3.587   1.262   2.661  0.7032  1.2178  1.0840
 3225SOL    HW2 9872   3.528   1.389   2.603 -0.5643 -0.2413 -0.9315
 3226SOL     OW 9873   1.109   1.282   3.329 -0.0288  0.7088  0.7502
 3226SOL    HW1 9874   1.057   1.207   3.299  1.2211  0.1022  0.0054
 3226SOL    HW2 9875   1.048   1.333   3.383 -2.0550  1.2213 -1.7895
 3227SOL     OW 9876   0.909   0.492   2.558  0.4883  0.1273  0.0062
 3227SOL    HW1 9877   0.964   0.521   2.485  0.5226  1.3649  0.4937
 3227SOL    HW2 9878   0.824   0.472   2.518  0.2274  1.6598 -0.2828
 3228SOL     OW 9879   3.127   0.832   0.252  0.1197  0.0920  0.0010
 3228SOL    HW1 9880   3.077   0.843   0.171  0.4754  0.9219 -0.1119
 3228SOL    HW2 9881   3.180   0.911   0.258 -2.5719  1.8869  2.9895
 3229SOL     OW 9882   1.532   2.862   3.882 -0.4581 -0.4831 -0.4397
 3229SOL    HW1 9883   1.498   2.942   3.842 -0.4796 -0.5207 -0.4957
 3229SOL    HW2 9884   1.473   2.846   3.956 -0.4056 -0.4024 -0.3801
 3230SOL     OW 9885   2.444   3.209   1.905  0.3448  0.0949  0.2127
 3230SOL    HW1 9886   2.424   3.286   1.958  2.6589  1.3446 -0.5859
 3230SOL    HW2 9887   2.455   3.138   1.968 -2.8345  0.0761  0.8933
 3231SOL     OW 9888   4.262   2.490   1.212 -0.3227 -0.0604  0.3227
 3231SOL    HW1 9889   4.242   2.542   1.134  1.5279  2.0511  1.1210
 3231SOL    HW2 9890   4.198   2.518   1.277  0.1921  0.7229  0.5148
 3232SOL     OW 9891   0.287   1.000   3.074 -0.4456 -0.1736 -0.1169
 3232SOL    HW1 9892   0.314   0.961   2.991 -0.4566  0.7032 -0.5416
 3232SOL    HW2 9893   0.369   1.034   3.111 -0.6554  0.7336 -0.4697
 3233SOL     OW 9894   1.484   4.396   1.567  0.1444 -1.0598  0.2645
 3233SOL    HW1 9895   1.430   4.372   1.491 -0.0347 -1.4452  0.5090
 3233SOL    HW2 9896   1.573   4.376   1.539  0.1160 -0.8722  0.0304
 3234SOL     OW 9897   3.301   1.070   2.832 -0.3358  0.4288 -0.5429
 3234SOL    HW1 9898   3.256   1.138   2.783 -0.9198 -0.1252 -0.7971
 3234SOL    HW2 9899   3.230   1.016   2.867  0.1035  0.2241  0.0506
 3235SOL     OW 9900   3.258   1.138   3.866  0.5235 -0.3659 -0.5463
 3235SOL    HW1 9901   3.272   1.099   3.952 -2.3174 -1.6602 -0.5505
 3235SOL    HW2 9902   3.345   1.142   3.826  1.3569 -4.3682  0.4576
 3236SOL     OW 9903   1.729   3.227   1.298  0.0379 -0.1713 -0.2421
 3236SOL    HW1 9904   1.778   3.301   1.335  1.1043 -0.5546 -0.8385
 3236SOL    HW2 9905   1.773   3.209   1.215 -2.0529  0.4498 -1.5866
 3237SOL     OW 9906   4.707   0.336   4.196 -0.2420  0.6810 -0.0290
 3237SOL    HW1 9907   4.707   0.244   4.224 -2.8082  0.5084 -0.3065
 3237SOL    HW2 9908   4.779   0.343   4.134  0.7560 -0.8353  0.9083
 3238SOL     OW 9909   3.921   3.114   0.311 -0.6298  0.3327  0.9817
 3238SOL    HW1 9910   3.832   3.128   0.343 -0.5194 -1.0707  1.9863
 3238SOL    HW2 9911   3.914   3.124   0.216 -1.5942  1.4560  1.1425
 3239SOL     OW 9912   0.830   3.172   1.308 -0.1779 -0.4927  0.1898
 3239SOL    HW1 9913   0.804   3.261   1.331  0.8660 -0.2038  0.3169
 3239SOL    HW2 9914   0.753   3.118   1.330 -1.0431  0.4408 -0.4793
 3240SOL     OW 9915   0.693   3.662   0.918 -0.3856 -0.2015 -0.2764
 3240SOL    HW1 9916   0.708   3.716   0.996  0.3578 -0.5289 -0.1846
 3240SOL    HW2 9917   0.741   3.707   0.848 -0.8947 -0.0097 -0.5039
 3241SOL     OW 9918   3.535   3.275   2.447 -0.1059  0.5703  0.5037
 3241SOL    HW1 9919   3.444   3.245   2.444  0.3068 -0.6710 -0.2849
 3241SOL    HW2 9920   3.553   3.308   2.359  0.2952  0.5624  0.5797
 3242SOL     OW 9921   3.169   2.483   0.959 -0.1045 -0.4889  0.2506
 3242SOL    HW1 9922   3.252   2.446   0.989 -0.1766 -0.7703  0.0993
 3242SOL    HW2 9923   3.183   2.500   0.866  0.1209  0.3911  0.4327
 3243SOL     OW 9924   4.438   4.222   1.332  0.0436 -0.0558  0.0732
 3243SOL    HW1 9925   4.498   4.251   1.263 -1.1963  1.5159 -0.4084
 3243SOL    HW2 9926   4.444   4.126   1.330 -1.2675 -0.2344 -3.5191
 3244SOL     OW 9927   1.874   2.643   3.939 -0.1143 -0.2774 -0.3822
 3244SOL    HW1 9928   1.873   2.620   4.032 -0.3598  1.0610 -0.0287
 3244SOL    HW2 9929   1.961   2.678   3.923  0.0817 -0.9270 -0.7810
 3245SOL     OW 9930   3.934   1.514   1.853  0.1003  0.1497  0.1829
 3245SOL    HW1 9931   3.840   1.529   1.842  0.1919 -0.3567 -1.5639
 3245SOL    HW2 9932   3.946   1.420   1.835  1.3085  0.7827 -3.0053
 3246SOL     OW 9933   3.964   4.482   2.413 -0.3457 -0.0111 -0.6123
 3246SOL    HW1 9934   4.018   4.424   2.466  2.2044 -0.1224 -3.0780
 3246SOL    HW2 9935   3.880   4.437   2.404  0.2634 -1.4607  0.6287
 3247SOL     OW 9936   3.699   0.906   2.924 -0.3632 -0.6368 -0.5322
 3247SOL    HW1 9937   3.750   0.826   2.939  0.4351 -0.2149 -0.8766
 3247SOL    HW2 9938   3.717   0.928   2.833  2.3568  1.8601  0.4303
 3248SOL     OW 9939   0.967   3.758   0.148  0.2936  0.1021  0.7042
 3248SOL    HW1 9940   0.913   3.766   0.070 -0.5333 -0.3543  1.2120
 3248SOL    HW2 9941   0.991   3.665   0.151  0.5264  0.1651  0.8653
 3249SOL     OW 9942   2.155   3.026   3.518 -0.6018 -0.1716  0.3253
 3249SOL    HW1 9943   2.111   2.945   3.495  0.0355  0.6236 -5.0644
 3249SOL    HW2 9944   2.248   3.004   3.515 -0.4551  0.3679  0.7577
 3250SOL     OW 9945   2.731   4.031   4.278 -0.4404 -0.1248 -0.2548
 3250SOL    HW1 9946   2.759   3.950   4.234  0.5654 -0.4620  0.9279
 3250SOL    HW2 9947   2.710   4.091   4.206  0.5598 -0.8386 -1.1876
 3251SOL     OW 9948   1.714   4.131   3.617 -0.1362  0.7035 -0.6083
 3251SOL    HW1 9949   1.747   4.075   3.546 -0.6448  0.0289 -0.3291
 3251SOL    HW2 9950   1.715   4.219   3.580 -0.6579  0.3279 -1.5625
 3252SOL     OW 9951   0.872   2.578   3.440 -0.4953  0.2018  0.1162
 3252SOL    HW1 9952   0.942   2.591   3.376 -0.9048  1.5053 -0.0942
 3252SOL    HW2 9953   0.809   2.522   3.395 -1.1783  1.7737 -0.9952
 3253SOL     OW 9954   2.083   0.549   3.728  0.0888 -0.0141 -0.0921
 3253SOL    HW1 9955   2.160   0.599   3.698  1.3925 -0.0901  2.7765
 3253SOL    HW2 9956   2.115   0.459   3.737 -0.7028 -0.3017 -0.0699
 3254SOL     OW 9957   3.390   3.405   0.591  0.6260  0.4070  0.8044
 3254SOL    HW1 9958   3.440   3.440   0.664  0.9569 -0.0149  0.7868
 3254SOL    HW2 9959   3.429   3.319   0.574 -0.2174 -0.0097  0.9054
 3255SOL     OW 9960   1.534   0.357   1.155  0.1506 -0.2008 -0.1782
 3255SOL    HW1 9961   1.454   0.373   1.205  0.3749 -2.8632  1.2165
 3255SOL    HW2 9962   1.510   0.290   1.091  0.4822  1.4682 -2.1537
 3256SOL     OW 9963   3.979   3.043   3.549  0.0341  0.2084  0.2873
 3256SOL    HW1 9964   4.073   3.027   3.544  0.2637  1.1582  1.2319
 3256SOL    HW2 9965   3.945   2.967   3.598  0.4073  0.1797  0.5048
 3257SOL     OW 9966   2.299   0.959   4.645  0.1018 -0.4992 -0.3930
 3257SOL    HW1 9967   2.331   0.870   4.628  0.5042 -0.8325  1.8144
 3257SOL    HW2 9968   2.224   0.947   4.704 -0.8874  0.5570 -1.3919
 3258SOL     OW 9969   4.087   1.924   1.412  0.5251 -0.4156 -0.2082
 3258SOL    HW1 9970   4.116   2.009   1.445  0.0224 -1.1574  2.3384
 3258SOL    HW2 9971   4.024   1.945   1.343  0.7485  1.2497  0.0607
 3259SOL     OW 9972   3.744   4.067   1.901 -0.4987 -0.3074  0.1588
 3259SOL    HW1 9973   3.749   4.154   1.942  0.2848 -0.4060  0.2797
 3259SOL    HW2 9974   3.796   4.075   1.821  0.3090 -0.9108  0.6132
 3260SOL     OW 9975   0.522   1.047   3.203 -0.7549 -0.1769  0.0154
 3260SOL    HW1 9976   0.488   1.045   3.293 -1.5451  0.0661 -0.2691
 3260SOL    HW2 9977   0.585   1.119   3.203 -1.6755  0.6435  0.0614
 3261SOL     OW 9978   3.840   1.679   3.951  0.3753  0.0515 -0.3142
 3261SOL    HW1 9979   3.873   1.637   4.030  2.0355 -1.3285 -1.6509
 3261SOL    HW2 9980   3.763   1.628   3.927 -1.3852  1.7203  1.4330
 3262SOL     OW 9981   4.498   2.513   2.340 -0.6265  0.1770  0.3214
 3262SOL    HW1 9982   4.457   2.576   2.399 -1.1384 -0.3529  0.5413
 3262SOL    HW2 9983   4.592   2.522   2.356 -0.7881 -0.7956  2.1048
 3263SOL     OW 9984   3.527   0.804   0.779  0.3334  0.2477 -0.1617
 3263SOL    HW1 9985   3.498   0.821   0.869  2.9726 -0.0689  0.8323
 3263SOL    HW2 9986   3.602   0.746   0.788  0.4600 -0.0904 -2.6224
 3264SOL     OW 9987   2.237   1.691   4.106  0.5231  0.6931 -0.0756
 3264SOL    HW1 9988   2.213   1.711   4.196 -2.9980 -0.6500 -0.5321
 3264SOL    HW2 9989   2.180   1.747   4.053  0.5597 -0.4673 -1.4011
 3265SOL     OW 9990   1.242   2.624   2.591  0.0936  0.1389  0.1946
 3265SOL    HW1 9991   1.317   2.664   2.546  1.2433 -2.5274 -0.4627
 3265SOL    HW2 9992   1.168   2.639   2.532  0.9656 -0.6256 -1.1408
 3266SOL     OW 9993   0.085   3.623   3.903  0.5721  0.4358  1.0008
 3266SOL    HW1 9994   0.111   3.714   3.885 -1.4808  1.0601  0.8394
 3266SOL    HW2 9995   0.039   3.628   3.987 -0.6055 -0.2047  0.4287
 3267SOL     OW 9996   2.845   0.979   4.418 -0.9143  0.1472  0.4312
 3267SOL    HW1 9997   2.750   0.978   4.411 -1.0203 -0.2347  1.6678
 3267SOL    HW2 9998   2.863   1.023   4.501 -0.0060  0.3092  0.1634
 3268SOL     OW 9999   2.335   2.353   2.634 -0.4828 -0.7220  0.1008
 3268SOL    HW110000   2.286   2.337   2.715  1.1286 -1.4976  0.9738
 3268SOL    HW210001   2.304   2.285   2.574 -0.1285 -1.5464  0.8205
 3269SOL     OW10002   0.640   0.569   2.479 -0.1463  0.5923 -0.0816
 3269SOL    HW110003   0.670   0.608   2.561  1.1020 -0.1871 -0.1388
 3269SOL    HW210004   0.557   0.527   2.502  0.1971  0.3680  0.7938
 3270SOL     OW10005   2.891   1.066   0.711 -0.2637  0.0779 -0.5930
 3270SOL    HW110006   2.936   1.043   0.630 -2.3640 -2.4928 -1.1577
 3270SOL    HW210007   2.870   1.159   0.702  0.6987  0.1587 -2.3792
 3271SOL     OW10008   2.890   0.209   0.428 -0.3573  0.1438  0.4660
 3271SOL    HW110009   2.941   0.134   0.459 -0.4148  0.5114  1.5166
 3271SOL    HW210010   2.937   0.285   0.462 -0.7111  0.5554  0.0484
 3272SOL     OW10011   2.122   3.854   1.483 -0.1235  0.2301  0.4935
 3272SOL    HW110012   2.215   3.870   1.470 -0.0470  0.5482  1.3357
 3272SOL    HW210013   2.082   3.941   1.486 -0.2460  0.1611  1.4058
 3273SOL     OW10014   1.659   2.831   4.395 -0.0457  0.0186  0.1716
 3273SOL    HW110015   1.692   2.857   4.481  1.0913  0.8633 -0.4828
 3273SOL    HW210016   1.568   2.806   4.410 -0.5934  2.3665  1.2603
 3274SOL     OW10017   1.362   2.626   0.775 -0.4421  0.1970  0.5172
 3274SOL    HW110018   1.388   2.669   0.693  1.2625 -1.4086  0.1239
 3274SOL    HW210019   1.348   2.697   0.837 -0.1631  1.3881 -0.7487
 3275SOL     OW10020   4.883   0.431   1.276  0.2071 -0.3005 -0.2446
 3275SOL    HW110021   4.860   0.387   1.194 -0.0495 -0.0432 -0.3122
 3275SOL    HW210022   4.917   0.361   1.332  0.0987 -0.5291 -0.4630
 3276SOL     OW10023   0.005   3.008   4.427 -0.1654  0.1894  0.1038
 3276SOL    HW110024   0.010   3.020   4.332  0.7981 -0.3272  0.0810
 3276SOL    HW210025   0.088   2.966   4.450 -1.4684 -2.1339  0.8176
 3277SOL     OW10026   1.802   1.478   1.640  0.1115  0.4409 -0.3035
 3277SOL    HW110027   1.808   1.398   1.587 -3.3275 -0.2877  0.1539
 3277SOL    HW210028   1.793   1.446   1.730  2.0645  1.5399  0.3388
 3278SOL     OW10029   4.835   2.131   1.030  0.6778  0.0469  0.4377
 3278SOL    HW110030   4.843   2.146   0.936  1.3585  0.6390  0.5829
 3278SOL    HW210031   4.832   2.035   1.038 -0.4212  0.0006 -0.2480
 3279SOL     OW10032   2.890   3.714   3.017  0.3419  0.0662  0.5386
 3279SOL    HW110033   2.839   3.786   3.053 -0.3106 -0.5279  0.7962
 3279SOL    HW210034   2.962   3.758   2.970 -1.0382  0.9680 -0.8560
 3280SOL     OW10035   0.207   4.525   0.265  0.0231  0.0202  0.3294
 3280SOL    HW110036   0.288   4.539   0.216 -0.5124  0.7636 -0.3548
 3280SOL    HW210037   0.168   4.612   0.273 -0.7178 -0.3327  0.6461
 3281SOL     OW10038   3.220   3.376   3.272  0.0172  0.2548 -0.3884
 3281SOL    HW110039   3.209   3.471   3.279 -1.8176  0.0023  0.7484
 3281SOL    HW210040   3.164   3.340   3.341 -0.3159 -1.7183 -1.6138
 3282SOL     OW10041   3.812   3.198   1.436  0.0210 -0.0244  0.1007
 3282SOL    HW110042   3.894   3.189   1.388  0.0455 -2.3254  0.4797
 3282SOL    HW210043   3.828   3.155   1.520 -1.3371  0.1719  0.4871
 3283SOL     OW10044   4.049   0.511   2.199 -0.6959  0.1022 -0.5765
 3283SOL    HW110045   4.086   0.539   2.115  0.4820  0.1840 -0.0453
 3283SOL    HW210046   4.086   0.424   2.215  1.1485  1.0992  1.0362
 3284SOL     OW10047   1.703   1.213   0.620 -0.1403  0.0015 -0.3206
 3284SOL    HW110048   1.660   1.213   0.535  0.8896  0.4702 -0.8644
 3284SOL    HW210049   1.790   1.175   0.602 -0.2035 -0.6547  0.6790
 3285SOL     OW10050   4.851   2.074   4.273 -0.1611  0.0177 -0.4607
 3285SOL    HW110051   4.775   2.131   4.266  1.1549  2.2023  1.7193
 3285SOL    HW210052   4.910   2.103   4.202  0.2915  1.0931  0.3317
 3286SOL     OW10053   1.863   2.836   1.756  0.8123  0.3261  0.4029
 3286SOL    HW110054   1.921   2.768   1.722 -3.3999 -2.6631 -1.6926
 3286SOL    HW210055   1.832   2.801   1.840 -1.9552 -0.9648 -1.0293
 3287SOL     OW10056   3.644   2.428   3.204 -0.4603 -0.6287  0.3936
 3287SOL    HW110057   3.714   2.388   3.255 -1.7235 -0.6065  2.2139
 3287SOL    HW210058   3.666   2.407   3.113  2.1785 -0.1429  0.8482
 3288SOL     OW10059   0.389   0.672   4.885  0.3943  0.1970  0.2085
 3288SOL    HW110060   0.332   0.674   4.962  0.1005  0.7376 -0.0150
 3288SOL    HW210061   0.428   0.584   4.886 -0.1505 -0.0470  0.5749
 3289SOL     OW10062   1.653   1.292   3.694  0.1992  0.1452 -0.1050
 3289SOL    HW110063   1.724   1.236   3.727 -0.8651 -1.6546 -0.6958
 3289SOL    HW210064   1.616   1.333   3.772  0.7289 -0.3338  0.4085
 3290SOL     OW10065   1.315   2.112   0.446  0.2145 -0.0703 -0.4175
 3290SOL    HW110066   1.248   2.044   0.453  1.2978 -1.1379 -0.0768
 3290SOL    HW210067   1.280   2.174   0.382 -0.4031 -1.4344 -1.4593
 3291SOL     OW10068   2.117   1.173   3.885  0.2854 -0.0169 -0.0384
 3291SOL    HW110069   2.131   1.205   3.975  1.2571  0.7702 -0.4524
 3291SOL    HW210070   2.141   1.247   3.829 -0.2460 -0.5233 -0.9549
 3292SOL     OW10071   0.989   3.386   2.611 -0.5342  0.0425  0.1949
 3292SOL    HW110072   0.915   3.391   2.550 -0.6178 -2.7856 -0.0513
 3292SOL    HW210073   1.065   3.409   2.559 -0.9144  0.4526 -0.1983
 3293SOL     OW10074   2.409   4.135   2.023  0.5440  0.0013 -0.6702
 3293SOL    HW110075   2.498   4.113   1.995  0.2552 -0.6392 -1.1374
 3293SOL    HW210076   2.354   4.076   1.972 -0.1376  0.2695 -0.2522
 3294SOL     OW10077   1.781   2.593   4.505 -0.2708  0.0400 -0.5302
 3294SOL    HW110078   1.772   2.501   4.478 -0.9150 -0.5792  1.6061
 3294SOL    HW210079   1.710   2.638   4.459 -1.0375 -0.8761 -0.2908
 3295SOL     OW10080   3.704   1.257   1.450 -0.2194  0.3865  0.0928
 3295SOL    HW110081   3.675   1.264   1.359 -0.3960 -1.5449 -0.0330
 3295SOL    HW210082   3.799   1.271   1.447 -0.1947  0.1066 -0.4210
 3296SOL     OW10083   1.582   1.041   4.207 -0.1229  0.3827  0.2716
 3296SOL    HW110084   1.667   1.035   4.249  0.6237 -0.8898 -1.3295
 3296SOL    HW210085   1.522   1.068   4.277  1.2074 -0.7611  1.9178
 3297SOL     OW10086   0.070   4.752   0.305 -0.1518 -0.1701  0.0473
 3297SOL    HW110087   0.123   4.829   0.285 -2.4012  1.1588 -1.4320
 3297SOL    HW210088   0.042   4.764   0.395  0.2942  0.2632  0.1290
 3298SOL     OW10089   4.682   3.044   0.606  0.2385 -0.2062 -0.7957
 3298SOL    HW110090   4.597   3.081   0.582  0.2846  0.8554  0.5823
 3298SOL    HW210091   4.734   3.050   0.526 -0.0803  1.8181 -0.8917
 3299SOL     OW10092   0.530   3.029   3.242 -0.0829  1.0608  0.4640
 3299SOL    HW110093   0.462   3.069   3.295  1.5478  2.8333  1.3796
 3299SOL    HW210094   0.539   3.088   3.167 -0.7076 -0.0968 -0.5411
 3300SOL     OW10095   4.463   0.888   4.289  0.1510  0.1462 -0.6612
 3300SOL    HW110096   4.476   0.826   4.216  1.2807 -0.6499  0.1797
 3300SOL    HW210097   4.397   0.845   4.344  1.2607 -0.5702  0.1554
 3301SOL     OW10098   0.363   3.280   4.443 -0.5899 -0.0732 -0.4197
 3301SOL    HW110099   0.416   3.333   4.502 -2.6500 -1.1491  2.6093
 3301SOL    HW210100   0.387   3.190   4.461 -1.1061 -0.4401 -1.4355
 3302SOL     OW10101   3.741   4.097   4.858 -0.6086 -0.0642 -0.2018
 3302SOL    HW110102   3.798   4.165   4.822  0.1098 -0.5406 -0.0078
 3302SOL    HW210103   3.653   4.131   4.849 -0.1693  1.7104  1.6286
 3303SOL     OW10104   1.507   3.804   0.368 -0.1217 -0.0235 -0.3115
 3303SOL    HW110105   1.597   3.812   0.335  1.0794  0.6751  2.7968
 3303SOL    HW210106   1.481   3.715   0.343  1.4514 -0.2849 -1.1978
 3304SOL     OW10107   2.167   0.217   1.124  0.4154  0.6314 -0.4536
 3304SOL    HW110108   2.162   0.186   1.214  0.4642 -1.1428 -1.0244
 3304SOL    HW210109   2.181   0.138   1.072  0.8173  1.6643 -1.9847
 3305SOL     OW10110   3.879   0.737   2.260 -0.2292 -0.3230  0.1757
 3305SOL    HW110111   3.941   0.667   2.242  3.4228  2.6050  0.1421
 3305SOL    HW210112   3.885   0.795   2.184 -1.9759  0.8329  0.8429
 3306SOL     OW10113   0.296   1.923   1.543 -0.1216 -0.3810 -0.2977
 3306SOL    HW110114   0.239   1.940   1.468 -1.1514 -1.2892  0.2691
 3306SOL    HW210115   0.242   1.941   1.619  0.6432 -0.3346  0.2409
 3307SOL     OW10116   3.624   3.712   0.922 -1.1848  0.0274  0.5446
 3307SOL    HW110117   3.704   3.693   0.873 -1.4048  0.2261  0.1055
 3307SOL    HW210118   3.553   3.695   0.861 -1.4868 -0.2490  0.9673
 3308SOL     OW10119   0.850   2.982   4.787 -0.2453 -0.1445 -0.7392
 3308SOL    HW110120   0.819   3.048   4.725 -0.0926  0.8195  0.1851
 3308SOL    HW210121   0.905   2.924   4.734  0.1015  0.8125 -1.4611
 3309SOL     OW10122   1.300   0.930   3.629 -0.1387 -0.4203  0.3922
 3309SOL    HW110123   1.286   0.922   3.535 -0.8834  2.3679  0.1627
 3309SOL    HW210124   1.374   0.989   3.637 -0.9323  0.4645  1.5128
 3310SOL     OW10125   0.202   3.718   4.154 -0.0918 -0.1109  0.1783
 3310SOL    HW110126   0.259   3.758   4.088  0.8578 -0.6419  0.6584
 3310SOL    HW210127   0.261   3.666   4.208 -0.5952  1.4600  2.3616
 3311SOL     OW10128   1.604   3.487   0.893 -0.4552 -0.2647  0.0287
 3311SOL    HW110129   1.527   3.503   0.948 -0.4886  0.7756 -0.2958
 3311SOL    HW210130   1.678   3.505   0.950 -0.4806  2.5123 -0.6408
 3312SOL     OW10131   4.550   3.002   2.733 -0.1202 -0.1629 -0.0021
 3312SOL    HW110132   4.614   3.070   2.753 -1.5170  1.1243  0.2909
 3312SOL    HW210133   4.511   2.979   2.817 -2.7726  1.9563 -0.4869
 3313SOL     OW10134   4.860   2.948   0.057 -0.5589  0.3898 -0.0286
 3313SOL    HW110135   4.808   2.868   0.047  0.1765  0.0198 -1.0766
 3313SOL    HW210136   4.817   3.012   0.000 -1.2313  0.8000  0.9189
 3314SOL     OW10137   3.487   1.122   4.437 -0.0917  0.2487  1.1115
 3314SOL    HW110138   3.508   1.180   4.364  0.9622 -2.3529 -0.8400
 3314SOL    HW210139   3.567   1.118   4.489  0.3889 -0.5890  0.3469
 3315SOL     OW10140   1.817   3.608   1.777  0.3107  0.6173  0.2835
 3315SOL    HW110141   1.860   3.522   1.778  0.7046  0.7775 -0.8118
 3315SOL    HW210142   1.847   3.648   1.695 -2.5053  0.4541 -0.9439
 3316SOL     OW10143   0.514   1.986   0.660 -0.3087  0.3778  0.0660
 3316SOL    HW110144   0.592   2.021   0.615 -0.2633  0.2535  0.0488
 3316SOL    HW210145   0.453   2.060   0.662  0.2930  0.8801  1.2271
 3317SOL     OW10146   3.935   0.912   4.273 -0.2455  0.0834  0.2677
 3317SOL    HW110147   3.905   0.897   4.183 -2.1652  0.4673  0.8063
 3317SOL    HW210148   3.978   0.830   4.298 -0.5500 -0.3782 -0.6715
 3318SOL     OW10149   0.294   2.555   2.203 -0.3573  0.3512 -0.6673
 3318SOL    HW110150   0.348   2.628   2.173 -1.1985  0.9616 -0.7432
 3318SOL    HW210151   0.343   2.477   2.179  1.2700  0.8836  0.7633
 3319SOL     OW10152   1.085   2.415   4.010  0.0305  0.4060  0.4989
 3319SOL    HW110153   1.035   2.436   3.931  1.3980  2.4335  0.0720
 3319SOL    HW210154   1.029   2.442   4.082 -0.5414  0.1734  0.1468
 3320SOL     OW10155   0.665   2.967   4.014  0.1536 -0.0068  0.0648
 3320SOL    HW110156   0.677   2.956   4.108  2.8094  2.2734  0.1265
 3320SOL    HW210157   0.577   3.001   4.005  0.5884  1.8229  2.0175
 3321SOL     OW10158   1.871   3.990   4.298 -0.1005 -0.3175 -0.4021
 3321SOL    HW110159   1.791   3.999   4.245  0.6387  0.6837 -1.3865
 3321SOL    HW210160   1.941   4.023   4.241  0.7239  0.8639  1.2309
 3322SOL     OW10161   2.483   2.924   3.888 -0.5374 -0.3819 -0.0623
 3322SOL    HW110162   2.435   2.889   3.813  0.8533 -0.0076 -1.1875
 3322SOL    HW210163   2.432   2.897   3.964 -1.9435 -0.8764 -1.1286
 3323SOL     OW10164   3.700   0.888   1.708 -0.0787 -0.1039  0.6785
 3323SOL    HW110165   3.788   0.894   1.671 -0.1943  0.0656  0.4181
 3323SOL    HW210166   3.649   0.949   1.655 -0.1760  0.4097  1.3534
 3324SOL     OW10167   4.599   4.354   3.424 -0.1424  0.2774 -0.4537
 3324SOL    HW110168   4.552   4.404   3.358  0.0777  0.4901 -0.4503
 3324SOL    HW210169   4.662   4.416   3.462  1.1513 -0.3636 -1.4629
 3325SOL     OW10170   2.378   2.240   1.039 -0.2644 -0.5619 -0.2402
 3325SOL    HW110171   2.381   2.335   1.038  0.6328 -0.5753 -1.0379
 3325SOL    HW210172   2.360   2.216   1.130 -0.6206  0.3618 -0.0636
 3326SOL     OW10173   3.055   4.049   2.311 -0.1763 -0.1214 -0.6728
 3326SOL    HW110174   2.984   3.985   2.301  0.8481 -1.1918 -1.3002
 3326SOL    HW210175   3.130   4.009   2.267  1.7271 -0.3974  2.5499
 3327SOL     OW10176   0.361   3.010   1.384  0.2899  0.6196  0.1090
 3327SOL    HW110177   0.335   2.928   1.425  1.7108  0.0152 -0.1370
 3327SOL    HW210178   0.280   3.046   1.348 -0.6653  0.2498  1.7969
 3328SOL     OW10179   0.318   1.426   2.341 -0.2852 -0.3323  0.2054
 3328SOL    HW110180   0.319   1.514   2.304 -1.9925 -0.5008 -0.3181
 3328SOL    HW210181   0.410   1.399   2.341  0.4599  1.9701  1.7643
 3329SOL     OW10182   0.079   2.044   4.031  0.2621 -0.0219 -0.6488
 3329SOL    HW110183   0.135   1.970   4.053 -0.4536  0.5329  4.3203
 3329SOL    HW210184  -0.003   2.005   4.001  0.6319 -1.2052 -0.1821
 3330SOL     OW10185   3.154   4.272   2.760 -0.0474  0.1388 -0.3838
 3330SOL    HW110186   3.161   4.363   2.791 -1.4323 -0.3749  1.6627
 3330SOL    HW210187   3.092   4.276   2.688 -0.8881  0.7359  0.3407
 3331SOL     OW10188   0.885   3.729   1.797  0.0457 -0.6536 -0.0830
 3331SOL    HW110189   0.928   3.678   1.729 -0.9449  0.4606 -1.6231
 3331SOL    HW210190   0.930   3.814   1.795 -0.4301 -0.3908  0.1609
 3332SOL     OW10191   1.819   3.744   0.898  0.2623 -0.0790 -0.2028
 3332SOL    HW110192   1.805   3.681   0.827  0.1334 -0.9008  0.5283
 3332SOL    HW210193   1.808   3.692   0.978 -1.3450  1.1696  0.4484
 3333SOL     OW10194   4.121   1.658   1.458 -0.0743 -0.0462 -0.4733
 3333SOL    HW110195   4.213   1.635   1.453 -0.4469 -1.4792 -1.0886
 3333SOL    HW210196   4.116   1.745   1.418  1.2163  0.7785  1.0197
 3334SOL     OW10197   0.132   2.134   1.706 -0.2054  0.2167 -0.0405
 3334SOL    HW110198   0.178   2.185   1.772 -0.6043 -0.3853  0.7126
 3334SOL    HW210199   0.068   2.195   1.669  0.2980  0.6732 -0.1769
 3335SOL     OW10200   4.421   1.025   0.093 -0.0936  0.7671 -0.0090
 3335SOL    HW110201   4.493   1.085   0.074 -0.0413  0.9596  0.7374
 3335SOL    HW210202   4.415   0.969   0.016  0.0158  1.5715 -0.6111
 3336SOL     OW10203   4.429   3.030   1.538 -0.7537 -0.3178 -0.2585
 3336SOL    HW110204   4.346   3.026   1.491 -0.5663 -1.7980 -0.5124
 3336SOL    HW210205   4.406   3.009   1.629 -0.5397 -2.0231 -0.5500
 3337SOL     OW10206   1.527   2.050   1.470 -0.2261  0.5595 -0.6909
 3337SOL    HW110207   1.440   2.013   1.482 -0.0969  0.4989  0.1853
 3337SOL    HW210208   1.569   2.039   1.556  1.3910 -1.3267 -1.6631
 3338SOL     OW10209   2.729   4.535   0.794 -0.1800 -0.2755  0.0608
 3338SOL    HW110210   2.639   4.542   0.824 -0.2246  0.7286 -0.2590
 3338SOL    HW210211   2.733   4.452   0.746 -1.0621 -0.0882 -0.3502
 3339SOL     OW10212   3.624   3.098   2.639  0.3123  0.6177  0.4162
 3339SOL    HW110213   3.546   3.056   2.675 -0.1457  2.3981  1.6438
 3339SOL    HW210214   3.596   3.135   2.555  0.3169 -0.1700  0.0580
 3340SOL     OW10215   4.744   4.070   3.182 -0.1781  0.2363 -0.1688
 3340SOL    HW110216   4.654   4.102   3.188 -0.5494 -0.3424 -1.8762
 3340SOL    HW210217   4.741   4.004   3.112  1.8727  1.3561 -1.4015
 3341SOL     OW10218   4.861   3.226   0.720  0.2018 -0.2214 -0.4010
 3341SOL    HW110219   4.797   3.159   0.698  0.2260  0.1877 -1.7743
 3341SOL    HW210220   4.934   3.178   0.760  0.4307 -1.0890 -1.8045
 3342SOL     OW10221   3.631   1.501   4.271 -0.0071 -0.1693  0.4971
 3342SOL    HW110222   3.592   1.462   4.349 -0.5860 -0.6501 -0.0235
 3342SOL    HW210223   3.630   1.431   4.206 -0.1972  0.4276 -0.1621
 3343SOL     OW10224   4.590   0.443   3.920  0.2021 -0.3355  0.1875
 3343SOL    HW110225   4.660   0.416   3.860  0.5849  0.0052  0.4787
 3343SOL    HW210226   4.635   0.478   3.996 -0.2871 -0.2153  0.4278
 3344SOL     OW10227   0.977   0.689   3.610 -0.0176 -0.3626 -0.0297
 3344SOL    HW110228   0.886   0.676   3.581 -0.8605  2.3550  1.0541
 3344SOL    HW210229   0.969   0.720   3.700  1.9080  1.0543 -0.2886
 3345SOL     OW10230   4.676   2.545   0.282  0.0554 -0.5886  0.1934
 3345SOL    HW110231   4.594   2.525   0.327 -0.0378 -1.9338 -0.4933
 3345SOL    HW210232   4.658   2.527   0.190  0.6399  0.7533 -0.2106
 3346SOL     OW10233   1.609   1.717   1.908 -0.5407  0.3209  0.4545
 3346SOL    HW110234   1.573   1.642   1.860 -1.0645  0.3659  0.7694
 3346SOL    HW210235   1.697   1.727   1.873  0.6265 -2.1866  2.2826
 3347SOL     OW10236   0.237   0.143   1.583  0.6624  0.0760  0.1414
 3347SOL    HW110237   0.190   0.215   1.625 -1.1655 -1.2150  0.4311
 3347SOL    HW210238   0.242   0.075   1.651 -0.8945 -1.4238 -1.1607
 3348SOL     OW10239   1.814   2.355   1.819 -0.0344  0.3046 -0.3653
 3348SOL    HW110240   1.847   2.443   1.837  0.1356  0.0317  0.7396
 3348SOL    HW210241   1.801   2.316   1.906  0.5643 -1.0053 -0.8335
 3349SOL     OW10242   1.890   2.979   1.475 -0.3137  0.3633 -0.1454
 3349SOL    HW110243   1.817   2.987   1.414 -0.8292  1.6811  0.6293
 3349SOL    HW210244   1.860   2.916   1.540 -1.0506  1.3884  0.5399
 3350SOL     OW10245   3.665   2.397   1.576 -0.2182  0.2269 -0.3678
 3350SOL    HW110246   3.737   2.352   1.619 -0.3393 -2.3992 -2.6383
 3350SOL    HW210247   3.706   2.469   1.529  0.5272  0.3443  0.4466
 3351SOL     OW10248   1.484   0.618   2.847 -0.5009 -0.7044  0.0789
 3351SOL    HW110249   1.513   0.557   2.779  0.5035 -1.4413  1.1333
 3351SOL    HW210250   1.559   0.626   2.906 -0.2556  2.2688 -0.4841
 3352SOL     OW10251   1.736   0.123   0.744  0.2211  0.0612 -0.8675
 3352SOL    HW110252   1.773   0.211   0.742 -1.8483  0.9977 -0.1881
 3352SOL    HW210253   1.711   0.105   0.653 -0.0449  0.5019 -0.8851
 3353SOL     OW10254   3.725   2.360   3.583 -0.2500  0.0708 -0.2181
 3353SOL    HW110255   3.772   2.421   3.640 -0.8664 -0.6729  1.1546
 3353SOL    HW210256   3.633   2.374   3.604 -0.4848 -0.3357 -0.9427
 3354SOL     OW10257   2.470   1.550   0.450  0.3500 -0.0532  0.1791
 3354SOL    HW110258   2.390   1.594   0.479  1.5675  1.5581  1.2461
 3354SOL    HW210259   2.533   1.621   0.436  1.0418 -1.0883 -2.6386
 3355SOL     OW10260   4.402   0.542   0.868  0.1613  0.0967 -0.4458
 3355SOL    HW110261   4.416   0.523   0.961 -2.0538  0.0310 -0.0853
 3355SOL    HW210262   4.315   0.581   0.863  0.5771  0.9315 -2.4099
 3356SOL     OW10263   0.919   0.091   1.579  0.1028 -0.2097  0.1066
 3356SOL    HW110264   0.898   0.069   1.488 -0.5182 -1.2588  0.4887
 3356SOL    HW210265   0.965   0.175   1.573  3.4340 -1.9798 -1.4904
 3357SOL     OW10266   1.522   4.941   1.316 -0.4550 -0.2261  0.1431
 3357SOL    HW110267   1.440   4.979   1.347  0.1998  1.7782 -0.4461
 3357SOL    HW210268   1.589   5.006   1.337  1.0660 -1.9322  0.8699
 3358SOL     OW10269   0.863   1.740   3.255  0.4270  0.6794 -0.2974
 3358SOL    HW110270   0.914   1.715   3.332 -1.5799  1.2647  1.3141
 3358SOL    HW210271   0.774   1.753   3.288 -0.9264 -0.6802 -3.0037
 3359SOL     OW10272   4.092   3.407   0.673 -0.7885 -0.9158 -0.2301
 3359SOL    HW110273   4.168   3.350   0.660  1.0115  1.1341  0.5333
 3359SOL    HW210274   4.065   3.432   0.585  1.7411  1.0537 -0.5904
 3360SOL     OW10275   1.906   0.803   1.220 -0.0306 -0.1295 -0.1273
 3360SOL    HW110276   1.843   0.811   1.149  1.0548  4.9335 -0.8786
 3360SOL    HW210277   1.962   0.730   1.195 -1.4971 -0.4085 -2.9124
 3361SOL     OW10278   1.047   3.334   3.189  0.3737  0.1387  0.0169
 3361SOL    HW110279   1.033   3.271   3.119 -0.1080  1.6872 -1.3327
 3361SOL    HW210280   0.959   3.352   3.223  0.1585  1.9789 -1.3693
 3362SOL     OW10281   2.890   0.445   4.379  0.5963 -0.4877  0.2646
 3362SOL    HW110282   2.956   0.408   4.320 -0.0893 -0.7004 -0.3879
 3362SOL    HW210283   2.837   0.502   4.323  1.3633  1.2005  1.1555
 3363SOL     OW10284   3.513   3.385   1.112  1.1043  0.0086  0.4566
 3363SOL    HW110285   3.591   3.336   1.087  1.2993 -0.2853  1.6176
 3363SOL    HW210286   3.547   3.469   1.143  0.7812  0.8987 -1.4346
 3364SOL     OW10287   2.601   2.655   3.525 -0.0161  0.2905  0.1246
 3364SOL    HW110288   2.532   2.615   3.579 -1.5841  3.2872  0.5398
 3364SOL    HW210289   2.683   2.629   3.567 -0.9470 -1.6360  0.8727
 3365SOL     OW10290   1.956   1.061   2.104  0.1314  0.4080  0.8040
 3365SOL    HW110291   1.931   1.054   2.011  1.3257 -0.4912  0.5207
 3365SOL    HW210292   1.892   1.122   2.141 -1.0702 -0.0772 -0.3506
 3366SOL     OW10293   0.357   4.469   2.901  0.0613 -0.6244 -0.1612
 3366SOL    HW110294   0.317   4.390   2.938 -1.3260  0.0366 -0.1890
 3366SOL    HW210295   0.349   4.458   2.806 -0.2775 -0.3979 -0.1630
 3367SOL     OW10296   3.828   4.590   4.378  0.9173  0.1814 -0.9089
 3367SOL    HW110297   3.838   4.548   4.293 -0.2529  0.5618 -1.2420
 3367SOL    HW210298   3.756   4.543   4.420 -0.6174  1.9803 -1.4017
 3368SOL     OW10299   1.722   2.740   2.206  0.2972  0.1825 -0.0673
 3368SOL    HW110300   1.776   2.817   2.222  0.6639 -0.1377  0.2621
 3368SOL    HW210301   1.672   2.729   2.287 -0.2210  0.4424 -0.3483
 3369SOL     OW10302   4.266   4.483   1.820 -0.3065 -0.2337 -0.0465
 3369SOL    HW110303   4.358   4.464   1.801 -0.5594 -1.8957  0.2322
 3369SOL    HW210304   4.262   4.494   1.915 -0.1200  1.6669 -0.2221
 3370SOL     OW10305   0.548   3.976   0.024 -0.3264 -0.4107  0.0020
 3370SOL    HW110306   0.480   3.910   0.027  0.4735 -1.3194 -1.0639
 3370SOL    HW210307   0.618   3.942   0.079 -0.4994  0.2610  0.6547
 3371SOL     OW10308   0.383   0.127   0.606  0.4066  0.6018 -0.1774
 3371SOL    HW110309   0.467   0.133   0.652 -0.7459  0.7753  2.0975
 3371SOL    HW210310   0.389   0.193   0.537  2.6471 -0.3928 -1.0253
 3372SOL     OW10311   3.541   0.012   0.320  0.0043 -0.1810  0.4695
 3372SOL    HW110312   3.620   0.001   0.373  0.1721  1.2864  0.5802
 3372SOL    HW210313   3.573   0.017   0.230  0.2442  1.7472  0.6062
 3373SOL     OW10314   0.469   2.712   2.028 -0.7943  0.4192 -0.3101
 3373SOL    HW110315   0.449   2.642   1.965  1.0560 -1.5401  1.1427
 3373SOL    HW210316   0.505   2.783   1.975 -1.2522 -0.3324 -1.6651
 3374SOL     OW10317   2.288   1.968   2.047 -0.1627 -0.7866 -0.1124
 3374SOL    HW110318   2.337   2.050   2.041 -0.6483 -0.5202 -0.4868
 3374SOL    HW210319   2.299   1.927   1.961  0.8453 -1.5645  0.3680
 3375SOL     OW10320   2.886   1.363   0.514 -0.0132 -0.3737 -0.6060
 3375SOL    HW110321   2.954   1.302   0.486  0.1221 -1.1568  1.2835
 3375SOL    HW210322   2.928   1.449   0.510  0.8832 -0.7744 -0.1065
 3376SOL     OW10323   3.279   1.486   4.023  0.6426  0.3254  0.4505
 3376SOL    HW110324   3.315   1.556   3.968 -0.3314  1.1790  0.8683
 3376SOL    HW210325   3.273   1.525   4.111  0.1345 -0.2884  0.6969
 3377SOL     OW10326   3.733   0.549   3.004  0.1222 -0.3181  0.0991
 3377SOL    HW110327   3.676   0.594   2.942 -0.6071 -0.2863  0.7706
 3377SOL    HW210328   3.702   0.458   3.003 -0.7323 -0.0552  1.3361
 3378SOL     OW10329   3.760   1.929   4.904  0.3310  0.0850  0.0562
 3378SOL    HW110330   3.773   1.856   4.964  0.5261  0.2949  0.2684
 3378SOL    HW210331   3.741   1.887   4.820 -3.5387 -0.3002  0.9325
 3379SOL     OW10332   4.767   1.496   2.414 -0.2873 -0.0608 -0.7090
 3379SOL    HW110333   4.679   1.492   2.376  0.2563 -0.5770 -1.9711
 3379SOL    HW210334   4.803   1.408   2.398  0.7912  0.4292 -1.0587
 3380SOL     OW10335   0.111   1.049   1.328  0.4053 -0.3245  0.3279
 3380SOL    HW110336   0.057   1.076   1.403 -0.3752 -0.0135 -0.3357
 3380SOL    HW210337   0.198   1.083   1.348  0.2600 -0.4287  1.1952
 3381SOL     OW10338   1.768   0.101   1.138  0.2791 -0.1944 -0.9981
 3381SOL    HW110339   1.678   0.108   1.106  0.2536 -1.3119 -1.1914
 3381SOL    HW210340   1.809   0.036   1.082  1.1171  0.0480 -0.6852
 3382SOL     OW10341   2.962   3.722   3.632  0.4881  0.2101 -0.3906
 3382SOL    HW110342   2.963   3.759   3.544 -0.7117  0.9753 -0.0975
 3382SOL    HW210343   2.883   3.668   3.635  0.3318  0.4699  0.3271
 3383SOL     OW10344   3.117   2.712   3.099 -0.3587 -0.1158  0.1669
 3383SOL    HW110345   3.174   2.787   3.083  0.0388 -0.4900 -0.1965
 3383SOL    HW210346   3.105   2.711   3.194 -1.5284  1.2477  0.0753
 3384SOL     OW10347   1.908   0.477   0.609  0.4454  0.2328  0.5175
 3384SOL    HW110348   1.961   0.430   0.673  1.2831 -0.6338 -0.7719
 3384SOL    HW210349   1.966   0.546   0.577  0.4929 -0.1439 -0.2271
 3385SOL     OW10350   2.331   4.013   4.393  0.0058 -0.2679  0.2207
 3385SOL    HW110351   2.387   3.974   4.325 -0.3990 -0.6390  0.0960
 3385SOL    HW210352   2.361   4.103   4.400  0.8663 -0.5529  0.4049
 3386SOL     OW10353   1.173   3.164   4.648  0.1244  0.4320 -0.0461
 3386SOL    HW110354   1.225   3.151   4.568 -1.1613  1.5283 -1.1192
 3386SOL    HW210355   1.201   3.094   4.707 -0.3517 -1.7343 -2.2321
 3387SOL     OW10356   3.846   1.759   2.894 -0.2985 -0.8137  0.1586
 3387SOL    HW110357   3.780   1.828   2.904 -0.5565 -1.0259 -0.0616
 3387SOL    HW210358   3.812   1.687   2.948  0.5307 -0.3730  1.3055
 3388SOL     OW10359   4.779   2.293   2.599 -0.3376  0.2562 -0.0335
 3388SOL    HW110360   4.799   2.296   2.693 -1.1226  0.6095  0.1367
 3388SOL    HW210361   4.863   2.280   2.556  0.0951  0.5864  0.7004
 3389SOL     OW10362   4.280   1.594   3.035 -0.1687  0.5068 -0.0131
 3389SOL    HW110363   4.209   1.625   3.091 -0.3808  1.4903 -0.8074
 3389SOL    HW210364   4.241   1.586   2.948  0.4964  0.2801 -0.3004
 3390SOL     OW10365   3.139   4.083   3.606  0.0840  0.8241 -0.4310
 3390SOL    HW110366   3.072   4.139   3.644  1.2201  1.6068  0.4759
 3390SOL    HW210367   3.209   4.143   3.581  0.3015  0.0693 -1.7456
 3391SOL     OW10368   1.247   2.071   4.688 -0.4882 -0.0628  0.0279
 3391SOL    HW110369   1.260   2.160   4.722 -1.6887  0.5064 -0.9596
 3391SOL    HW210370   1.227   2.082   4.596 -2.3395 -1.2269  0.2357
 3392SOL     OW10371   0.001   0.156   2.875 -0.1998  0.0820 -0.4672
 3392SOL    HW110372  -0.072   0.180   2.932 -0.7092 -1.0980 -0.5837
 3392SOL    HW210373   0.059   0.105   2.932 -1.0198 -1.6466 -1.1061
 3393SOL     OW10374   0.261   4.859   1.751 -0.1106  0.5893  0.0469
 3393SOL    HW110375   0.253   4.830   1.842 -1.1289  1.3312  0.2140
 3393SOL    HW210376   0.196   4.807   1.703 -0.6823  1.2954  0.0361
 3394SOL     OW10377   0.418   4.055   0.367 -0.1514 -0.0151  0.5859
 3394SOL    HW110378   0.487   4.019   0.312 -0.1873  0.9844 -0.1415
 3394SOL    HW210379   0.341   4.003   0.346 -0.0727  0.1158 -0.0386
 3395SOL     OW10380   4.915   4.488   3.782 -0.0604 -0.2048 -0.8999
 3395SOL    HW110381   4.876   4.431   3.848  1.2284 -3.3314 -2.6547
 3395SOL    HW210382   5.009   4.477   3.793  0.2181  1.0210 -1.8346
 3396SOL     OW10383   1.538   2.096   0.643  0.0468  0.1816  0.3994
 3396SOL    HW110384   1.486   2.079   0.565  1.4779 -0.3136 -0.4881
 3396SOL    HW210385   1.488   2.162   0.691 -0.2799  1.4333 -1.5469
 3397SOL     OW10386   2.842   4.750   2.134 -0.2624  0.3504  0.0652
 3397SOL    HW110387   2.859   4.657   2.125 -0.6310  0.3138 -0.2761
 3397SOL    HW210388   2.782   4.756   2.208 -0.1718  0.3249  0.1409
 3398SOL     OW10389   3.094   4.344   1.154 -0.0152  0.3126 -0.2935
 3398SOL    HW110390   3.029   4.298   1.208 -1.2525  0.7856 -1.3337
 3398SOL    HW210391   3.043   4.384   1.084  1.4485  0.4702 -1.3126
 3399SOL     OW10392   1.069   1.002   3.764 -0.2579  0.0525  0.1482
 3399SOL    HW110393   1.050   0.966   3.851 -1.9404 -0.1517 -0.2807
 3399SOL    HW210394   1.145   0.951   3.734 -0.5823 -0.9016  0.8881
 3400SOL     OW10395   2.668   4.505   2.587  0.1580  0.4629 -0.0449
 3400SOL    HW110396   2.752   4.461   2.573 -0.5613 -0.7714 -0.5411
 3400SOL    HW210397   2.603   4.448   2.547 -0.9335  1.4080  0.3250
 3401SOL     OW10398   4.104   4.255   1.727  0.5712  0.0990 -0.3819
 3401SOL    HW110399   4.180   4.197   1.727 -0.2897 -1.1649 -2.5659
 3401SOL    HW210400   4.141   4.343   1.728  2.0925 -0.4812 -1.2845
 3402SOL     OW10401   4.653   2.838   4.117  0.9321 -0.1584 -0.3621
 3402SOL    HW110402   4.584   2.903   4.132 -0.2552 -1.7288  1.2374
 3402SOL    HW210403   4.733   2.891   4.106 -0.2171  1.6217 -0.5791
 3403SOL     OW10404   3.354   0.674   2.940  0.6643 -0.3616 -0.7974
 3403SOL    HW110405   3.290   0.678   2.869  0.8005  2.0070 -0.8681
 3403SOL    HW210406   3.381   0.765   2.953  1.8654 -0.9429  1.1943
 3404SOL     OW10407   0.366   3.723   4.492 -0.0318 -0.2125 -0.1203
 3404SOL    HW110408   0.377   3.633   4.525  1.3961 -0.6439 -1.6162
 3404SOL    HW210409   0.273   3.729   4.469 -0.1156 -1.3800 -0.1522
 3405SOL     OW10410   2.330   0.679   4.545 -0.3534 -0.0638  0.1754
 3405SOL    HW110411   2.268   0.675   4.472 -0.2217 -2.5933  0.1354
 3405SOL    HW210412   2.411   0.711   4.505 -0.0717 -2.1072 -1.0163
 3406SOL     OW10413   4.080   1.198   1.422 -0.0456 -0.6223 -0.2592
 3406SOL    HW110414   4.172   1.210   1.401  0.5306 -1.4877  1.5217
 3406SOL    HW210415   4.055   1.278   1.468  1.1469 -2.0006  3.1782
 3407SOL     OW10416   3.651   1.807   0.723 -0.2547 -0.7134  0.0320
 3407SOL    HW110417   3.718   1.771   0.665 -1.2711 -0.5994 -1.2502
 3407SOL    HW210418   3.590   1.735   0.738 -1.8525  0.1512 -1.8811
 3408SOL     OW10419   0.440   3.459   0.061  0.1708 -0.4676  0.3860
 3408SOL    HW110420   0.486   3.379   0.037 -0.2879 -0.4261 -0.6750
 3408SOL    HW210421   0.360   3.458   0.008  1.8143  2.4402 -2.5507
 3409SOL     OW10422   3.876   1.854   2.483 -0.1011  0.8257  0.3303
 3409SOL    HW110423   3.817   1.928   2.471 -0.7980  0.4689  1.4064
 3409SOL    HW210424   3.834   1.782   2.435 -0.8208  0.4464  1.4866
 3410SOL     OW10425   3.728   0.287   4.651  0.4816  0.5888  0.4271
 3410SOL    HW110426   3.679   0.205   4.642  0.9130  0.4292 -0.5948
 3410SOL    HW210427   3.808   0.263   4.699 -0.4449  0.8749  2.2221
 3411SOL     OW10428   3.057   3.296   3.483  0.0653 -0.2001 -0.3017
 3411SOL    HW110429   2.989   3.358   3.510 -0.5430 -0.6160 -0.8615
 3411SOL    HW210430   3.112   3.286   3.561 -0.5934  0.0383  0.2063
 3412SOL     OW10431   4.748   1.936   2.815  0.3978  0.3080  0.3138
 3412SOL    HW110432   4.674   1.916   2.759  0.7681  0.3974 -0.2150
 3412SOL    HW210433   4.709   1.967   2.897 -0.2179 -1.9332  0.9569
 3413SOL     OW10434   3.613   1.675   2.753  0.3891  0.2746 -0.1635
 3413SOL    HW110435   3.708   1.675   2.744  0.2439 -0.0261 -2.1740
 3413SOL    HW210436   3.589   1.767   2.749  0.6998  0.5279  2.4066
 3414SOL     OW10437   1.807   0.500   4.738  0.1660 -0.0877 -0.0197
 3414SOL    HW110438   1.901   0.511   4.756 -0.2914  0.9210  2.1658
 3414SOL    HW210439   1.802   0.424   4.680  2.4602  1.1946 -2.0913
 3415SOL     OW10440   3.820   2.755   0.643  0.2431 -0.0490 -0.6065
 3415SOL    HW110441   3.734   2.781   0.675  1.2259 -0.3799  2.7966
 3415SOL    HW210442   3.879   2.821   0.679  1.5814 -0.6992 -1.5245
 3416SOL     OW10443   3.007   4.660   2.443  0.3421  0.1539 -0.1350
 3416SOL    HW110444   3.006   4.752   2.418 -1.9430  0.0371 -0.6907
 3416SOL    HW210445   3.019   4.613   2.361 -0.2883 -0.0643 -0.1100
 3417SOL     OW10446   2.701   4.805   0.101  0.0068  0.1313  0.3380
 3417SOL    HW110447   2.725   4.712   0.105  2.2690  0.6689  0.8637
 3417SOL    HW210448   2.691   4.831   0.193 -2.3592  0.0566  0.1538
 3418SOL     OW10449   2.103   4.326   1.107 -0.3571  0.3277  0.7493
 3418SOL    HW110450   2.166   4.328   1.180 -1.0029 -0.4409  1.3453
 3418SOL    HW210451   2.115   4.239   1.068  0.3476  0.9237 -0.4043
 3419SOL     OW10452   0.337   0.068   4.812  0.3202  0.2270 -0.3653
 3419SOL    HW110453   0.282  -0.002   4.847 -0.0507  0.0609 -1.2599
 3419SOL    HW210454   0.396   0.023   4.752  3.0993  0.0037  2.2756
 3420SOL     OW10455   3.606   4.022   2.612 -0.4685 -0.2969 -0.1092
 3420SOL    HW110456   3.607   4.100   2.669 -1.4124 -1.4627  1.5827
 3420SOL    HW210457   3.514   4.013   2.586 -0.1682 -0.2122 -1.2779
 3421SOL     OW10458   1.364   0.100   3.783  0.1697 -0.0880  0.2617
 3421SOL    HW110459   1.459   0.090   3.776  0.0580 -1.2887  0.1954
 3421SOL    HW210460   1.331   0.010   3.791 -0.8406  0.3963  1.9247
 3422SOL     OW10461   1.735   1.987   2.315  0.3785 -0.2384 -0.0840
 3422SOL    HW110462   1.773   2.033   2.389  0.5405 -2.1792  1.1101
 3422SOL    HW210463   1.645   2.020   2.310  0.7990  0.9848  0.0086
 3423SOL     OW10464   0.661   0.173   0.511 -0.5699 -0.3989  0.1397
 3423SOL    HW110465   0.742   0.137   0.476 -0.8340 -0.7462 -0.1137
 3423SOL    HW210466   0.675   0.173   0.606 -0.2634 -0.4287  0.0966
 3424SOL     OW10467   3.495   1.183   0.983  0.0368 -0.5282  0.7061
 3424SOL    HW110468   3.460   1.272   0.992  0.6883 -0.2795  0.8234
 3424SOL    HW210469   3.495   1.148   1.072  0.3582 -0.4222  0.7485
 3425SOL     OW10470   4.289   2.608   3.549  0.5671  0.0592  0.2633
 3425SOL    HW110471   4.333   2.690   3.525 -0.2455  0.9463  1.6443
 3425SOL    HW210472   4.197   2.624   3.526  0.6985 -1.3023 -1.4226
 3426SOL     OW10473   4.033   4.441   3.392  0.3944 -0.2062  0.0533
 3426SOL    HW110474   3.958   4.424   3.448  0.4761 -2.2795 -0.3947
 3426SOL    HW210475   4.098   4.481   3.450 -1.1769  2.1514  0.3277
 3427SOL     OW10476   3.990   2.209   2.998 -0.4518  0.1354  0.0677
 3427SOL    HW110477   4.035   2.150   3.058  2.4921  1.1887 -0.9094
 3427SOL    HW210478   3.975   2.288   3.049 -1.9981 -0.4840  0.6193
 3428SOL     OW10479   2.751   1.130   2.208 -0.2898 -0.2501  0.4150
 3428SOL    HW110480   2.694   1.203   2.184 -0.3505  0.0492  1.4092
 3428SOL    HW210481   2.771   1.145   2.301  0.2221 -1.1435  0.4603
 3429SOL     OW10482   1.404   1.251   2.447 -0.4516 -0.3525  0.2138
 3429SOL    HW110483   1.368   1.210   2.368 -1.1650 -1.1430  0.9303
 3429SOL    HW210484   1.385   1.189   2.517 -1.5060  1.1600  1.3311
 3430SOL     OW10485   3.306   1.097   0.731  0.0667 -0.1688  0.0667
 3430SOL    HW110486   3.239   1.113   0.797 -0.1042 -2.0654  0.3907
 3430SOL    HW210487   3.389   1.115   0.776 -0.0682 -1.0802  0.7051
 3431SOL     OW10488   4.126   4.682   2.623  0.4576 -0.2769 -0.4694
 3431SOL    HW110489   4.035   4.660   2.606 -0.6336  3.0248  0.4078
 3431SOL    HW210490   4.165   4.695   2.537 -0.5402  0.5235 -0.8051
 3432SOL     OW10491   3.034   2.009   3.467 -0.4850 -0.6110  0.1445
 3432SOL    HW110492   2.982   2.079   3.428 -1.7933 -0.7276  1.5680
 3432SOL    HW210493   3.000   1.929   3.428  0.0514 -0.5735 -0.4292
 3433SOL     OW10494   2.711   2.094   2.617  0.1982 -1.1075  1.2979
 3433SOL    HW110495   2.768   2.068   2.690  2.5336 -0.4341 -0.1840
 3433SOL    HW210496   2.673   2.177   2.646  0.9645 -0.9253  1.8178
 3434SOL     OW10497   1.685   1.751   2.983 -0.4524  0.1826 -0.1303
 3434SOL    HW110498   1.653   1.681   2.927 -0.1775 -1.1082  1.2817
 3434SOL    HW210499   1.775   1.728   3.003  0.6291  2.4314 -1.9243
 3435SOL     OW10500   0.127   2.969   3.943 -0.2216 -0.3623  0.1909
 3435SOL    HW110501   0.155   2.906   3.876  0.0771 -0.4674  0.4126
 3435SOL    HW210502   0.195   3.036   3.942  0.9531 -1.4411  1.8706
 3436SOL     OW10503   0.033   3.822   1.283  1.0188 -0.2978 -0.0164
 3436SOL    HW110504   0.127   3.822   1.300  0.9278 -0.2517  0.4899
 3436SOL    HW210505  -0.005   3.775   1.357  0.7577 -1.5273 -0.9032
 3437SOL     OW10506   2.741   2.055   3.862 -0.2551 -0.1371 -0.2956
 3437SOL    HW110507   2.678   2.084   3.795  1.2039  1.6416 -1.0007
 3437SOL    HW210508   2.702   2.085   3.944 -1.6064 -1.4823 -0.4016
 3438SOL     OW10509   3.348   1.766   2.506 -0.0934  0.2654 -0.0371
 3438SOL    HW110510   3.308   1.830   2.448 -0.5548  0.8689  0.9241
 3438SOL    HW210511   3.281   1.746   2.571  0.1408 -0.9841 -0.1454
 3439SOL     OW10512   4.456   3.236   1.111  0.3056  0.0102  0.4001
 3439SOL    HW110513   4.371   3.277   1.103 -0.1878 -1.0195  0.1973
 3439SOL    HW210514   4.519   3.307   1.097 -0.5035  0.8598  0.9664
 3440SOL     OW10515   0.988   2.378   0.236 -0.0730  0.2000 -0.3832
 3440SOL    HW110516   0.959   2.415   0.319  0.8791 -2.6939  1.3705
 3440SOL    HW210517   1.064   2.432   0.211  0.3355  0.4053  1.2258
 3441SOL     OW10518   4.937   3.880   0.339 -0.3405 -0.3129  0.6462
 3441SOL    HW110519   5.029   3.856   0.326 -0.4091  0.6986 -2.3955
 3441SOL    HW210520   4.891   3.796   0.339  0.1640 -0.7004 -2.5680
 3442SOL     OW10521   3.776   3.000   2.246 -0.1796 -0.1839  0.1355
 3442SOL    HW110522   3.859   2.960   2.274 -0.0032 -0.6220 -0.9280
 3442SOL    HW210523   3.789   3.093   2.260 -0.4456 -0.4357  2.2884
 3443SOL     OW10524   1.966   0.138   3.555 -0.7828  0.4394  0.1464
 3443SOL    HW110525   2.000   0.218   3.515 -1.3803  0.6255  0.0026
 3443SOL    HW210526   2.040   0.077   3.553 -0.7938  0.4337 -1.2637
 3444SOL     OW10527   3.810   3.475   4.552 -0.2411 -0.0197 -0.5065
 3444SOL    HW110528   3.751   3.548   4.537 -2.4443 -1.7426 -0.6598
 3444SOL    HW210529   3.805   3.422   4.473  0.9985 -0.5763 -0.2440
 3445SOL     OW10530   4.472   3.672   1.316  0.0471  0.2316 -0.3841
 3445SOL    HW110531   4.506   3.642   1.231  2.8632 -0.4509  0.8741
 3445SOL    HW210532   4.477   3.768   1.310  0.6769  0.1797 -0.8319
 3446SOL     OW10533   1.075   3.430   4.747  0.1976 -0.3585 -0.2598
 3446SOL    HW110534   1.047   3.360   4.805 -0.5318 -0.3799 -0.6261
 3446SOL    HW210535   1.145   3.391   4.695  0.3493 -0.5609  0.0952
 3447SOL     OW10536   4.283   3.790   3.066  0.2092  0.1071  0.1694
 3447SOL    HW110537   4.361   3.735   3.063 -0.7325 -1.3582  1.4068
 3447SOL    HW210538   4.217   3.737   3.109 -0.5150  2.5099  2.2801
 3448SOL     OW10539   2.912   0.241   2.601 -0.2288  0.1101 -0.4236
 3448SOL    HW110540   2.971   0.228   2.675  1.1801 -0.1371 -1.5411
 3448SOL    HW210541   2.866   0.323   2.621 -1.4093 -0.9885  1.6627
 3449SOL     OW10542   4.561   0.458   3.000 -0.1828  0.0655 -0.2597
 3449SOL    HW110543   4.473   0.430   3.028 -0.1281  0.1608  0.0081
 3449SOL    HW210544   4.617   0.382   3.019 -0.1825  0.0533 -0.3081
 3450SOL     OW10545   4.111   4.013   0.027 -0.0072  0.1408  0.7180
 3450SOL    HW110546   4.024   3.992   0.061 -0.4606 -0.3265 -0.6780
 3450SOL    HW210547   4.158   3.930   0.028 -1.2747 -0.8246 -3.2817
 3451SOL     OW10548   4.859   3.562   3.477  0.0296 -0.3375 -0.0679
 3451SOL    HW110549   4.866   3.515   3.394 -0.3644 -0.5016 -0.0118
 3451SOL    HW210550   4.942   3.608   3.486  0.7913 -1.7069  0.2773
 3452SOL     OW10551   1.450   2.093   2.253  0.2078 -0.1293 -0.1023
 3452SOL    HW110552   1.375   2.148   2.230 -2.1303 -2.5319  1.1845
 3452SOL    HW210553   1.465   2.039   2.175  1.6168  1.3043 -0.8747
 3453SOL     OW10554   2.060   1.090   0.407 -0.0993  0.6880 -0.1961
 3453SOL    HW110555   2.041   1.047   0.491 -0.6747  0.3054 -0.5097
 3453SOL    HW210556   1.975   1.120   0.376 -0.3037 -1.2701 -1.7557
 3454SOL     OW10557   2.766   3.943   2.673  0.3919 -0.1060  0.2341
 3454SOL    HW110558   2.693   3.913   2.727 -0.0022  0.5608  0.0827
 3454SOL    HW210559   2.844   3.925   2.725  0.0752 -0.2147  0.6749
 3455SOL     OW10560   4.497   4.627   3.689  0.0413 -0.5843  0.2144
 3455SOL    HW110561   4.584   4.643   3.724 -0.0027  0.9046 -0.3196
 3455SOL    HW210562   4.470   4.710   3.650 -1.6053 -1.0111  0.3451
 3456SOL     OW10563   2.741   4.223   1.218  0.1924 -0.2774  0.0032
 3456SOL    HW110564   2.792   4.152   1.177  0.1530 -0.2618 -0.0734
 3456SOL    HW210565   2.655   4.217   1.177  1.0084  1.6831 -2.2471
 3457SOL     OW10566   0.159   3.238   0.368  0.7142 -0.5552  0.5061
 3457SOL    HW110567   0.190   3.327   0.388 -1.3028  1.1992 -3.0852
 3457SOL    HW210568   0.233   3.195   0.326  1.2202  0.0026  0.8181
 3458SOL     OW10569   1.532   3.122   1.722 -0.0547 -0.0377 -0.0217
 3458SOL    HW110570   1.615   3.152   1.688  0.1450 -0.1000  0.4011
 3458SOL    HW210571   1.473   3.123   1.647  0.3933 -0.2393 -0.3796
 3459SOL     OW10572   0.645   2.936   1.559  0.4286 -0.1539 -0.6408
 3459SOL    HW110573   0.694   2.856   1.538  0.2938 -0.2464 -0.6096
 3459SOL    HW210574   0.554   2.906   1.564  0.6057 -0.4370  1.5830
 3460SOL     OW10575   4.160   3.470   4.691  0.1756  0.0372 -0.7675
 3460SOL    HW110576   4.237   3.525   4.677 -0.1257  0.2342 -1.7223
 3460SOL    HW210577   4.103   3.523   4.747  1.0385 -0.4138  0.5838
 3461SOL     OW10578   3.877   4.081   0.872 -0.0363  0.1219 -0.3027
 3461SOL    HW110579   3.796   4.049   0.911  0.2413 -1.0419 -0.6438
 3461SOL    HW210580   3.947   4.048   0.929  0.2380  0.6469 -0.3215
 3462SOL     OW10581   3.162   2.125   0.971 -0.2723 -0.7495 -0.1256
 3462SOL    HW110582   3.224   2.196   0.956 -1.8774  0.6272 -0.6001
 3462SOL    HW210583   3.177   2.065   0.898  0.1618 -0.1837 -0.5149
 3463SOL     OW10584   0.135   1.728   4.366  0.6129  1.0709 -0.4936
 3463SOL    HW110585   0.076   1.729   4.290  0.1753  1.3766 -0.1565
 3463SOL    HW210586   0.116   1.810   4.412  0.5114  0.6563  0.2138
 3464SOL     OW10587   1.871   3.179   1.069 -0.3693  0.5807 -0.0684
 3464SOL    HW110588   1.804   3.114   1.044  0.9096 -0.4632 -0.9132
 3464SOL    HW210589   1.881   3.234   0.992  0.4961  0.0542 -0.3459
 3465SOL     OW10590   4.573   1.350   4.938 -0.1703  0.0690  0.0752
 3465SOL    HW110591   4.551   1.341   5.031 -1.5599  0.4556 -0.2027
 3465SOL    HW210592   4.538   1.435   4.913  1.3559  0.5651 -0.5142
 3466SOL     OW10593   3.219   3.438   2.284 -0.6082 -0.1821 -0.2734
 3466SOL    HW110594   3.282   3.386   2.235 -0.8547 -0.0774 -0.7163
 3466SOL    HW210595   3.262   3.523   2.297 -0.8037  0.0234 -0.9239
 3467SOL     OW10596   1.670   4.456   0.522 -0.1892  0.6297 -0.3918
 3467SOL    HW110597   1.691   4.539   0.565 -1.2752 -0.5202  2.5584
 3467SOL    HW210598   1.574   4.452   0.522 -0.2213  0.1904 -2.3031
 3468SOL     OW10599   3.451   1.608   4.735  0.9348  0.1363 -0.1578
 3468SOL    HW110600   3.407   1.550   4.797 -0.8738  0.6800 -0.8533
 3468SOL    HW210601   3.404   1.691   4.743  3.2704  1.4756  0.6211
 3469SOL     OW10602   0.603   4.242   2.302  0.4291 -0.4575  0.5625
 3469SOL    HW110603   0.651   4.229   2.220  0.7985 -1.0735  0.8728
 3469SOL    HW210604   0.594   4.337   2.309 -2.0351 -0.4089 -1.5991
 3470SOL     OW10605   1.016   3.268   0.386 -0.5432 -0.0746 -0.2623
 3470SOL    HW110606   0.945   3.333   0.386  1.4034  2.1885  0.4053
 3470SOL    HW210607   1.005   3.221   0.468 -0.7255  0.9059  0.2898
 3471SOL     OW10608   4.009   2.666   3.503  0.3083  0.5600 -0.3101
 3471SOL    HW110609   3.943   2.735   3.492  0.1958  0.5568  0.3452
 3471SOL    HW210610   3.979   2.616   3.579  0.0512 -0.6070 -1.1472
 3472SOL     OW10611   1.651   3.255   0.752  0.6382 -0.0111 -0.0449
 3472SOL    HW110612   1.593   3.194   0.798  0.7787 -0.7559 -0.8224
 3472SOL    HW210613   1.638   3.339   0.796  0.9601 -0.7390  1.5112
 3473SOL     OW10614   1.372   0.653   4.657  0.2964 -0.2890  0.3489
 3473SOL    HW110615   1.397   0.600   4.732 -0.1226 -0.7586  0.1625
 3473SOL    HW210616   1.443   0.717   4.648 -0.5778  1.0400  2.3131
 3474SOL     OW10617   1.110   3.193   2.111 -0.1371 -0.4363 -0.1403
 3474SOL    HW110618   1.130   3.239   2.029 -0.4483 -3.2206 -1.8949
 3474SOL    HW210619   1.195   3.175   2.150 -0.0109  2.3373  1.1407
 3475SOL     OW10620   2.430   2.510   3.318  0.2179  0.4252 -0.6412
 3475SOL    HW110621   2.483   2.573   3.367 -0.7749  0.2777  0.6443
 3475SOL    HW210622   2.382   2.563   3.254 -1.2608  1.1386  0.9889
 3476SOL     OW10623   3.627   0.735   4.846 -0.1804  0.4534  0.3307
 3476SOL    HW110624   3.703   0.682   4.869  0.1792  1.6412  2.0614
 3476SOL    HW210625   3.664   0.816   4.812 -0.7155  0.2024 -0.8943
 3477SOL     OW10626   1.388   3.906   2.399 -0.1978 -0.1903 -0.3326
 3477SOL    HW110627   1.353   3.938   2.315 -1.2361  1.0122  0.5122
 3477SOL    HW210628   1.416   3.985   2.445  1.0176 -0.8952  0.1931
 3478SOL     OW10629   4.945   1.491   0.609 -0.3398 -0.8058 -1.1809
 3478SOL    HW110630   4.981   1.571   0.571 -1.7720 -0.4014 -1.7425
 3478SOL    HW210631   4.857   1.515   0.637 -0.6248 -2.0684 -0.9402
 3479SOL     OW10632   4.255   1.392   2.094  0.4570  0.2082 -0.4191
 3479SOL    HW110633   4.271   1.479   2.059  0.2257  0.7986  0.8938
 3479SOL    HW210634   4.278   1.398   2.186  1.3943 -1.3982 -0.4937
 3480SOL     OW10635   4.258   0.649   2.038  0.2033 -0.0840  0.0971
 3480SOL    HW110636   4.342   0.667   2.081  0.2193  2.4569 -0.7989
 3480SOL    HW210637   4.219   0.736   2.026 -2.6462 -1.1992  0.6184
 3481SOL     OW10638   2.234   3.539   1.455  0.0727  0.1407  0.3698
 3481SOL    HW110639   2.261   3.571   1.541 -0.5877 -0.7848  0.9344
 3481SOL    HW210640   2.181   3.462   1.473  0.8999 -0.7756 -0.9167
 3482SOL     OW10641   0.157   0.423   2.776 -0.1459 -0.0279  0.1375
 3482SOL    HW110642   0.233   0.427   2.719 -0.6707 -0.2419 -0.5869
 3482SOL    HW210643   0.181   0.475   2.852 -0.1746  1.9946 -1.1625
 3483SOL     OW10644   1.383   4.332   1.801 -0.3226 -0.2376  0.0170
 3483SOL    HW110645   1.436   4.351   1.724 -1.2845 -1.4965 -1.0018
 3483SOL    HW210646   1.342   4.415   1.823 -0.6285 -0.0144 -1.3036
 3484SOL     OW10647   3.132   3.343   1.958  0.9527 -0.7260 -0.3817
 3484SOL    HW110648   3.172   3.424   1.926  0.7344  0.4037  1.9400
 3484SOL    HW210649   3.200   3.302   2.012  0.1504 -0.5306  0.8315
 3485SOL     OW10650   4.053   3.757   4.123 -0.3674 -0.4109 -0.4309
 3485SOL    HW110651   4.084   3.787   4.208 -0.8838 -0.8102 -0.0911
 3485SOL    HW210652   4.118   3.693   4.095 -1.1791 -1.7171  0.5706
 3486SOL     OW10653   1.909   2.941   2.270 -0.2052 -0.0438 -0.3840
 3486SOL    HW110654   1.969   2.999   2.224  1.1328 -0.0776  1.2395
 3486SOL    HW210655   1.954   2.857   2.274  0.6196  0.4131  2.5188
 3487SOL     OW10656   1.445   2.157   1.188  0.1804  0.2525  0.7329
 3487SOL    HW110657   1.511   2.129   1.124 -0.6351 -2.1872  0.8433
 3487SOL    HW210658   1.496   2.203   1.255  1.1960  1.8910 -1.0384
 3488SOL     OW10659   2.495   3.593   2.466  0.3377  0.6342  0.6116
 3488SOL    HW110660   2.577   3.558   2.502  1.1914  0.5203 -1.3030
 3488SOL    HW210661   2.522   3.642   2.388 -1.4773  0.0290 -0.4612
 3489SOL     OW10662   1.212   0.655   3.498 -0.4842 -0.1247 -0.0111
 3489SOL    HW110663   1.195   0.673   3.405 -1.6342 -1.4711 -0.0895
 3489SOL    HW210664   1.137   0.693   3.544  0.2680  0.8772  0.4358
 3490SOL     OW10665   1.293   4.289   3.965  0.4522 -0.3808 -0.2118
 3490SOL    HW110666   1.247   4.303   4.048  1.5855  1.5903  0.1386
 3490SOL    HW210667   1.244   4.218   3.922  0.3176 -2.0555  2.4818
 3491SOL     OW10668   0.430   2.421   0.830 -0.5123 -0.3949 -0.3358
 3491SOL    HW110669   0.383   2.347   0.791 -1.0235  0.1487 -0.7678
 3491SOL    HW210670   0.454   2.476   0.755 -1.9416  0.9246  0.1129
 3492SOL     OW10671   4.846   1.865   3.406  0.7133  0.0247 -0.2521
 3492SOL    HW110672   4.756   1.833   3.414  0.9876 -0.6622  0.1261
 3492SOL    HW210673   4.892   1.825   3.479  1.2237  0.7499 -0.1725
 3493SOL     OW10674   2.402   2.526   1.071  0.2061 -0.2134 -0.4093
 3493SOL    HW110675   2.466   2.597   1.073  1.2146 -1.1092 -0.1355
 3493SOL    HW210676   2.349   2.539   1.150  0.0282  0.5367 -0.6400
 3494SOL     OW10677   4.811   3.833   4.696 -0.1289  0.1092 -0.4393
 3494SOL    HW110678   4.778   3.824   4.607  0.7468  0.0810 -0.7700
 3494SOL    HW210679   4.773   3.916   4.727 -2.3749 -1.0337  0.0448
 3495SOL     OW10680   3.242   4.776   4.820  0.2382 -0.2822 -0.1245
 3495SOL    HW110681   3.167   4.835   4.821  2.3515  2.6491  0.3461
 3495SOL    HW210682   3.286   4.795   4.737  0.5391 -1.8537 -0.3512
 3496SOL     OW10683   3.330   2.089   3.432  0.7205 -0.2673 -0.2591
 3496SOL    HW110684   3.375   2.118   3.512  0.1215  2.2062 -0.7597
 3496SOL    HW210685   3.237   2.089   3.455  0.5718  0.0808 -0.8436
 3497SOL     OW10686   3.566   0.483   3.802 -0.2793  0.2666  0.0987
 3497SOL    HW110687   3.634   0.462   3.738 -0.4882  2.2523 -0.8608
 3497SOL    HW210688   3.605   0.551   3.857 -0.4482 -0.7442  1.5119
 3498SOL     OW10689   2.962   3.502   2.151 -0.6895  0.6506  0.2912
 3498SOL    HW110690   3.035   3.483   2.210  0.7567  3.6245 -0.3205
 3498SOL    HW210691   2.987   3.459   2.069  0.3483  1.4117  0.1702
 3499SOL     OW10692   0.555   1.037   2.395 -0.1229 -0.0129  0.6486
 3499SOL    HW110693   0.471   1.047   2.351 -0.0521 -0.3186  0.4330
 3499SOL    HW210694   0.537   0.980   2.470 -0.2479  0.5265  1.0261
 3500SOL     OW10695   2.300   1.241   4.694 -0.1589  0.4045 -0.0980
 3500SOL    HW110696   2.323   1.151   4.674 -0.5592 -0.0749  1.3963
 3500SOL    HW210697   2.381   1.291   4.685  0.0279 -0.0747 -1.0804
 3501SOL     OW10698   2.813   1.823   0.840  0.1153 -0.3665  0.1317
 3501SOL    HW110699   2.833   1.825   0.747  2.2077  1.1104  0.5303
 3501SOL    HW210700   2.735   1.876   0.850 -1.9121 -2.9074 -1.0425
 3502SOL     OW10701   0.891   0.884   1.107 -0.4365 -0.2407  0.1342
 3502SOL    HW110702   0.847   0.838   1.035 -0.8500 -0.3848  0.4722
 3502SOL    HW210703   0.893   0.975   1.079 -1.4765 -0.1321  0.3535
 3503SOL     OW10704   3.935   2.266   0.780 -0.2771  0.0139  0.4516
 3503SOL    HW110705   3.985   2.227   0.708 -0.9718 -0.2375  0.0942
 3503SOL    HW210706   3.952   2.360   0.773 -1.1319  0.1083 -0.6878
 3504SOL     OW10707   1.140   1.210   0.875 -0.0947  0.3672  0.0423
 3504SOL    HW110708   1.180   1.275   0.818  1.2423 -1.2641 -0.9588
 3504SOL    HW210709   1.211   1.179   0.930 -1.2481  1.5030  2.3046
 3505SOL     OW10710   2.898   3.307   3.131 -0.0892  0.0598 -0.3503
 3505SOL    HW110711   2.969   3.360   3.094  0.5233 -1.3594 -1.3071
 3505SOL    HW210712   2.942   3.249   3.193 -0.6711  0.2440  0.2455
 3506SOL     OW10713   1.039   3.414   0.801 -0.4098  0.0382 -0.1953
 3506SOL    HW110714   0.971   3.381   0.742 -0.9987  0.5576  0.1857
 3506SOL    HW210715   1.087   3.478   0.748  0.0258 -0.5780 -0.5759
 3507SOL     OW10716   4.397   2.828   3.232  0.0681  0.3929 -0.2140
 3507SOL    HW110717   4.397   2.838   3.327 -0.3397 -1.3822 -0.0071
 3507SOL    HW210718   4.322   2.772   3.213  0.9712 -0.4586 -1.4452
 3508SOL     OW10719   3.889   0.514   4.639  0.0329 -0.3653  0.9917
 3508SOL    HW110720   3.849   0.561   4.566 -0.0596 -2.1273 -0.1418
 3508SOL    HW210721   3.834   0.437   4.652  0.2416 -0.2779  2.7268
 3509SOL     OW10722   1.503   0.759   4.258 -0.0379 -0.9606 -0.1421
 3509SOL    HW110723   1.585   0.794   4.292 -0.6400 -0.3212  0.7069
 3509SOL    HW210724   1.501   0.786   4.166 -0.4980  1.3227  0.4910
 3510SOL     OW10725   4.366   4.309   0.847  0.1250  0.4470  0.0495
 3510SOL    HW110726   4.368   4.251   0.922  1.1132  2.2591  1.5055
 3510SOL    HW210727   4.456   4.313   0.816  0.3455  2.1358  0.7858
 3511SOL     OW10728   2.114   3.605   0.930 -0.1611  0.1253 -0.1646
 3511SOL    HW110729   2.125   3.540   0.999  0.1578  1.1985  0.8130
 3511SOL    HW210730   2.049   3.666   0.964 -1.4515 -0.3714 -1.6169
 3512SOL     OW10731   4.666   2.115   0.032 -0.3758  0.4522  0.1260
 3512SOL    HW110732   4.592   2.120  -0.029 -0.7833  2.8983  0.7171
 3512SOL    HW210733   4.633   2.154   0.113  0.8061 -0.7895  1.2621
 3513SOL     OW10734   3.853   4.106   2.521  0.5003 -0.3262  0.0305
 3513SOL    HW110735   3.763   4.081   2.539  0.8073 -0.0093  2.2270
 3513SOL    HW210736   3.866   4.084   2.429 -0.7402 -3.5641  0.5272
 3514SOL     OW10737   4.327   0.966   1.018  0.5804 -0.2669  0.0690
 3514SOL    HW110738   4.363   0.883   1.048  1.2319  0.1085  0.3671
 3514SOL    HW210739   4.246   0.976   1.069  0.7894 -0.4555  0.4494
 3515SOL     OW10740   3.055   2.200   1.210  0.1929 -0.0598  0.1797
 3515SOL    HW110741   3.067   2.162   1.123 -0.9117 -1.8432  0.7573
 3515SOL    HW210742   3.123   2.159   1.264  1.3390  1.5744  0.0466
 3516SOL     OW10743   1.966   0.076   1.313  0.1849 -0.1720 -0.0953
 3516SOL    HW110744   1.964   0.107   1.403 -0.2525  0.6456 -0.3726
 3516SOL    HW210745   1.879   0.097   1.278  0.3357 -0.5084 -0.6969
 3517SOL     OW10746   3.258   0.021   0.487  0.1899 -0.2742  0.0591
 3517SOL    HW110747   3.276   0.115   0.494 -0.4032 -0.0575 -1.0193
 3517SOL    HW210748   3.177   0.008   0.535  0.3357 -0.2617  0.3112
 3518SOL     OW10749   3.176   3.098   4.613  0.0525  0.4002  0.9131
 3518SOL    HW110750   3.149   3.095   4.705 -1.4920 -1.1752  0.4573
 3518SOL    HW210751   3.102   3.060   4.566  1.5926 -0.5494 -0.8127
 3519SOL     OW10752   2.798   4.166   2.241  0.1122 -0.5879 -0.8327
 3519SOL    HW110753   2.890   4.166   2.217  0.0320  1.6614 -1.3547
 3519SOL    HW210754   2.758   4.233   2.186 -0.9705  1.5912  2.3412
 3520SOL     OW10755   3.804   0.175   2.737 -0.2370  0.1972  0.9030
 3520SOL    HW110756   3.763   0.089   2.735  0.6083 -0.2577  2.1843
 3520SOL    HW210757   3.873   0.169   2.671 -0.4376  0.0359  0.7051
 3521SOL     OW10758   4.084   1.019   0.096 -0.4481  0.1070  0.0325
 3521SOL    HW110759   4.026   0.981   0.030 -1.5720  2.1161 -0.2179
 3521SOL    HW210760   4.145   0.949   0.118 -0.4122 -0.8216 -2.6942
 3522SOL     OW10761   4.830   3.419   4.505  0.2449  0.4605 -0.3031
 3522SOL    HW110762   4.793   3.434   4.418  0.1339 -0.3282 -0.4049
 3522SOL    HW210763   4.755   3.424   4.564  0.2457  0.5529 -0.3102
 3523SOL     OW10764   2.619   3.274   4.788  0.6949  0.7283  0.3832
 3523SOL    HW110765   2.615   3.290   4.882  0.4532  0.0905  0.4828
 3523SOL    HW210766   2.694   3.216   4.776 -0.3638 -0.6978  0.4074
 3524SOL     OW10767   4.930   0.875   0.701  0.3398  0.1243  0.4418
 3524SOL    HW110768   4.920   0.965   0.669  0.8425  0.1120  0.2380
 3524SOL    HW210769   4.842   0.839   0.696  0.0406  0.7521  0.9869
 3525SOL     OW10770   1.836   4.472   1.064  0.0181 -0.1465 -0.2724
 3525SOL    HW110771   1.918   4.422   1.064  0.4548  0.5491 -0.3568
 3525SOL    HW210772   1.804   4.466   1.153 -0.0355 -0.7271 -0.3239
 3526SOL     OW10773   3.576   0.369   0.720  0.1265 -0.0240 -0.0844
 3526SOL    HW110774   3.516   0.328   0.782  0.8956 -2.5391 -0.8892
 3526SOL    HW210775   3.656   0.383   0.770  0.4129 -1.1318 -0.1944
 3527SOL     OW10776   1.315   3.343   0.862 -0.3664  0.2118 -0.0312
 3527SOL    HW110777   1.346   3.419   0.912 -0.8357  0.2863  0.1508
 3527SOL    HW210778   1.220   3.356   0.856 -0.2628  0.4878 -1.4028
 3528SOL     OW10779   3.461   4.490   2.604  0.2633 -0.1194 -0.2447
 3528SOL    HW110780   3.378   4.480   2.650  0.3404 -0.3850 -0.1552
 3528SOL    HW210781   3.518   4.535   2.668  0.1339  0.2317 -0.3754
 3529SOL     OW10782   0.980   0.109   2.569  0.6450 -0.2411 -0.0591
 3529SOL    HW110783   1.044   0.150   2.627  0.8982 -0.8220  0.0818
 3529SOL    HW210784   0.904   0.168   2.571  0.1166 -0.9090  1.9157
 3530SOL     OW10785   2.469   3.797   1.612 -0.6863 -0.5947 -0.2223
 3530SOL    HW110786   2.434   3.729   1.669  0.7651 -0.6451  0.6628
 3530SOL    HW210787   2.401   3.865   1.611 -1.7405 -1.6347 -0.3728
 3531SOL     OW10788   1.418   1.831   1.628 -0.0183  0.4934  0.3261
 3531SOL    HW110789   1.480   1.833   1.700 -0.2647  0.5796  0.5385
 3531SOL    HW210790   1.457   1.772   1.564 -0.0677 -0.0416  0.7781
 3532SOL     OW10791   3.137   3.456   3.738 -0.4310  0.4542 -0.1597
 3532SOL    HW110792   3.157   3.548   3.755 -0.0528  0.5519 -1.0871
 3532SOL    HW210793   3.043   3.448   3.756 -0.0545  0.4893  2.1254
 3533SOL     OW10794   0.573   0.202   4.408 -0.0764 -0.0561  0.3704
 3533SOL    HW110795   0.633   0.176   4.478 -1.3739 -1.8772  0.8836
 3533SOL    HW210796   0.620   0.182   4.327 -0.0919 -1.8648  0.7615
 3534SOL     OW10797   2.355   4.900   4.184  0.0825  0.7624 -0.3484
 3534SOL    HW110798   2.309   4.912   4.100 -0.1939 -0.8691 -0.4700
 3534SOL    HW210799   2.447   4.911   4.163  0.1169 -0.8419 -1.1502
 3535SOL     OW10800   4.587   1.795   3.471 -0.1725  0.3679  0.4058
 3535SOL    HW110801   4.590   1.718   3.414  3.8412  0.8550 -0.2875
 3535SOL    HW210802   4.500   1.833   3.454 -0.4596 -1.3549 -2.8698
 3536SOL     OW10803   1.684   3.166   4.566  0.0430  0.3014  0.3237
 3536SOL    HW110804   1.666   3.073   4.556 -1.9429  0.6210  0.4917
 3536SOL    HW210805   1.744   3.187   4.494  0.6893 -1.1461  0.4260
 3537SOL     OW10806   1.624   4.713   4.829  0.2441 -0.2358  0.2300
 3537SOL    HW110807   1.577   4.700   4.911  1.9512 -1.6219  1.0561
 3537SOL    HW210808   1.716   4.723   4.855  1.1954 -3.0828 -1.5874
 3538SOL     OW10809   0.916   1.123   0.995 -0.5945 -0.4547 -0.2221
 3538SOL    HW110810   0.851   1.142   0.927 -0.4174 -0.4560 -0.3927
 3538SOL    HW210811   0.999   1.119   0.948 -0.6289 -1.6659 -0.1904
 3539SOL     OW10812   4.077   4.272   2.592 -0.3261  0.9168  0.3569
 3539SOL    HW110813   4.141   4.219   2.640 -0.2035  0.7684  0.0309
 3539SOL    HW210814   4.003   4.214   2.578 -0.5318  1.0872  0.7283
 3540SOL     OW10815   2.541   1.656   1.143  0.0549  0.0568 -0.2257
 3540SOL    HW110816   2.617   1.625   1.094  1.8968  0.1101  2.4134
 3540SOL    HW210817   2.561   1.747   1.164  0.1126 -0.3986  1.9298
 3541SOL     OW10818   1.833   1.740   1.753 -0.2235 -0.2694 -0.8211
 3541SOL    HW110819   1.915   1.735   1.802 -0.2867  1.3041 -0.5166
 3541SOL    HW210820   1.834   1.662   1.697  1.3132 -0.4437 -0.5884
 3542SOL     OW10821   1.963   2.652   1.582 -0.5022  0.2121  0.4797
 3542SOL    HW110822   1.979   2.684   1.494  1.1277 -0.1434  0.6223
 3542SOL    HW210823   2.015   2.572   1.589  0.4982  0.9668  2.1927
 3543SOL     OW10824   1.546   2.724   3.175  0.1371 -0.3841 -0.3394
 3543SOL    HW110825   1.634   2.705   3.145  0.1657 -0.9489  0.0838
 3543SOL    HW210826   1.516   2.643   3.217  0.0331  0.3015  0.9786
 3544SOL     OW10827   4.101   3.885   0.340  0.3796 -0.4469 -0.1588
 3544SOL    HW110828   4.039   3.959   0.336 -0.9022 -1.5192 -1.0360
 3544SOL    HW210829   4.136   3.878   0.252  0.0800 -1.2186 -0.2235
 3545SOL     OW10830   2.724   4.689   2.913 -0.0111  0.0584  0.4368
 3545SOL    HW110831   2.644   4.707   2.864 -0.0801 -0.3350  0.4010
 3545SOL    HW210832   2.717   4.596   2.936  0.3632  0.0622  0.5631
 3546SOL     OW10833   2.393   2.578   1.975  0.3161  0.3294 -0.2196
 3546SOL    HW110834   2.453   2.604   1.905  0.2432  0.5353 -0.2064
 3546SOL    HW210835   2.342   2.506   1.938 -0.3667  1.0435 -0.7029
 3547SOL     OW10836   1.841   0.724   0.808  0.4135 -0.0475  0.4904
 3547SOL    HW110837   1.807   0.641   0.841  1.6538 -0.5495  0.5585
 3547SOL    HW210838   1.801   0.791   0.864 -0.0011 -0.6528  0.9252
 3548SOL     OW10839   4.358   0.258   2.429  0.0779  0.1786  0.8216
 3548SOL    HW110840   4.413   0.209   2.368 -2.0555  1.4543 -2.4069
 3548SOL    HW210841   4.415   0.327   2.463  0.7776  1.0433 -1.8771
 3549SOL     OW10842   4.836   0.520   0.986 -0.0393 -0.8173  0.5034
 3549SOL    HW110843   4.842   0.614   1.005 -1.2280 -0.5863 -0.1457
 3549SOL    HW210844   4.925   0.496   0.959 -0.0438  0.4848 -0.8167
 3550SOL     OW10845   3.538   0.619   1.984  0.3608  0.4402 -0.1334
 3550SOL    HW110846   3.553   0.655   1.897  0.1109  2.7318  0.6951
 3550SOL    HW210847   3.445   0.595   1.985  0.3905  0.3031 -0.5215
 3551SOL     OW10848   1.405   0.962   0.437  0.3130  0.5630  0.3796
 3551SOL    HW110849   1.335   0.967   0.372  0.6802 -0.6014 -0.1181
 3551SOL    HW210850   1.372   1.012   0.512 -0.8883  0.3381  0.0096
 3552SOL     OW10851   0.866   4.228   3.621  0.0840 -0.2565  0.0772
 3552SOL    HW110852   0.873   4.178   3.540  1.9275  2.6623 -1.7671
 3552SOL    HW210853   0.804   4.179   3.675 -0.5112 -2.8241 -2.6969
 3553SOL     OW10854   2.378   1.337   0.310  0.3540 -0.2501  0.1472
 3553SOL    HW110855   2.390   1.344   0.215 -2.0829 -2.1047 -0.3778
 3553SOL    HW210856   2.400   1.424   0.343 -0.6245  1.0316 -2.3527
 3554SOL     OW10857   1.323   3.547   1.071 -0.7880  0.0703 -0.1375
 3554SOL    HW110858   1.363   3.621   1.117 -3.1813  0.8069  0.9808
 3554SOL    HW210859   1.229   3.556   1.089 -1.2563 -2.8744 -0.5186
 3555SOL     OW10860   4.248   0.184   3.835 -0.0532  0.2796 -0.1123
 3555SOL    HW110861   4.322   0.157   3.782  0.4037 -0.4710  0.8737
 3555SOL    HW210862   4.193   0.236   3.776  0.1698 -0.9454 -1.4372
 3556SOL     OW10863   2.162   3.981   2.529  0.6484 -0.2878  0.5731
 3556SOL    HW110864   2.168   3.914   2.461 -0.2067 -1.7563  1.8533
 3556SOL    HW210865   2.239   4.036   2.516  1.2194 -1.3333 -0.7327
 3557SOL     OW10866   4.742   2.109   3.388  0.1161  0.3236  0.3648
 3557SOL    HW110867   4.789   2.026   3.395 -0.0067  0.4111  3.0682
 3557SOL    HW210868   4.667   2.089   3.331  0.8424 -1.0388 -0.1593
 3558SOL     OW10869   3.605   2.133   4.887  0.5511  0.3141 -0.0671
 3558SOL    HW110870   3.678   2.072   4.894 -0.6059 -1.4369 -2.0242
 3558SOL    HW210871   3.597   2.151   4.794 -2.2187 -0.5782 -0.1055
 3559SOL     OW10872   2.897   2.890   3.552  0.1698 -0.1401  0.1555
 3559SOL    HW110873   2.947   2.828   3.499  2.7699  0.5599  1.5973
 3559SOL    HW210874   2.899   2.853   3.640 -2.0199 -0.1061  0.2766
 3560SOL     OW10875   4.247   4.468   2.220 -0.0262  0.0544 -0.6106
 3560SOL    HW110876   4.214   4.407   2.154  1.2343  0.3168 -1.5180
 3560SOL    HW210877   4.293   4.412   2.283 -0.5392 -0.1148 -0.3815
 3561SOL     OW10878   2.034   2.697   4.476 -0.0414 -0.0648 -0.9217
 3561SOL    HW110879   1.941   2.678   4.491 -0.6282  1.5829 -2.0706
 3561SOL    HW210880   2.063   2.628   4.416 -1.3399  0.9042 -2.8006
 3562SOL     OW10881   1.267   2.085   2.937 -0.6136  0.0139 -0.8426
 3562SOL    HW110882   1.180   2.064   2.905 -0.5268 -0.2940 -0.8733
 3562SOL    HW210883   1.286   2.172   2.901 -0.4431 -0.3943 -1.7634
 3563SOL     OW10884   1.128   4.291   2.569  0.4454  0.4646  0.7773
 3563SOL    HW110885   1.049   4.341   2.589  1.0049  1.1830  1.2304
 3563SOL    HW210886   1.132   4.223   2.636  0.1726  0.3830  0.7098
 3564SOL     OW10887   4.550   3.498   1.068 -0.2808 -0.1823 -0.6323
 3564SOL    HW110888   4.617   3.487   1.001  1.5441  2.4363  0.6316
 3564SOL    HW210889   4.473   3.527   1.020  0.6812  0.6271 -1.7325
 3565SOL     OW10890   4.485   4.395   4.901 -0.9122  0.0399  0.0711
 3565SOL    HW110891   4.436   4.421   4.823 -2.4227 -0.4367  0.8109
 3565SOL    HW210892   4.462   4.303   4.914  0.3499 -0.2576  0.3621
 3566SOL     OW10893   4.632   2.809   4.946  0.1857  0.0292 -0.3180
 3566SOL    HW110894   4.576   2.773   5.014 -0.5704  0.0162 -0.9389
 3566SOL    HW210895   4.604   2.766   4.865  0.9417  0.1862 -0.6785
 3567SOL     OW10896   4.099   4.710   3.533  0.4285  0.6350  0.1751
 3567SOL    HW110897   4.138   4.641   3.587  2.8349  1.8177  0.0798
 3567SOL    HW210898   4.031   4.748   3.589 -0.1532 -0.9950  0.6554
 3568SOL     OW10899   0.174   3.339   4.025  0.3080 -0.5052  0.7221
 3568SOL    HW110900   0.119   3.306   4.096  2.7865 -2.0125  2.0839
 3568SOL    HW210901   0.210   3.421   4.059  0.6857 -0.6999  0.7962
 3569SOL     OW10902   1.373   2.484   1.333 -0.2196 -0.0973  0.1157
 3569SOL    HW110903   1.409   2.564   1.372 -0.8262 -0.5633  1.6709
 3569SOL    HW210904   1.303   2.457   1.392 -1.1467 -0.8767 -1.2683
 3570SOL     OW10905   4.052   1.551   3.221  0.4219  0.3518  0.0414
 3570SOL    HW110906   4.085   1.461   3.225 -1.1247 -0.2864 -0.8996
 3570SOL    HW210907   4.024   1.570   3.311 -2.1194 -1.2774 -0.3132
 3571SOL     OW10908   4.321   1.769   3.619 -0.2851  0.0197 -0.4088
 3571SOL    HW110909   4.341   1.769   3.713  2.0087  2.4777 -0.7970
 3571SOL    HW210910   4.349   1.683   3.589  1.2699  0.0649  0.7727
 3572SOL     OW10911   4.061   1.709   0.931  0.3612  0.0841  0.3668
 3572SOL    HW110912   4.093   1.647   0.865 -1.5083  0.3756 -0.8995
 3572SOL    HW210913   4.129   1.776   0.936  0.7522 -0.1862 -0.9549
 3573SOL     OW10914   1.354   1.174   4.922  0.5362 -0.2902 -0.1437
 3573SOL    HW110915   1.294   1.103   4.900  0.7673 -1.0851  1.6193
 3573SOL    HW210916   1.299   1.253   4.923 -0.1185 -0.7426 -0.2122
 3574SOL     OW10917   3.008   1.508   3.974  0.0395 -0.4871 -0.0503
 3574SOL    HW110918   3.099   1.485   3.991 -0.2014 -0.0906  2.1211
 3574SOL    HW210919   2.958   1.432   4.004 -0.4447  0.3804  1.4639
 3575SOL     OW10920   3.493   3.497   0.006 -0.3781  0.3551 -0.1879
 3575SOL    HW110921   3.516   3.507  -0.086  1.0990  1.0143  0.2138
 3575SOL    HW210922   3.465   3.584   0.034  1.4928  0.7693  0.5409
 3576SOL     OW10923   4.685   2.928   0.303  0.0628  0.4911  0.1085
 3576SOL    HW110924   4.726   2.977   0.233  0.0210  0.3005 -0.0514
 3576SOL    HW210925   4.608   2.889   0.263  1.1381 -1.3239 -0.3056
 3577SOL     OW10926   1.697   3.574   0.238 -0.0852  0.1432 -0.1882
 3577SOL    HW110927   1.780   3.531   0.217  0.3452  0.8000  0.1447
 3577SOL    HW210928   1.664   3.526   0.314  0.1763  0.1253 -0.0850
 3578SOL     OW10929   3.128   3.547   1.663  0.0056  0.0638  0.4321
 3578SOL    HW110930   3.154   3.456   1.651 -0.4320 -0.1821  1.3221
 3578SOL    HW210931   3.196   3.585   1.718  0.0731  0.2190  0.2432
 3579SOL     OW10932   3.784   0.635   4.396  0.6981  0.2241  0.3155
 3579SOL    HW110933   3.865   0.657   4.349 -1.0263  2.1244 -2.0730
 3579SOL    HW210934   3.780   0.540   4.394  3.1727  0.0407  1.1463
 3580SOL     OW10935   0.395   4.053   2.065 -0.2142  0.1985 -0.0305
 3580SOL    HW110936   0.336   3.991   2.023 -0.6420  1.2984 -1.1157
 3580SOL    HW210937   0.478   4.004   2.074 -1.1851 -1.2970  1.3696
 3581SOL     OW10938   2.981   3.328   4.148  0.4092  0.5111  0.0503
 3581SOL    HW110939   2.981   3.344   4.054  0.8334 -0.0935 -0.0557
 3581SOL    HW210940   2.922   3.253   4.160  2.1809 -0.9559 -0.0269
 3582SOL     OW10941   1.254   4.152   3.063 -0.0876 -0.1260 -0.0441
 3582SOL    HW110942   1.299   4.217   3.008 -1.2977 -0.0477 -0.9870
 3582SOL    HW210943   1.325   4.096   3.096  0.7839  0.5037 -0.7783
 3583SOL     OW10944   2.292   0.111   3.966 -0.6752  0.3280  0.8390
 3583SOL    HW110945   2.383   0.107   3.937 -0.5660  1.3453  1.0063
 3583SOL    HW210946   2.243   0.060   3.901 -0.0708  0.2912  0.4130
 3584SOL     OW10947   4.247   1.414   4.944 -0.2446  0.2060 -0.2126
 3584SOL    HW110948   4.324   1.450   4.987 -0.5800 -0.4674  1.0034
 3584SOL    HW210949   4.264   1.425   4.850  1.5639 -0.3867  0.0028
 3585SOL     OW10950   2.504   3.158   4.169  0.0033 -0.1731  0.3063
 3585SOL    HW110951   2.492   3.070   4.133 -0.8336  0.6359 -1.5578
 3585SOL    HW210952   2.415   3.186   4.191 -0.0442  0.9407 -1.1031
 3586SOL     OW10953   3.329   0.596   4.031 -0.2435  0.3849 -0.6764
 3586SOL    HW110954   3.381   0.519   4.054  1.1179  1.0238 -1.4740
 3586SOL    HW210955   3.283   0.571   3.951 -0.5149  0.1099 -0.4389
 3587SOL     OW10956   3.986   1.203   2.110  0.1289  0.4981  0.3896
 3587SOL    HW110957   4.024   1.291   2.115  1.9887 -0.2558  0.7749
 3587SOL    HW210958   3.892   1.217   2.101  0.2995  2.5157  1.2144
 3588SOL     OW10959   0.189   4.366   3.476 -0.1166 -0.1143 -0.1124
 3588SOL    HW110960   0.184   4.344   3.383 -1.5811  0.9757 -0.3209
 3588SOL    HW210961   0.163   4.285   3.521 -0.6349 -0.2846 -0.6961
 3589SOL     OW10962   2.965   1.317   0.143 -0.7508  0.0410 -0.4418
 3589SOL    HW110963   2.972   1.297   0.049 -1.6840  0.0698 -0.5302
 3589SOL    HW210964   2.914   1.244   0.178  0.3660 -0.4439  0.2238
 3590SOL     OW10965   2.805   2.863   0.086  0.2015 -0.0227  0.6557
 3590SOL    HW110966   2.772   2.862  -0.004 -0.5222  2.4046  0.8159
 3590SOL    HW210967   2.791   2.953   0.115  1.5205 -0.4531  2.8136
 3591SOL     OW10968   0.894   4.647   0.232 -0.4096  1.2833 -0.1274
 3591SOL    HW110969   0.843   4.651   0.151 -2.4393  0.6612  1.0380
 3591SOL    HW210970   0.914   4.554   0.242 -0.8775  1.2420  0.4739
 3592SOL     OW10971   3.639   4.634   3.699  0.7661  0.6566  0.8862
 3592SOL    HW110972   3.568   4.688   3.665  0.2964 -0.6172 -0.2681
 3592SOL    HW210973   3.596   4.575   3.762  0.6044 -0.6479 -0.3930
 3593SOL     OW10974   4.311   2.262   1.377 -0.7253  0.3579  0.1252
 3593SOL    HW110975   4.382   2.269   1.441  1.0922 -0.9643 -1.6385
 3593SOL    HW210976   4.308   2.348   1.335  1.6912 -0.2863 -1.5527
 3594SOL     OW10977   4.028   1.817   2.697 -0.2150  0.5114 -0.1012
 3594SOL    HW110978   3.978   1.839   2.619  0.1167  2.9734  0.2947
 3594SOL    HW210979   3.964   1.817   2.768 -0.6793 -2.6015 -0.3991
 3595SOL     OW10980   1.849   4.600   3.837 -0.1063 -0.1021  0.2123
 3595SOL    HW110981   1.823   4.691   3.850 -1.6987 -0.0668 -2.5278
 3595SOL    HW210982   1.923   4.606   3.776 -0.7539 -0.6527 -0.6373
 3596SOL     OW10983   2.085   0.801   2.749  0.3983 -0.0061 -0.5906
 3596SOL    HW110984   2.004   0.843   2.722 -1.1540 -0.9433  2.2649
 3596SOL    HW210985   2.100   0.733   2.683 -0.6817  0.6635 -1.5610
 3597SOL     OW10986   2.954   4.074   3.185 -0.2345 -0.6884 -0.3844
 3597SOL    HW110987   3.033   4.020   3.181 -0.2532 -0.6463 -1.6311
 3597SOL    HW210988   2.884   4.013   3.209  0.6336 -0.1660  4.3276
 3598SOL     OW10989   1.958   1.082   2.620 -0.2213  0.3538  0.4807
 3598SOL    HW110990   1.906   1.112   2.694  0.4330  2.3853  0.1684
 3598SOL    HW210991   1.896   1.033   2.566 -1.2335  0.7452  1.2494
 3599SOL     OW10992   1.105   1.849   3.458 -0.2351  0.0541 -0.0285
 3599SOL    HW110993   1.063   1.907   3.394  1.7621  0.0554 -1.4559
 3599SOL    HW210994   1.195   1.841   3.426  1.8396  2.3862  4.3284
 3600SOL     OW10995   4.481   2.636   4.757 -0.0706 -0.1975 -0.6902
 3600SOL    HW110996   4.475   2.674   4.670 -0.6028 -2.1987 -1.5827
 3600SOL    HW210997   4.415   2.567   4.758  0.7214 -0.9974  0.8944
 3601SOL     OW10998   1.143   1.820   1.705 -0.1197 -0.4270  0.7734
 3601SOL    HW110999   1.141   1.858   1.793 -0.2678 -1.9370  1.4424
 3601SOL    HW211000   1.236   1.817   1.682 -0.1636  1.4948  0.1593
 3602SOL     OW11001   4.592   1.459   2.018 -0.3247 -0.6360  0.6528
 3602SOL    HW111002   4.606   1.550   2.043 -0.5850 -0.1163 -0.9333
 3602SOL    HW211003   4.510   1.434   2.061  0.9503 -0.9356  3.0353
 3603SOL     OW11004   3.946   1.121   3.795 -0.0456 -0.0191  0.7383
 3603SOL    HW111005   3.852   1.104   3.799  0.1105 -1.3299 -0.5550
 3603SOL    HW211006   3.952   1.212   3.765 -0.8868  0.3257  1.5591
 3604SOL     OW11007   0.184   0.181   3.342  0.7797  0.4842  0.2023
 3604SOL    HW111008   0.090   0.166   3.353  0.8156  0.2104  0.1483
 3604SOL    HW211009   0.202   0.152   3.252  0.8589  0.8226  0.1086
 3605SOL     OW11010   3.841   1.967   0.885 -0.4339  0.0859 -0.3688
 3605SOL    HW111011   3.809   1.892   0.835 -0.3262  0.2692 -0.7159
 3605SOL    HW211012   3.930   1.981   0.854 -0.5466  0.5289 -0.5052
 3606SOL     OW11013   2.745   1.229   3.134 -0.0213 -0.0146  0.8458
 3606SOL    HW111014   2.829   1.194   3.163 -0.5481 -2.1306 -0.0063
 3606SOL    HW211015   2.692   1.152   3.114 -1.4951  1.2706 -0.5497
 3607SOL     OW11016   3.805   1.361   3.974 -0.6981 -0.6572  0.0772
 3607SOL    HW111017   3.717   1.390   3.996 -0.4285  0.0574  0.2387
 3607SOL    HW211018   3.794   1.310   3.893 -1.1191  0.3270 -0.4972
 3608SOL     OW11019   2.197   2.710   0.611 -0.2403 -0.1788 -0.8771
 3608SOL    HW111020   2.126   2.646   0.614 -1.5675  1.1587 -2.2606
 3608SOL    HW211021   2.182   2.760   0.531  0.2029  2.4499  0.5488
 3609SOL     OW11022   4.759   0.246   3.059  0.3562 -0.7886 -0.2004
 3609SOL    HW111023   4.698   0.173   3.070  0.3817 -0.5691  1.8112
 3609SOL    HW211024   4.791   0.264   3.147  0.7096  1.3637 -0.7063
 3610SOL     OW11025   1.897   1.747   1.141 -0.2022  0.1856  1.3334
 3610SOL    HW111026   1.845   1.725   1.064 -0.0348  0.7384  1.0661
 3610SOL    HW211027   1.988   1.745   1.111 -0.1419  0.4908  1.4963
 3611SOL     OW11028   0.950   0.392   1.558 -0.4403  0.1451 -0.1938
 3611SOL    HW111029   0.982   0.350   1.478  0.5351  0.1558  0.1883
 3611SOL    HW211030   0.923   0.479   1.529 -0.1878  0.1149 -0.5285
 3612SOL     OW11031   1.623   1.153   2.996  0.2436 -0.3594  0.6496
 3612SOL    HW111032   1.588   1.158   3.085 -0.2300 -0.2416  0.4596
 3612SOL    HW211033   1.632   1.244   2.969 -1.0861 -0.3995  0.0136
 3613SOL     OW11034   4.545   3.675   1.858  0.0574 -0.2972 -0.5477
 3613SOL    HW111035   4.584   3.623   1.788  2.3937 -2.1909  1.9275
 3613SOL    HW211036   4.601   3.753   1.864  0.8591 -0.9179  0.2108
 3614SOL     OW11037   2.630   2.760   1.105  0.2214 -0.0938 -0.1669
 3614SOL    HW111038   2.649   2.815   1.181 -0.5773 -0.1747  0.0973
 3614SOL    HW211039   2.648   2.671   1.135 -0.5676 -0.1729  0.0918
 3615SOL     OW11040   1.210   1.507   3.612  0.4199 -0.3945 -0.1186
 3615SOL    HW111041   1.243   1.545   3.693 -0.8869  2.4110 -0.7881
 3615SOL    HW211042   1.152   1.437   3.640  0.7990 -0.1674  1.3152
 3616SOL     OW11043   4.048   0.020   2.173  0.2047  0.2284  0.0429
 3616SOL    HW111044   3.959  -0.002   2.146  0.2363  0.0687  0.0646
 3616SOL    HW211045   4.101   0.008   2.094  0.5038 -1.4646  0.4572
 3617SOL     OW11046   0.849   4.748   1.470 -0.0302  0.2857 -0.1233
 3617SOL    HW111047   0.862   4.830   1.423  1.5547  0.6460  0.8597
 3617SOL    HW211048   0.883   4.681   1.411  0.7204  0.5852 -0.0389
 3618SOL     OW11049   1.384   3.631   2.018 -0.4745  1.0551  0.1110
 3618SOL    HW111050   1.475   3.649   2.041  0.6302 -2.4340 -0.8622
 3618SOL    HW211051   1.381   3.641   1.923 -1.4983  2.3735  0.2536
 3619SOL     OW11052   2.102   3.279   2.287  0.2964 -0.8304 -0.1906
 3619SOL    HW111053   2.065   3.304   2.202  0.8214  0.1107 -0.1570
 3619SOL    HW211054   2.028   3.282   2.347  0.3181  0.7114 -0.1928
 3620SOL     OW11055   1.659   3.008   1.036 -0.0429  0.1507  0.0553
 3620SOL    HW111056   1.630   2.971   1.119  1.2526  0.0776  0.4977
 3620SOL    HW211057   1.578   3.025   0.988 -0.7441 -2.0141  0.3595
 3621SOL     OW11058   3.645   0.449   2.727 -0.6938  0.1906 -0.0056
 3621SOL    HW111059   3.696   0.497   2.661 -0.7593 -1.4690 -1.3201
 3621SOL    HW211060   3.702   0.377   2.753 -2.0011 -1.2061 -0.8700
 3622SOL     OW11061   2.724   2.416   0.197 -0.5989 -0.2880  0.3835
 3622SOL    HW111062   2.700   2.475   0.126  1.5621  0.9901  0.6332
 3622SOL    HW211063   2.721   2.328   0.157  0.1888  0.3629 -1.1829
 3623SOL     OW11064   0.585   4.601   0.159 -0.6759 -0.2929  0.0660
 3623SOL    HW111065   0.508   4.583   0.104 -0.5907 -2.2094  0.5199
 3623SOL    HW211066   0.565   4.560   0.243  1.5769 -2.5391 -0.3790
 3624SOL     OW11067   3.203   1.759   0.757  0.3175 -0.2949 -0.4071
 3624SOL    HW111068   3.157   1.843   0.755  1.3336  0.4189  2.0412
 3624SOL    HW211069   3.265   1.764   0.684  1.9475  2.1394  1.0015
 3625SOL     OW11070   4.736   1.480   3.962 -0.0309  0.1398  0.4858
 3625SOL    HW111071   4.702   1.495   3.874  1.0234  0.6324  0.1369
 3625SOL    HW211072   4.790   1.402   3.954 -0.7692 -0.4323  0.9496
 3626SOL     OW11073   1.307   4.385   4.828  0.4005  0.6234 -0.0693
 3626SOL    HW111074   1.324   4.417   4.917  0.3289 -0.9167  0.5348
 3626SOL    HW211075   1.224   4.338   4.835 -0.4295  1.8546 -1.3406
 3627SOL     OW11076   1.587   4.161   1.132 -0.2135 -0.1470  0.1282
 3627SOL    HW111077   1.677   4.133   1.119 -0.4873 -1.0808  0.2018
 3627SOL    HW211078   1.561   4.122   1.215 -1.1534 -1.1127 -0.5946
 3628SOL     OW11079   0.837   3.545   3.160 -0.1123 -0.5484  0.2430
 3628SOL    HW111080   0.816   3.494   3.082  1.2530 -1.8490  0.6728
 3628SOL    HW211081   0.931   3.563   3.152 -0.0656 -0.2575  1.3228
 3629SOL     OW11082   3.709   4.674   1.361 -0.5816 -0.6649 -0.2782
 3629SOL    HW111083   3.653   4.608   1.319 -1.0409 -1.0939  0.9453
 3629SOL    HW211084   3.752   4.626   1.432  0.3594 -0.0274 -0.4121
 3630SOL     OW11085   0.451   3.467   4.635 -0.0653 -0.1680  0.5767
 3630SOL    HW111086   0.368   3.472   4.682  0.3981 -1.0309  1.5365
 3630SOL    HW211087   0.515   3.507   4.694  0.5594 -1.4372  0.8018
 3631SOL     OW11088   3.801   1.394   2.771  0.2035 -0.0878  0.0805
 3631SOL    HW111089   3.838   1.453   2.705 -1.0661  0.6803  0.0202
 3631SOL    HW211090   3.831   1.430   2.855  0.2805  0.0448 -0.0035
 3632SOL     OW11091   3.995   3.509   3.860  0.7726  0.0686 -0.4910
 3632SOL    HW111092   3.932   3.580   3.848  0.2236 -0.4761 -0.9076
 3632SOL    HW211093   3.960   3.437   3.808  1.5840 -0.3486 -0.4761
 3633SOL     OW11094   1.010   4.706   2.943  0.2213  0.2120 -0.1442
 3633SOL    HW111095   1.100   4.716   2.911  0.8652  1.9750  1.9879
 3633SOL    HW211096   1.016   4.721   3.037 -2.0664 -1.4668  0.3743
 3634SOL     OW11097   4.108   3.403   2.920 -0.1647  0.2216  0.8488
 3634SOL    HW111098   4.058   3.402   3.002 -1.0426 -0.9884  0.3441
 3634SOL    HW211099   4.067   3.473   2.868  1.1804  1.8178  1.8632
 3635SOL     OW11100   3.757   1.133   3.070  0.0969  0.1738  0.5793
 3635SOL    HW111101   3.696   1.195   3.030 -1.1187 -0.5353  1.2517
 3635SOL    HW211102   3.740   1.050   3.024  1.0445  0.1156  0.3188
 3636SOL     OW11103   4.697   2.770   2.355  0.5850 -0.1176  0.2517
 3636SOL    HW111104   4.714   2.681   2.385 -2.5905 -0.3012  1.9659
 3636SOL    HW211105   4.658   2.759   2.268 -3.0109 -0.9043  1.7571
 3637SOL     OW11106   2.920   0.551   3.493 -0.2221  0.1908 -0.1826
 3637SOL    HW111107   2.949   0.598   3.415  0.9253 -0.1059  0.0466
 3637SOL    HW211108   2.950   0.605   3.566 -1.6684  0.6858  0.0671
 3638SOL     OW11109   2.535   1.709   1.443  0.0192 -0.5303 -0.3235
 3638SOL    HW111110   2.536   1.657   1.362  2.7920 -0.5576 -0.3769
 3638SOL    HW211111   2.610   1.769   1.433 -1.1173  1.2292  1.1576
 3639SOL     OW11112   3.283   1.179   2.370 -0.1438  0.4533  0.0725
 3639SOL    HW111113   3.233   1.233   2.309 -0.7649  1.4040  1.3717
 3639SOL    HW211114   3.217   1.137   2.424  0.3043 -1.8987 -1.0668
 3640SOL     OW11115   0.680   4.881   1.077  0.0505  0.0136 -0.9075
 3640SOL    HW111116   0.724   4.796   1.077 -0.4705 -0.3025 -2.4248
 3640SOL    HW211117   0.590   4.863   1.106  0.5903  0.4906  1.2018
 3641SOL     OW11118   1.405   4.488   0.117  0.4091 -0.2530  0.3498
 3641SOL    HW111119   1.402   4.421   0.186  1.1398 -0.2949  0.3438
 3641SOL    HW211120   1.472   4.550   0.146 -0.1311  0.3861  0.2622
 3642SOL     OW11121   1.331   3.709   3.085  0.3826  0.3637  0.4219
 3642SOL    HW111122   1.287   3.769   3.025 -0.0768  1.0407  1.4021
 3642SOL    HW211123   1.262   3.678   3.144  1.4132  3.1070  3.3731
 3643SOL     OW11124   4.909   4.415   2.865  0.1053 -0.6347  0.1144
 3643SOL    HW111125   4.915   4.405   2.770 -1.9536  0.9159 -0.2705
 3643SOL    HW211126   4.926   4.508   2.880 -0.7480 -0.6125  1.0898
 3644SOL     OW11127   2.010   0.508   1.967 -0.8068  0.3187 -0.1061
 3644SOL    HW111128   2.100   0.484   1.985 -0.8310 -0.1026 -0.5258
 3644SOL    HW211129   1.960   0.428   1.985 -0.9332  0.1462 -1.1690
 3645SOL     OW11130   2.324   4.102   2.279 -0.0767  0.3373 -0.4861
 3645SOL    HW111131   2.354   4.139   2.196  0.9870 -1.6038 -1.0471
 3645SOL    HW211132   2.272   4.025   2.253 -1.1899  0.6797  0.6312
 3646SOL     OW11133   4.757   4.375   0.033  0.1192 -0.0988 -0.5702
 3646SOL    HW111134   4.683   4.405  -0.020  0.5282  0.0804 -1.0361
 3646SOL    HW211135   4.792   4.456   0.072  0.5483 -0.0911 -0.9661
 3647SOL     OW11136   4.741   0.957   4.403 -0.1612  0.2759  0.0466
 3647SOL    HW111137   4.806   1.016   4.367 -1.6010  1.6384 -0.4213
 3647SOL    HW211138   4.665   0.965   4.344 -0.9443 -0.8665  0.8450
 3648SOL     OW11139   2.312   1.835   1.554  0.2050 -0.2733  0.0845
 3648SOL    HW111140   2.387   1.810   1.501  0.9782  0.7868  0.6331
 3648SOL    HW211141   2.238   1.835   1.493  1.2705  2.1457 -1.3866
 3649SOL     OW11142   4.215   0.968   4.122  0.1946  0.0778 -0.4924
 3649SOL    HW111143   4.254   0.893   4.077  0.6331 -0.9921  1.5506
 3649SOL    HW211144   4.120   0.957   4.108  0.3899  1.1359 -3.1159
 3650SOL     OW11145   0.550   1.855   2.760 -0.3169  0.5402  0.5579
 3650SOL    HW111146   0.637   1.819   2.743 -0.5253  1.0710 -1.9484
 3650SOL    HW211147   0.562   1.910   2.837  1.1277 -0.7981  1.3569
 3651SOL     OW11148   1.781   0.265   2.280 -0.0200 -0.1764 -0.8484
 3651SOL    HW111149   1.875   0.273   2.266 -0.1236  2.1916 -0.5411
 3651SOL    HW211150   1.742   0.291   2.197 -0.4064  1.0084 -0.3175
 3652SOL     OW11151   0.661   2.525   0.255 -0.8242 -0.4473 -0.2407
 3652SOL    HW111152   0.647   2.497   0.165 -2.8771  2.0330 -0.8230
 3652SOL    HW211153   0.724   2.597   0.249  0.8428 -1.7450  0.6603
 3653SOL     OW11154   3.626   1.415   0.550 -0.1661  0.3451 -0.4364
 3653SOL    HW111155   3.713   1.455   0.553 -0.5523  1.4922 -2.5891
 3653SOL    HW211156   3.581   1.451   0.626  0.5474  1.5293 -0.5416
 3654SOL     OW11157   2.986   0.359   4.879  0.3780  0.2347 -0.6597
 3654SOL    HW111158   3.037   0.301   4.822  1.7477  0.7536  0.0168
 3654SOL    HW211159   3.037   0.439   4.885  0.6208 -0.0344  1.8346
 3655SOL     OW11160   4.124   1.490   2.385 -0.2639  0.3880  0.2563
 3655SOL    HW111161   4.048   1.481   2.328 -0.5498 -2.0802  0.8884
 3655SOL    HW211162   4.089   1.478   2.473  0.7908 -0.4723  0.5790
 3656SOL     OW11163   2.071   4.003   3.375  0.2428  0.0542 -0.2162
 3656SOL    HW111164   2.103   3.925   3.420  2.3696  1.5128  0.9774
 3656SOL    HW211165   2.112   4.000   3.289  1.0005  0.2345  0.1263
 3657SOL     OW11166   2.981   4.641   0.427 -0.1434  0.2034  0.5533
 3657SOL    HW111167   2.947   4.680   0.346  0.0481 -0.4918  0.1293
 3657SOL    HW211168   2.933   4.687   0.497 -0.0147  1.0960  0.0730
 3658SOL     OW11169   3.831   0.472   0.010 -0.0096 -0.0356  0.1314
 3658SOL    HW111170   3.839   0.479  -0.085 -2.6939  0.8177 -0.1325
 3658SOL    HW211171   3.794   0.385   0.025 -0.6459  0.2568  0.2863
 3659SOL     OW11172   3.081   3.499   2.997 -0.5091  0.4256 -0.0693
 3659SOL    HW111173   3.002   3.551   3.015 -0.0739  1.0711  0.0139
 3659SOL    HW211174   3.153   3.553   3.030  0.1623  0.8331 -2.0528
 3660SOL     OW11175   3.920   1.474   1.440 -0.8384 -0.5475  0.0756
 3660SOL    HW111176   3.991   1.533   1.466 -1.4944 -0.3993  1.6091
 3660SOL    HW211177   3.840   1.522   1.461 -1.3827 -1.7370  0.7804
 3661SOL     OW11178   0.509   2.692   4.335 -0.8270 -0.0221  0.4343
 3661SOL    HW111179   0.512   2.659   4.425 -0.7467  0.3426  0.5657
 3661SOL    HW211180   0.595   2.732   4.321 -0.9161  0.1109  0.2650
 3662SOL     OW11181   2.336   0.583   1.798 -0.4441  0.5573 -0.0590
 3662SOL    HW111182   2.372   0.658   1.750 -0.9943  1.4110  0.8271
 3662SOL    HW211183   2.241   0.591   1.787 -0.5512  0.5111  0.7946
 3663SOL     OW11184   0.231   0.912   3.388  0.0252 -0.0997  0.2434
 3663SOL    HW111185   0.219   0.830   3.340  0.2590  0.9280 -1.6829
 3663SOL    HW211186   0.325   0.923   3.396  0.0268  0.5290 -0.5368
 3664SOL     OW11187   2.568   3.140   1.082  0.0337  0.2289  0.0189
 3664SOL    HW111188   2.619   3.139   1.001 -0.4830  3.5769 -0.4850
 3664SOL    HW211189   2.495   3.080   1.065  1.7154 -1.7392 -0.6257
 3665SOL     OW11190   3.557   0.874   1.382 -0.2970 -0.6748  0.3441
 3665SOL    HW111191   3.562   0.783   1.411  0.0758 -1.1222 -1.0230
 3665SOL    HW211192   3.531   0.923   1.460 -0.2612 -1.9141  1.1649
 3666SOL     OW11193   4.676   3.976   3.566  0.7396  0.2265 -0.4675
 3666SOL    HW111194   4.740   4.023   3.512  1.4217  1.2977  1.1944
 3666SOL    HW211195   4.591   4.010   3.539  0.7839 -1.2719 -2.7628
 3667SOL     OW11196   2.302   0.867   1.301 -0.5272  0.1347  0.0768
 3667SOL    HW111197   2.261   0.782   1.320 -1.0700  0.3584 -0.0816
 3667SOL    HW211198   2.228   0.926   1.284 -0.1444  0.5932 -0.0021
 3668SOL     OW11199   1.066   3.209   4.266  0.1507 -0.5262  0.5311
 3668SOL    HW111200   1.103   3.241   4.184  0.0793 -1.3880  0.1534
 3668SOL    HW211201   1.019   3.129   4.242 -1.2634  0.0847  1.1345
 3669SOL     OW11202   1.993   2.555   0.653 -0.1663 -0.0659  0.2518
 3669SOL    HW111203   2.020   2.467   0.681 -0.5940 -0.4176 -0.4100
 3669SOL    HW211204   1.910   2.570   0.699 -0.1760 -0.0788  0.2387
 3670SOL     OW11205   1.414   0.631   2.237 -0.1991  0.2197  0.0457
 3670SOL    HW111206   1.365   0.549   2.243  1.4836 -0.9549 -1.3165
 3670SOL    HW211207   1.384   0.671   2.156 -1.7140  1.5018  1.1737
 3671SOL     OW11208   2.907   3.852   0.905 -0.1437 -0.8912 -0.0714
 3671SOL    HW111209   2.975   3.914   0.878 -0.6976 -0.4242 -0.4191
 3671SOL    HW211210   2.950   3.767   0.903 -0.3219 -1.0421 -3.2734
 3672SOL     OW11211   1.450   2.599   1.736  0.5656 -0.6070  0.5386
 3672SOL    HW111212   1.538   2.584   1.702  0.8466 -0.8574  1.3553
 3672SOL    HW211213   1.464   2.645   1.818 -0.1705  1.8503 -0.6166
 3673SOL     OW11214   1.273   1.618   3.853  0.0833 -0.1296 -0.4599
 3673SOL    HW111215   1.309   1.584   3.935  1.2122  0.1341 -0.8260
 3673SOL    HW211216   1.222   1.695   3.879 -0.1888 -0.4799  0.0679
 3674SOL     OW11217   2.484   0.423   2.004 -0.3219 -0.2117  0.3173
 3674SOL    HW111218   2.454   0.332   2.005  0.8475 -0.6109  0.4222
 3674SOL    HW211219   2.415   0.471   1.958 -2.3235 -0.6451  2.6497
 3675SOL     OW11220   0.302   2.661   2.888  0.3383  0.1041  0.0228
 3675SOL    HW111221   0.211   2.663   2.858  0.5256  0.4819 -0.5177
 3675SOL    HW211222   0.297   2.680   2.982 -0.1420  0.0944 -0.0006
 3676SOL     OW11223   0.228   2.306   3.828  0.0018 -0.7892 -0.0889
 3676SOL    HW111224   0.272   2.374   3.777 -0.4451 -0.3638  0.0869
 3676SOL    HW211225   0.210   2.237   3.764  0.6798 -0.8580 -0.2191
 3677SOL     OW11226   1.722   1.401   0.023  0.2353 -0.3751  0.1732
 3677SOL    HW111227   1.695   1.321  -0.022 -0.8816 -0.4553  0.9253
 3677SOL    HW211228   1.742   1.463  -0.047 -1.1405 -0.5969 -0.4510
 3678SOL     OW11229   2.707   2.170   0.107 -0.8780 -0.3907 -0.1512
 3678SOL    HW111230   2.679   2.092   0.155 -0.7630  0.8129  2.0086
 3678SOL    HW211231   2.803   2.163   0.105 -0.7607  0.3627  1.3589
 3679SOL     OW11232   1.814   1.484   2.439 -0.0227 -0.1041 -0.4264
 3679SOL    HW111233   1.814   1.568   2.394 -1.4233  0.4274  0.4850
 3679SOL    HW211234   1.902   1.475   2.474 -0.3839  2.0478  1.2998
 3680SOL     OW11235   0.421   4.578   4.460  0.2092  0.1966 -0.1544
 3680SOL    HW111236   0.352   4.525   4.420 -0.7665  1.1138  0.2510
 3680SOL    HW211237   0.373   4.649   4.504  1.4575  1.4333 -0.7382
 3681SOL     OW11238   1.997   3.996   2.894 -0.2342  0.7603  0.2248
 3681SOL    HW111239   1.993   4.037   2.808 -2.0389 -0.2697 -0.2349
 3681SOL    HW211240   1.999   3.902   2.876  2.6311  0.5012  1.2806
 3682SOL     OW11241   1.878   2.338   2.697 -0.2480 -0.1350 -0.5660
 3682SOL    HW111242   1.925   2.413   2.660 -0.7557  1.0423  1.0511
 3682SOL    HW211243   1.910   2.332   2.788  0.5217 -2.5352 -0.9121
 3683SOL     OW11244   2.131   4.168   1.907 -0.4099  0.3519  0.1923
 3683SOL    HW111245   2.048   4.170   1.954 -0.7901 -0.5603 -0.4179
 3683SOL    HW211246   2.110   4.195   1.818 -0.2406 -0.7713 -0.2121
 3684SOL     OW11247   0.591   0.726   0.495 -0.3102  0.2908  0.4573
 3684SOL    HW111248   0.625   0.684   0.574  0.7681 -0.2809 -0.2823
 3684SOL    HW211249   0.568   0.653   0.437  0.8746  0.7009 -0.5539
 3685SOL     OW11250   3.869   2.683   2.085  0.0602 -0.3397  0.0033
 3685SOL    HW111251   3.794   2.741   2.097  0.3180  0.0564 -0.2724
 3685SOL    HW211252   3.906   2.709   2.001 -1.1625 -2.4133 -1.2828
 3686SOL     OW11253   3.382   0.264   2.111  0.2225 -0.2283 -0.2742
 3686SOL    HW111254   3.338   0.249   2.027 -0.8884 -0.0385  0.2638
 3686SOL    HW211255   3.337   0.339   2.149  0.7886 -0.2476  0.4460
 3687SOL     OW11256   1.392   3.572   2.756 -0.2814  1.0952  0.0693
 3687SOL    HW111257   1.435   3.508   2.700  1.8861  1.7435  0.8919
 3687SOL    HW211258   1.298   3.556   2.743  0.1717 -1.4626 -0.6026
 3688SOL     OW11259   4.629   2.727   2.096  0.3218  0.1341 -0.3166
 3688SOL    HW111260   4.682   2.686   2.028 -1.2036 -2.9101  0.1560
 3688SOL    HW211261   4.561   2.775   2.048 -0.3500 -1.4322 -1.0078
 3689SOL     OW11262   2.796   1.945   4.268  0.5345  0.2452  0.0472
 3689SOL    HW111263   2.744   2.006   4.216  1.5519  1.8904  0.8806
 3689SOL    HW211264   2.886   1.976   4.260  1.1098 -1.2259  0.4143
 3690SOL     OW11265   0.946   2.057   1.095  0.1223  0.6184  0.4476
 3690SOL    HW111266   0.944   2.096   1.182 -1.4407 -0.1869  0.8041
 3690SOL    HW211267   0.860   2.075   1.058  1.1852  2.1001 -1.4976
 3691SOL     OW11268   3.359   2.803   0.529  0.3583 -0.4860  0.2055
 3691SOL    HW111269   3.344   2.897   0.534  3.3998  0.0473  2.3339
 3691SOL    HW211270   3.401   2.789   0.444  1.1704  0.3403  0.4596
 3692SOL     OW11271   2.054   2.204   3.819  0.1658  0.0467 -0.1637
 3692SOL    HW111272   2.006   2.287   3.823  0.6069  0.3700 -1.1132
 3692SOL    HW211273   2.053   2.171   3.908 -0.9154  0.5651  0.0336
 3693SOL     OW11274   1.121   1.578   4.327 -0.0450 -0.1120 -0.2987
 3693SOL    HW111275   1.097   1.573   4.419 -0.8844 -1.7436 -0.5793
 3693SOL    HW211276   1.041   1.607   4.282 -0.1746 -1.0545 -0.7018
 3694SOL     OW11277   2.786   4.679   1.709 -0.0974 -0.5204  0.5691
 3694SOL    HW111278   2.743   4.759   1.678 -1.6487 -1.1541  0.9639
 3694SOL    HW211279   2.837   4.649   1.634 -1.5823 -0.5348 -0.4769
 3695SOL     OW11280   2.303   3.446   0.345 -0.1421  0.1108 -0.0801
 3695SOL    HW111281   2.378   3.500   0.319  0.7086 -0.4371  1.1268
 3695SOL    HW211282   2.303   3.450   0.441 -0.0159 -2.0445  0.0527
 3696SOL     OW11283   0.203   0.613   0.140  0.4013  0.0981 -0.3954
 3696SOL    HW111284   0.228   0.668   0.214  3.7288 -0.1222 -1.1915
 3696SOL    HW211285   0.119   0.647   0.112  0.7244  2.4995  1.2617
 3697SOL     OW11286   2.488   1.448   0.712  0.0567 -0.4014 -0.0626
 3697SOL    HW111287   2.577   1.413   0.718  0.8216  1.4721  0.1058
 3697SOL    HW211288   2.482   1.486   0.624 -0.1574  0.5328  0.3419
 3698SOL     OW11289   4.844   3.604   1.462  0.1083  0.0448  0.3859
 3698SOL    HW111290   4.856   3.537   1.394  0.8150  0.2163  0.3432
 3698SOL    HW211291   4.749   3.604   1.478  0.0903 -0.9164  0.3428
 3699SOL     OW11292   1.707   3.142   2.252 -0.7082  0.1514  0.1097
 3699SOL    HW111293   1.655   3.108   2.179 -0.5116  0.6028 -0.2461
 3699SOL    HW211294   1.776   3.076   2.264  0.3553  0.9282 -1.3328
 3700SOL     OW11295   1.147   1.415   2.580 -0.2032  0.0895 -0.4375
 3700SOL    HW111296   1.095   1.392   2.504 -3.2335  0.4680  1.3722
 3700SOL    HW211297   1.085   1.451   2.643  2.2178  0.3602  2.0318
 3701SOL     OW11298   3.542   4.269   4.920  0.0348 -0.6922  0.3947
 3701SOL    HW111299   3.530   4.363   4.912  1.5576 -0.5567 -0.8150
 3701SOL    HW211300   3.455   4.235   4.938 -0.3987  1.0102  1.7699
 3702SOL     OW11301   4.648   0.146   2.723 -0.0993  0.0536  0.2843
 3702SOL    HW111302   4.610   0.190   2.647  0.3477 -0.0208  0.0159
 3702SOL    HW211303   4.741   0.139   2.703 -0.4386 -3.0676 -0.7727
 3703SOL     OW11304   4.026   4.721   2.940  0.4139  0.1756  0.8000
 3703SOL    HW111305   4.065   4.803   2.909  0.6537 -0.5358 -0.8893
 3703SOL    HW211306   4.043   4.721   3.034  2.0161  1.2123  0.5591
 3704SOL     OW11307   1.139   2.156   3.967 -0.3562 -0.3378  0.2454
 3704SOL    HW111308   1.128   2.251   3.960  1.2483 -0.1091  0.5269
 3704SOL    HW211309   1.178   2.142   4.054 -0.3297 -1.2303  0.1060
 3705SOL     OW11310   3.862   3.024   4.467 -0.3745 -0.2537  0.4138
 3705SOL    HW111311   3.836   2.969   4.541 -1.0177  1.5987  1.6294
 3705SOL    HW211312   3.909   3.097   4.506 -1.6844  1.3454 -0.8395
 3706SOL     OW11313   3.619   3.089   1.756 -0.6613  0.4695  0.3854
 3706SOL    HW111314   3.714   3.099   1.748 -0.6905 -0.0956 -0.7552
 3706SOL    HW211315   3.606   3.065   1.848  0.2702  0.8420  0.6270
 3707SOL     OW11316   4.338   4.538   0.155 -0.1236  0.2564  0.3571
 3707SOL    HW111317   4.283   4.510   0.229 -1.4202 -0.9285 -0.9805
 3707SOL    HW211318   4.393   4.461   0.136 -1.6434 -0.4570 -1.4963
 3708SOL     OW11319   1.963   4.766   3.066 -0.3642 -0.1529  0.3525
 3708SOL    HW111320   1.985   4.859   3.053 -1.4648  0.2723  1.3488
 3708SOL    HW211321   1.954   4.731   2.977 -0.5772  0.8564 -0.0356
 3709SOL     OW11322   1.262   0.799   2.744  0.2209 -0.3093 -0.3472
 3709SOL    HW111323   1.321   0.872   2.760 -0.7695  0.1047  1.8468
 3709SOL    HW211324   1.307   0.723   2.781  0.9184 -0.6967 -1.9418
 3710SOL     OW11325   1.986   3.383   2.781  0.2147 -0.5628 -0.2228
 3710SOL    HW111326   1.923   3.408   2.849 -0.5451 -1.0978 -0.7196
 3710SOL    HW211327   2.072   3.396   2.822 -0.2104  0.1548  0.4723
 3711SOL     OW11328   2.386   1.883   0.568 -0.2812  0.4910  0.3655
 3711SOL    HW111329   2.361   1.938   0.641  1.5945 -1.0070  2.2734
 3711SOL    HW211330   2.338   1.801   0.581  0.2069  0.1437  0.0476
 3712SOL     OW11331   4.235   1.336   3.521 -0.6330 -0.2994 -0.3540
 3712SOL    HW111332   4.243   1.310   3.430 -0.3637 -2.0295  0.1311
 3712SOL    HW211333   4.142   1.353   3.534 -0.4747  1.4335 -1.3052
 3713SOL     OW11334   4.058   2.675   2.776  0.2485 -0.7461  0.5271
 3713SOL    HW111335   4.136   2.632   2.811  1.0522  0.6783  0.5664
 3713SOL    HW211336   4.092   2.737   2.711 -0.8108  0.1807  0.8265
 3714SOL     OW11337   4.867   2.923   4.691  0.1143 -0.1037  0.1028
 3714SOL    HW111338   4.843   3.008   4.727 -1.5605 -0.6822  0.4558
 3714SOL    HW211339   4.867   2.936   4.596  3.8025  1.2363  0.1089
 3715SOL     OW11340   1.907   2.243   2.964 -0.0656  0.7327  0.3792
 3715SOL    HW111341   1.880   2.248   3.056  0.0924  1.5310  0.3907
 3715SOL    HW211342   1.879   2.156   2.935 -0.1727  0.5000  1.1642
 3716SOL     OW11343   2.129   1.883   3.951  0.0341 -0.5901  0.3345
 3716SOL    HW111344   2.172   1.958   3.992  1.3218 -0.9051 -0.4108
 3716SOL    HW211345   2.140   1.897   3.857 -0.9330 -1.0199  0.1459
 3717SOL     OW11346   1.871   0.290   3.817 -0.1586 -0.6056  0.1325
 3717SOL    HW111347   1.907   0.238   3.744  1.0332  0.1462  0.1676
 3717SOL    HW211348   1.881   0.233   3.893  0.7208 -0.5333  0.0895
 3718SOL     OW11349   2.574   2.605   2.859 -0.6677 -0.3071 -0.1426
 3718SOL    HW111350   2.513   2.638   2.793 -0.7577  1.0169  0.5782
 3718SOL    HW211351   2.625   2.681   2.885  0.2747 -1.0899  0.3593
 3719SOL     OW11352   4.703   4.368   2.295  0.3069  0.3304  0.3906
 3719SOL    HW111353   4.735   4.302   2.234 -0.6947  0.3814 -0.2098
 3719SOL    HW211354   4.672   4.319   2.371  0.3930  0.1749  0.3247
 3720SOL     OW11355   0.075   0.376   2.377  0.0167  0.6959 -0.6402
 3720SOL    HW111356   0.166   0.360   2.403  0.3862  0.1927 -2.1218
 3720SOL    HW211357   0.043   0.443   2.438  0.9380 -0.0957  0.7636
 3721SOL     OW11358   0.541   1.055   0.500  0.1655 -0.2087 -0.1037
 3721SOL    HW111359   0.579   1.013   0.423 -0.4068 -0.2446 -0.3743
 3721SOL    HW211360   0.511   1.141   0.467  3.4453  1.4897  0.9346
 3722SOL     OW11361   0.980   3.130   2.345 -0.2068  0.1668  0.0859
 3722SOL    HW111362   0.997   3.161   2.256  0.6135  0.3468  0.2981
 3722SOL    HW211363   0.975   3.210   2.398  1.6103 -0.0228  0.5872
 3723SOL     OW11364   3.026   1.805   1.033  0.5540  0.5118 -0.0699
 3723SOL    HW111365   3.057   1.728   0.985  2.5036  0.8359  0.5794
 3723SOL    HW211366   2.962   1.845   0.975  0.6748 -0.7265 -1.1063
 3724SOL     OW11367   3.792   3.979   3.976  0.3469  0.7574 -0.3138
 3724SOL    HW111368   3.760   4.061   3.938  0.0987  1.9283  2.2275
 3724SOL    HW211369   3.731   3.960   4.047  2.0629 -0.0313  1.0101
 3725SOL     OW11370   4.557   3.374   1.619 -0.4073  0.0627  0.1918
 3725SOL    HW111371   4.598   3.339   1.540  0.3975  1.6412 -0.1148
 3725SOL    HW211372   4.476   3.324   1.628  1.1668 -2.7016  0.4290
 3726SOL     OW11373   4.850   2.653   0.768  0.4888  0.3923 -0.2719
 3726SOL    HW111374   4.930   2.611   0.738  0.2540 -0.1292 -0.1889
 3726SOL    HW211375   4.784   2.630   0.702  0.6654  1.8074 -0.9751
 3727SOL     OW11376   0.810   2.687   4.041  0.0174  0.1277 -0.0241
 3727SOL    HW111377   0.716   2.675   4.023  0.1129 -2.9665  0.9631
 3727SOL    HW211378   0.837   2.606   4.084  3.2585  0.7608 -0.5854
 3728SOL     OW11379   0.193   2.459   0.572  0.5409  0.5437  0.1704
 3728SOL    HW111380   0.213   2.381   0.623  1.5851  1.9566  2.0988
 3728SOL    HW211381   0.114   2.437   0.522  1.6184 -2.1721 -0.4981
 3729SOL     OW11382   3.099   0.562   0.303  0.0239  0.3043  0.3918
 3729SOL    HW111383   3.088   0.657   0.312 -2.0516  0.3533 -1.6261
 3729SOL    HW211384   3.189   0.552   0.272  0.1466  1.6507  0.2220
 3730SOL     OW11385   1.325   0.984   3.954 -0.0015  0.4374 -0.3012
 3730SOL    HW111386   1.259   0.982   4.022  0.0246  0.7265 -0.2678
 3730SOL    HW211387   1.312   1.068   3.909  1.1666  1.0916  0.5247
 3731SOL     OW11388   2.916   0.794   4.707  0.1586  0.6685  0.3109
 3731SOL    HW111389   3.000   0.825   4.674  0.8600  0.1756  1.5992
 3731SOL    HW211390   2.907   0.705   4.673  0.7091  0.2965  1.1166
 3732SOL     OW11391   2.466   4.551   0.221 -0.3212  0.3830 -0.1211
 3732SOL    HW111392   2.536   4.504   0.267 -1.9401 -1.1824  0.8688
 3732SOL    HW211393   2.472   4.520   0.130  0.1354  0.1060 -0.0001
 3733SOL     OW11394   3.408   4.757   0.124 -0.0936 -0.0945  0.4294
 3733SOL    HW111395   3.341   4.804   0.174  2.0028  0.3818  3.0374
 3733SOL    HW211396   3.457   4.827   0.079 -0.0605 -0.2430  0.2351
 3734SOL     OW11397   2.946   2.548   1.723  0.6229  0.0452 -0.3402
 3734SOL    HW111398   2.953   2.585   1.635  4.8143  0.4372 -0.0383
 3734SOL    HW211399   2.936   2.624   1.780  0.8013  0.0288 -0.2871
 3735SOL     OW11400   3.722   0.611   3.336 -0.1389  0.3716  0.4724
 3735SOL    HW111401   3.688   0.699   3.352 -0.3999  0.4316 -0.3807
 3735SOL    HW211402   3.645   0.561   3.306  0.6156  0.6886 -2.2152
 3736SOL     OW11403   1.720   2.496   3.505  0.5232  0.3036 -0.6682
 3736SOL    HW111404   1.759   2.482   3.591  1.2071 -0.2142 -1.0554
 3736SOL    HW211405   1.693   2.588   3.505 -3.1360 -0.5708  1.5782
 3737SOL     OW11406   3.171   3.331   0.924 -0.4571 -0.1551  0.2028
 3737SOL    HW111407   3.109   3.327   0.851  0.5004 -1.0980 -0.6078
 3737SOL    HW211408   3.237   3.265   0.902 -1.0063 -1.7121  2.7440
 3738SOL     OW11409   1.674   2.095   4.533  0.2457  0.1848  0.3373
 3738SOL    HW111410   1.594   2.066   4.489  0.5196  0.4415 -0.3414
 3738SOL    HW211411   1.644   2.150   4.605 -0.2255 -0.5437  0.7082
 3739SOL     OW11412   2.050   4.579   4.027 -0.3731  0.0525 -0.2560
 3739SOL    HW111413   2.053   4.549   4.118  1.6475  1.0076  0.0337
 3739SOL    HW211414   1.956   4.584   4.007 -0.8410 -1.2279  1.3972
 3740SOL     OW11415   2.569   2.232   2.099  0.1133  0.3427 -0.0084
 3740SOL    HW111416   2.648   2.190   2.132 -0.3013  0.5808  1.3475
 3740SOL    HW211417   2.547   2.183   2.019  1.2365 -0.1576 -0.0235
 3741SOL     OW11418   2.978   4.728   4.491 -0.1892  0.3938 -0.3292
 3741SOL    HW111419   2.882   4.726   4.493 -0.1830 -0.4524 -0.2793
 3741SOL    HW211420   3.004   4.636   4.503  0.5839  0.3102 -2.2416
 3742SOL     OW11421   1.067   3.244   1.637  0.1084  0.2634  0.0621
 3742SOL    HW111422   1.067   3.291   1.554  1.1382 -1.3838 -0.9134
 3742SOL    HW211423   0.985   3.195   1.637  1.2349 -1.7427 -1.2302
 3743SOL     OW11424   0.142   1.529   2.553 -0.2725  0.5190 -0.4777
 3743SOL    HW111425   0.219   1.487   2.513  0.8891 -0.0566  2.1072
 3743SOL    HW211426   0.068   1.501   2.499  1.2502  0.8802 -2.9107
 3744SOL     OW11427   4.251   3.337   1.581  0.1173  0.7406 -0.3666
 3744SOL    HW111428   4.250   3.396   1.506  0.1719  0.9226 -0.2236
 3744SOL    HW211429   4.222   3.391   1.655  0.8027  0.7630 -0.1071
 3745SOL     OW11430   3.696   0.004   1.142 -0.1197 -0.2051 -0.5379
 3745SOL    HW111431   3.761  -0.012   1.073  0.5122  1.1344 -0.2828
 3745SOL    HW211432   3.615   0.021   1.094 -0.2410 -1.5459 -0.8640
 3746SOL     OW11433   1.147   1.858   3.930 -0.1514 -0.4574 -0.5319
 3746SOL    HW111434   1.199   1.937   3.915 -0.0736  0.0510  1.9701
 3746SOL    HW211435   1.067   1.872   3.879  0.5352  0.4877 -1.3925
 3747SOL     OW11436   2.667   2.586   4.025  0.5156 -0.2287  0.2030
 3747SOL    HW111437   2.610   2.663   4.027  0.5955 -0.1521 -0.3505
 3747SOL    HW211438   2.607   2.512   4.040  0.3182 -0.1218 -0.0465
 3748SOL     OW11439   0.600   1.890   1.499  0.0170  0.3369  0.3913
 3748SOL    HW111440   0.555   1.972   1.482  0.1410  1.1584  3.5430
 3748SOL    HW211441   0.564   1.829   1.433 -1.1493  2.4750 -1.0648
 3749SOL     OW11442   4.843   0.667   2.097 -0.4521  0.3642  0.2484
 3749SOL    HW111443   4.868   0.575   2.104  0.3948  0.6484  1.1056
 3749SOL    HW211444   4.755   0.665   2.058 -0.1560 -0.7700 -0.4011
 3750SOL     OW11445   1.048   0.832   1.721  0.2376  0.1015 -0.1262
 3750SOL    HW111446   1.039   0.892   1.795 -1.5487 -0.4719  0.1788
 3750SOL    HW211447   0.993   0.870   1.653 -0.0821 -0.6455 -0.2922
 3751SOL     OW11448   4.167   0.244   4.484  0.4550  0.2133  0.2304
 3751SOL    HW111449   4.164   0.311   4.552 -0.0793  1.6360 -1.1358
 3751SOL    HW211450   4.251   0.200   4.497  0.4141  0.5163  1.7138
 3752SOL     OW11451   4.304   2.373   4.781 -0.1348 -0.0645  0.0686
 3752SOL    HW111452   4.209   2.364   4.789  0.0260 -1.7162  0.5627
 3752SOL    HW211453   4.326   2.322   4.703  0.5242 -1.4046  1.0778
 3753SOL     OW11454   0.633   0.819   2.001  0.5125 -0.9085 -0.1577
 3753SOL    HW111455   0.549   0.855   1.973  1.1078  0.8416  0.2055
 3753SOL    HW211456   0.661   0.763   1.929  0.8419  1.5242 -2.0185
 3754SOL     OW11457   4.557   2.509   0.820  0.0670  0.1754 -0.1176
 3754SOL    HW111458   4.471   2.546   0.798 -0.4271 -1.2914 -0.8043
 3754SOL    HW211459   4.609   2.520   0.741  0.0748 -0.1460 -0.1571
 3755SOL     OW11460   2.102   3.245   4.425  0.4583  0.4680 -0.7507
 3755SOL    HW111461   2.104   3.177   4.357 -1.2211 -0.8273  0.3976
 3755SOL    HW211462   2.179   3.228   4.478 -0.2206 -0.9519 -0.1596
 3756SOL     OW11463   1.700   2.640   2.865 -0.1455  0.1599  0.3840
 3756SOL    HW111464   1.638   2.573   2.834  1.3720 -0.6027 -1.1708
 3756SOL    HW211465   1.676   2.718   2.815  0.2373 -0.1955 -0.3864
 3757SOL     OW11466   0.129   4.202   1.709  0.1639  0.5175 -0.2764
 3757SOL    HW111467   0.169   4.157   1.635 -0.6650  0.5013 -0.7310
 3757SOL    HW211468   0.200   4.213   1.772  0.4799 -1.0197 -0.3397
 3758SOL     OW11469   3.123   4.408   3.517  0.2308 -0.2263 -0.2356
 3758SOL    HW111470   3.079   4.443   3.439 -1.0408 -2.8079 -0.7786
 3758SOL    HW211471   3.052   4.377   3.573  1.2254 -0.4078  0.9710
 3759SOL     OW11472   0.204   3.010   1.708  0.6690 -0.4402  0.1523
 3759SOL    HW111473   0.184   2.937   1.768 -1.1219  0.1363  0.3304
 3759SOL    HW211474   0.262   3.067   1.758 -2.0707  0.8880  2.1381
 3760SOL     OW11475   2.573   4.562   4.498 -0.2154 -0.2946 -0.0699
 3760SOL    HW111476   2.606   4.646   4.465  0.4112  0.1621  1.6362
 3760SOL    HW211477   2.513   4.586   4.569 -0.4732 -1.2788  0.0568
 3761SOL     OW11478   0.514   2.370   1.738  0.5590  0.0305  0.4942
 3761SOL    HW111479   0.510   2.294   1.681 -1.1453  0.2060  0.3264
 3761SOL    HW211480   0.596   2.360   1.785  0.6514 -1.6046  0.0536
 3762SOL     OW11481   1.256   0.138   1.392 -0.1248 -0.3963  0.2938
 3762SOL    HW111482   1.222   0.108   1.308  1.9428 -1.1100 -0.3648
 3762SOL    HW211483   1.273   0.232   1.379  1.5880 -0.7851 -0.6687
 3763SOL     OW11484   3.893   1.139   2.743 -0.3872 -0.2034  0.3630
 3763SOL    HW111485   3.919   1.106   2.830  0.7950 -1.6114 -0.4819
 3763SOL    HW211486   3.866   1.229   2.759  0.0095 -0.3659  2.1708
 3764SOL     OW11487   3.445   2.180   3.683  0.1948  0.1009 -0.5538
 3764SOL    HW111488   3.513   2.160   3.748 -0.0552  0.1350 -0.2802
 3764SOL    HW211489   3.430   2.274   3.691 -1.3589 -0.2152  0.8583
 3765SOL     OW11490   1.884   0.876   3.045 -0.2572 -0.0962  0.1774
 3765SOL    HW111491   1.924   0.911   3.124  1.7183 -0.3780 -0.6367
 3765SOL    HW211492   1.901   0.942   2.978 -2.3824  0.3970  0.0557
 3766SOL     OW11493   0.509   0.903   2.619  0.1854  0.2342  0.0111
 3766SOL    HW111494   0.575   0.849   2.663  1.8620  1.6504 -0.6123
 3766SOL    HW211495   0.431   0.848   2.616  1.4369 -1.6834  0.4595
 3767SOL     OW11496   2.896   1.253   4.031  0.0061 -0.0745  0.2454
 3767SOL    HW111497   2.801   1.255   4.044 -0.2126  0.7423 -1.2818
 3767SOL    HW211498   2.927   1.182   4.089 -1.3961  0.2768  1.4770
 3768SOL     OW11499   4.624   1.312   4.578 -0.5103 -0.7755  0.0536
 3768SOL    HW111500   4.713   1.343   4.557 -0.5932  0.1150  0.9433
 3768SOL    HW211501   4.578   1.390   4.608 -2.1331 -0.8823 -1.9779
 3769SOL     OW11502   1.903   0.340   1.144  0.1588 -0.0596  0.0788
 3769SOL    HW111503   1.988   0.300   1.163 -0.1112 -0.6959 -0.0130
 3769SOL    HW211504   1.844   0.265   1.132 -0.2617  0.3684 -0.5610
 3770SOL     OW11505   4.641   3.941   1.565  0.1302  0.4609  0.2286
 3770SOL    HW111506   4.596   3.857   1.557  0.8682  0.0492  0.3010
 3770SOL    HW211507   4.643   3.975   1.476 -1.6870  1.2334  0.4314
 3771SOL     OW11508   0.868   4.530   2.103  0.0055 -0.2705  0.3417
 3771SOL    HW111509   0.910   4.585   2.169  2.4952 -0.2842 -1.0920
 3771SOL    HW211510   0.823   4.591   2.046  0.4824  0.0520  0.3028
 3772SOL     OW11511   0.887   4.042   2.223 -0.4386  0.0293 -0.2972
 3772SOL    HW111512   0.848   4.116   2.176 -0.9063  1.5183  2.2237
 3772SOL    HW211513   0.963   4.079   2.267  0.3272 -1.4262 -0.3357
 3773SOL     OW11514   3.457   0.905   2.675  0.1628  0.1129 -0.4363
 3773SOL    HW111515   3.406   0.824   2.664  1.4098 -0.7868  0.1503
 3773SOL    HW211516   3.417   0.949   2.750 -0.0826 -0.3142 -0.3123
 3774SOL     OW11517   0.505   0.795   3.662 -0.1371  0.2845  0.0884
 3774SOL    HW111518   0.456   0.818   3.741 -0.2154  0.8788 -0.1250
 3774SOL    HW211519   0.454   0.724   3.623  0.2689 -0.4834  0.9162
 3775SOL     OW11520   2.604   3.855   4.775 -0.2665 -1.3036 -0.2561
 3775SOL    HW111521   2.670   3.837   4.708  2.9870  0.7249  2.0941
 3775SOL    HW211522   2.582   3.947   4.763 -1.1776 -1.4380  0.2757
 3776SOL     OW11523   4.708   1.008   1.502  0.2892  0.0625  0.9079
 3776SOL    HW111524   4.788   1.042   1.542  0.0854 -0.0666  1.4343
 3776SOL    HW211525   4.639   1.067   1.533 -0.1831 -1.1919  2.3965
 3777SOL     OW11526   1.252   2.015   1.321  0.5529 -0.6470  0.0048
 3777SOL    HW111527   1.270   1.923   1.305  0.8475 -0.4475 -0.8822
 3777SOL    HW211528   1.308   2.062   1.258  1.0143  0.1596  0.9961
 3778SOL     OW11529   2.106   4.863   1.932 -0.3198  0.2352  0.2230
 3778SOL    HW111530   2.022   4.823   1.910  0.1175 -0.5863  0.0124
 3778SOL    HW211531   2.123   4.925   1.861  0.5299 -1.5525 -1.2215
 3779SOL     OW11532   4.253   1.449   0.822  0.3157 -0.4153  0.3812
 3779SOL    HW111533   4.302   1.410   0.894 -1.6621 -1.1380  1.4068
 3779SOL    HW211534   4.176   1.393   0.812 -0.7518  1.1455 -0.5794
 3780SOL     OW11535   3.935   4.047   3.222  0.0658 -0.3785 -0.1542
 3780SOL    HW111536   3.848   4.056   3.183  0.5943 -1.0435 -1.5504
 3780SOL    HW211537   3.990   4.108   3.172  1.0068 -2.0972 -1.2981
 3781SOL     OW11538   2.682   2.878   1.735 -0.4392  0.6977  0.6063
 3781SOL    HW111539   2.687   2.875   1.830  3.0313 -2.7403  0.5336
 3781SOL    HW211540   2.659   2.789   1.709  0.1696  1.1645 -1.8092
 3782SOL     OW11541   2.466   0.174   4.824 -0.0005  0.3956  0.3932
 3782SOL    HW111542   2.432   0.136   4.905 -1.7426  1.8662  0.4091
 3782SOL    HW211543   2.561   0.158   4.828 -0.4140 -2.5745  1.0563
 3783SOL     OW11544   0.886   2.820   3.549 -0.4842 -0.7326 -0.0323
 3783SOL    HW111545   0.847   2.744   3.505 -0.5805 -0.7897  0.1497
 3783SOL    HW211546   0.825   2.840   3.620 -1.6918  0.9265 -1.4463
 3784SOL     OW11547   3.343   0.486   0.201  0.2961  0.0054 -0.6062
 3784SOL    HW111548   3.397   0.421   0.157 -1.1153 -0.2970 -1.9434
 3784SOL    HW211549   3.365   0.569   0.158 -0.1522 -0.0826 -1.0028
 3785SOL     OW11550   0.563   1.365   4.479  0.0233 -0.7055 -0.2423
 3785SOL    HW111551   0.629   1.392   4.542  0.0094 -0.8573 -0.1643
 3785SOL    HW211552   0.606   1.373   4.394  0.0901 -0.6491 -0.2032
 3786SOL     OW11553   0.329   3.224   3.412 -0.0221  0.3019  0.1513
 3786SOL    HW111554   0.308   3.317   3.407  2.4555  0.9389  0.6926
 3786SOL    HW211555   0.276   3.185   3.342 -0.8831  2.1346 -0.2910
 3787SOL     OW11556   3.990   0.905   3.987  0.3645 -0.2476 -0.2623
 3787SOL    HW111557   3.895   0.894   3.997  0.6085 -0.8252  2.3823
 3787SOL    HW211558   4.001   0.944   3.901 -2.4053  1.4024  0.0017
 3788SOL     OW11559   3.877   4.101   1.659  0.3193  0.3903  0.3343
 3788SOL    HW111560   3.946   4.160   1.691  0.2373  0.2925  0.6959
 3788SOL    HW211561   3.897   4.089   1.566  0.8770  0.2457  0.4696
 3789SOL     OW11562   0.714   3.202   4.324 -0.0818 -0.0054  0.1805
 3789SOL    HW111563   0.641   3.188   4.264 -0.0155  0.2595  0.0346
 3789SOL    HW211564   0.747   3.289   4.301  0.3971 -0.2002  0.1226
 3790SOL     OW11565   4.314   1.309   0.572 -0.3524 -0.0950  0.7414
 3790SOL    HW111566   4.258   1.240   0.608 -1.2327  0.4166  0.3724
 3790SOL    HW211567   4.289   1.388   0.619 -0.4299  0.2784  0.0852
 3791SOL     OW11568   4.888   4.180   4.575 -0.2092  0.0807  0.5382
 3791SOL    HW111569   4.935   4.106   4.537  0.0121  0.8392 -0.7496
 3791SOL    HW211570   4.875   4.156   4.667 -2.5105 -2.7383 -0.3804
 3792SOL     OW11571   0.665   2.102   0.970 -0.3655 -0.0252  0.1863
 3792SOL    HW111572   0.661   2.182   0.917  1.1828 -0.3235 -0.4213
 3792SOL    HW211573   0.583   2.056   0.949  0.0161  0.0457 -1.6929
 3793SOL     OW11574   4.523   3.719   4.470 -0.2193  0.2207  0.0077
 3793SOL    HW111575   4.508   3.757   4.556 -0.7633 -0.7663  0.3677
 3793SOL    HW211576   4.465   3.767   4.411 -2.4748 -1.3402  0.8059
 3794SOL     OW11577   0.337   3.907   3.004 -0.0306 -0.1450  0.2558
 3794SOL    HW111578   0.369   3.899   2.914 -0.5026 -2.4372  0.2286
 3794SOL    HW211579   0.400   3.966   3.046  0.9358 -0.0502 -1.2301
 3795SOL     OW11580   0.681   0.364   2.191  0.4801 -0.2683  0.6196
 3795SOL    HW111581   0.647   0.439   2.240  0.4808 -1.6353  2.8374
 3795SOL    HW211582   0.769   0.391   2.165  0.0915  0.8885  0.4333
 3796SOL     OW11583   3.750   3.938   4.646  0.1249 -0.5149  0.3799
 3796SOL    HW111584   3.686   3.996   4.606  0.1895  0.0740  1.1042
 3796SOL    HW211585   3.771   3.980   4.730  0.4773 -1.3742  0.7332
 3797SOL     OW11586   3.878   4.100   0.348 -0.1899 -0.1358 -0.1689
 3797SOL    HW111587   3.843   4.184   0.319  0.7756  0.2755 -0.1784
 3797SOL    HW211588   3.845   4.090   0.437  0.7897  0.9099  0.3326
 3798SOL     OW11589   4.257   0.592   3.622 -0.2847 -0.4782  0.1416
 3798SOL    HW111590   4.344   0.600   3.583  0.0302  0.0752  0.9361
 3798SOL    HW211591   4.273   0.583   3.716 -1.1258  1.4160  0.5254
 3799SOL     OW11592   2.628   3.511   1.202 -0.1097  0.3793  0.0028
 3799SOL    HW111593   2.668   3.597   1.208 -0.5931  0.6287 -0.2484
 3799SOL    HW211594   2.682   3.462   1.140  1.2474 -0.1261  1.5267
 3800SOL     OW11595   1.230   2.527   3.716  0.2351 -0.0801  0.1004
 3800SOL    HW111596   1.152   2.485   3.753  1.1242 -0.1857  1.9800
 3800SOL    HW211597   1.196   2.604   3.670 -1.2609 -1.7971 -1.8956
 3801SOL     OW11598   2.256   3.705   3.213 -0.3258  0.2959 -0.4942
 3801SOL    HW111599   2.177   3.651   3.206  1.8199 -2.9540 -1.8316
 3801SOL    HW211600   2.272   3.736   3.124 -1.3782  3.2287  0.2002
 3802SOL     OW11601   1.356   1.521   2.135 -0.2866  0.3710 -0.2914
 3802SOL    HW111602   1.450   1.524   2.121  0.0092  0.5632  1.4666
 3802SOL    HW211603   1.345   1.485   2.223 -1.7396  2.1349  0.3439
 3803SOL     OW11604   1.522   4.461   3.579 -0.0455  0.0038  0.2009
 3803SOL    HW111605   1.520   4.392   3.512 -0.5933 -0.3216  0.5456
 3803SOL    HW211606   1.569   4.533   3.537  2.0256 -1.1579  0.4138
 3804SOL     OW11607   4.460   0.246   0.800  0.1508  0.0678 -0.1226
 3804SOL    HW111608   4.452   0.151   0.802  1.8025 -0.1038 -0.7200
 3804SOL    HW211609   4.498   0.269   0.884  2.0552 -0.0733 -0.9030
 3805SOL     OW11610   4.553   1.154   0.411 -0.0359  0.5474 -0.4706
 3805SOL    HW111611   4.586   1.135   0.323  0.6279  1.7953 -0.5202
 3805SOL    HW211612   4.464   1.186   0.397  0.3808  1.6184 -0.8020
 3806SOL     OW11613   1.903   3.759   3.653 -0.6732 -0.1357  0.0169
 3806SOL    HW111614   1.835   3.764   3.719  0.3892  1.6404  1.0473
 3806SOL    HW211615   1.866   3.803   3.576 -0.8622  0.4115  0.4202
 3807SOL     OW11616   4.698   1.513   3.670 -0.0298 -0.1296  0.0638
 3807SOL    HW111617   4.618   1.519   3.619 -0.5826 -1.0276  0.7999
 3807SOL    HW211618   4.722   1.604   3.689 -0.9251  0.1365 -0.0701
 3808SOL     OW11619   2.179   1.238   4.130 -0.9286 -0.1745  0.0336
 3808SOL    HW111620   2.143   1.322   4.157  1.7178  0.9579  0.3375
 3808SOL    HW211621   2.197   1.192   4.211 -0.9159 -0.3636 -0.0759
 3809SOL     OW11622   3.279   0.639   2.688  0.4448 -0.5197 -0.1478
 3809SOL    HW111623   3.292   0.546   2.669  1.3377 -0.1161 -1.7198
 3809SOL    HW211624   3.249   0.676   2.605  2.0651  0.9383 -0.1381
 3810SOL     OW11625   0.712   2.321   1.265  0.6440  0.9061  0.0018
 3810SOL    HW111626   0.766   2.263   1.318  0.7676 -1.4501 -2.4931
 3810SOL    HW211627   0.769   2.348   1.193 -1.0303 -0.8597 -2.1554
 3811SOL     OW11628   2.464   1.638   3.339  0.7654 -0.3365  0.3993
 3811SOL    HW111629   2.541   1.687   3.312 -0.2225  1.3775  0.5128
 3811SOL    HW211630   2.390   1.690   3.307 -0.3539 -1.5930  0.8291
 3812SOL     OW11631   0.243   4.570   2.635  0.5222  0.5269 -0.2033
 3812SOL    HW111632   0.234   4.624   2.714  0.0532 -0.1678  0.2321
 3812SOL    HW211633   0.160   4.580   2.590  0.4617  0.2325 -0.1591
 3813SOL     OW11634   2.064   2.544   1.994  0.9448 -0.0141 -0.1115
 3813SOL    HW111635   2.134   2.588   1.946  1.0035  0.2015  0.1697
 3813SOL    HW211636   2.088   2.451   1.992  2.2709  0.2397  1.6366
 3814SOL     OW11637   2.836   0.110   1.848  0.3127  0.0660 -0.0813
 3814SOL    HW111638   2.879   0.194   1.834 -0.1891  0.3005 -0.2484
 3814SOL    HW211639   2.809   0.082   1.761  1.6295 -0.9103 -0.2014
 3815SOL     OW11640   1.263   3.912   2.910 -0.0467  0.4254  0.0312
 3815SOL    HW111641   1.253   3.874   2.822 -1.3508 -0.1777  0.4163
 3815SOL    HW211642   1.228   4.001   2.902 -0.5422  0.2323  0.0305
 3816SOL     OW11643   1.005   1.891   4.336  0.0676 -0.5803  0.3277
 3816SOL    HW111644   0.948   1.824   4.298 -0.0950 -0.2175 -0.0795
 3816SOL    HW211645   1.037   1.852   4.417  0.6166 -1.4735 -0.2970
 3817SOL     OW11646   3.723   2.795   4.042 -0.0698 -0.1740 -0.2469
 3817SOL    HW111647   3.785   2.859   4.008 -0.8496  0.2281 -0.9434
 3817SOL    HW211648   3.755   2.775   4.130  2.1186 -1.4014 -1.2496
 3818SOL     OW11649   2.499   1.941   3.437 -0.1120 -0.3313  0.7269
 3818SOL    HW111650   2.455   2.025   3.441 -0.4574 -0.5071  0.6309
 3818SOL    HW211651   2.434   1.880   3.402  0.6854 -0.2812 -0.9339
 3819SOL     OW11652   0.427   0.553   0.783  0.6469  0.0761  1.0805
 3819SOL    HW111653   0.434   0.492   0.709  1.9832 -0.3702  1.5446
 3819SOL    HW211654   0.364   0.619   0.754  0.6034 -0.4865 -0.1705
 3820SOL     OW11655   2.325   3.541   1.715 -1.0522 -0.3357 -0.2102
 3820SOL    HW111656   2.253   3.595   1.747 -0.1047  1.4407 -0.9117
 3820SOL    HW211657   2.376   3.520   1.793  0.0019  2.0700 -0.1524
 3821SOL     OW11658   3.381   0.901   2.274  0.0179  0.4838  0.3697
 3821SOL    HW111659   3.353   0.991   2.286 -1.4730  0.0632  0.1839
 3821SOL    HW211660   3.472   0.900   2.306 -0.6148  1.5689  2.3922
 3822SOL     OW11661   1.584   0.188   2.497 -0.0523 -0.7840 -0.1858
 3822SOL    HW111662   1.497   0.182   2.458  0.0581 -0.4661 -0.4809
 3822SOL    HW211663   1.637   0.233   2.432  0.0319  0.1478  0.4993
 3823SOL     OW11664   0.011   1.241   2.950  0.6071 -0.1459  1.0434
 3823SOL    HW111665   0.011   1.161   3.003 -0.8785 -0.1788  1.0411
 3823SOL    HW211666   0.076   1.298   2.991 -0.1946 -0.3433  2.6649
 3824SOL     OW11667   2.586   4.168   2.859 -0.5334 -0.1604  0.5132
 3824SOL    HW111668   2.620   4.234   2.797  0.0381 -1.2200 -0.3405
 3824SOL    HW211669   2.492   4.164   2.840 -0.4965  0.0907  0.2539
 3825SOL     OW11670   2.906   1.627   0.219 -0.3313 -0.5541 -0.4425
 3825SOL    HW111671   2.975   1.665   0.274  0.4584 -0.0993 -1.7023
 3825SOL    HW211672   2.938   1.539   0.199 -0.9716 -0.9904  0.4235
 3826SOL     OW11673   3.301   0.807   3.275  0.0490 -0.4256  0.1479
 3826SOL    HW111674   3.371   0.752   3.240 -0.9661 -1.6696  0.0173
 3826SOL    HW211675   3.304   0.887   3.222  0.1512 -1.2507 -1.1084
 3827SOL     OW11676   2.305   4.061   0.445  0.1521  0.6010  0.3993
 3827SOL    HW111677   2.210   4.054   0.441 -0.0898  2.4380  1.7887
 3827SOL    HW211678   2.334   3.974   0.470 -1.2464  0.2156  0.7869
 3828SOL     OW11679   2.036   4.702   2.306  0.3856  0.0804 -0.5874
 3828SOL    HW111680   1.968   4.763   2.275 -0.0980  1.0169  2.0529
 3828SOL    HW211681   1.987   4.625   2.335  0.6170  0.0501 -0.2811
 3829SOL     OW11682   3.046   0.712   1.031  0.3848 -0.4584  0.2139
 3829SOL    HW111683   3.085   0.744   0.950  0.3167  0.6630  0.6141
 3829SOL    HW211684   3.106   0.740   1.100 -1.0995  1.3725  0.8468
 3830SOL     OW11685   2.644   3.760   0.911  0.0702 -0.7198  0.2300
 3830SOL    HW111686   2.738   3.775   0.914  0.0007 -0.0195 -0.7863
 3830SOL    HW211687   2.610   3.807   0.987  0.3275  0.8551 -0.5816
 3831SOL     OW11688   0.127   2.126   2.229 -0.0376 -0.5641  0.2101
 3831SOL    HW111689   0.076   2.154   2.305  0.0457 -0.1196  0.1040
 3831SOL    HW211690   0.118   2.198   2.167  0.5729 -0.5633  0.1233
 3832SOL     OW11691   2.766   4.556   4.052 -0.2542  0.3680 -0.8966
 3832SOL    HW111692   2.844   4.610   4.062 -0.4480  0.7522 -1.3908
 3832SOL    HW211693   2.774   4.489   4.120  0.8013  0.0288 -1.3320
 3833SOL     OW11694   0.898   2.822   1.895  0.6058  0.0618 -0.2485
 3833SOL    HW111695   0.980   2.818   1.845  1.4353 -1.9032  1.1414
 3833SOL    HW211696   0.925   2.840   1.985 -0.6743  1.3366 -0.0892
 3834SOL     OW11697   0.898   1.809   3.766  0.4253 -0.2383  0.0207
 3834SOL    HW111698   0.954   1.736   3.739  0.7463  0.4507 -1.3105
 3834SOL    HW211699   0.832   1.815   3.697 -0.7956 -0.4898  1.1322
 3835SOL     OW11700   3.706   2.137   3.812 -0.3487  0.7075  0.1227
 3835SOL    HW111701   3.761   2.060   3.796 -0.5674  0.5291  0.2192
 3835SOL    HW211702   3.741   2.204   3.753 -0.0860  0.5692  0.1166
 3836SOL     OW11703   1.891   3.363   1.832 -0.2860  0.2334 -0.3774
 3836SOL    HW111704   1.824   3.314   1.784 -1.9727 -1.0564  2.9359
 3836SOL    HW211705   1.973   3.317   1.813 -1.3076 -1.8829 -0.0039
 3837SOL     OW11706   4.885   1.278   3.891  0.1252 -0.2904  0.0686
 3837SOL    HW111707   4.877   1.186   3.917  1.1360 -0.1373  1.0136
 3837SOL    HW211708   4.887   1.276   3.796  1.2988 -1.3736  0.0820
 3838SOL     OW11709   1.707   3.312   3.470 -0.3590 -0.5831 -0.0346
 3838SOL    HW111710   1.731   3.311   3.563 -2.2049 -1.0649  0.4853
 3838SOL    HW211711   1.785   3.279   3.425  1.2691  1.4569  1.1145
 3839SOL     OW11712   3.286   0.299   1.226 -0.0774 -0.4728  0.7065
 3839SOL    HW111713   3.198   0.296   1.190  0.1558 -2.4188  0.1824
 3839SOL    HW211714   3.281   0.248   1.307  0.3417  0.3081  1.2406
 3840SOL     OW11715   2.345   0.245   3.485  0.0631 -0.0513 -0.1933
 3840SOL    HW111716   2.346   0.290   3.570 -2.3797 -1.3640  0.6273
 3840SOL    HW211717   2.285   0.297   3.431  0.7196  0.1289 -0.7698
 3841SOL     OW11718   1.440   2.700   0.515 -0.5949 -0.2151  0.2426
 3841SOL    HW111719   1.458   2.781   0.468 -0.5538 -0.1398  0.3868
 3841SOL    HW211720   1.485   2.633   0.465  0.0191 -0.0408  0.5516
 3842SOL     OW11721   3.044   4.620   4.179  0.0939  0.3281  0.2760
 3842SOL    HW111722   3.023   4.527   4.192 -0.5812  0.2260 -1.3050
 3842SOL    HW211723   3.140   4.623   4.180  0.2220  0.2326  3.9673
 3843SOL     OW11724   3.701   4.185   3.819 -0.3272  0.6374 -0.0993
 3843SOL    HW111725   3.756   4.198   3.742 -0.5175 -1.1567 -0.5884
 3843SOL    HW211726   3.641   4.260   3.819 -0.5460  0.5095 -1.9189
 3844SOL     OW11727   3.998   3.020   4.248  0.4531  0.0732  0.1302
 3844SOL    HW111728   3.940   3.029   4.324  1.1134 -0.8296  0.7631
 3844SOL    HW211729   4.077   3.067   4.273  0.5387  0.0734 -0.1436
 3845SOL     OW11730   4.829   0.748   3.626  0.2800 -0.4736 -0.4268
 3845SOL    HW111731   4.748   0.721   3.582  0.9245  0.1629 -2.0873
 3845SOL    HW211732   4.834   0.691   3.703 -0.4412 -2.3012 -1.6440
 3846SOL     OW11733   3.878   3.604   3.096  0.3418  0.1702 -0.2854
 3846SOL    HW111734   3.885   3.511   3.115 -0.3706  0.0519 -0.5797
 3846SOL    HW211735   3.785   3.624   3.104 -0.0199  0.1476 -3.3051
 3847SOL     OW11736   1.568   2.212   3.321  0.2882  0.0861 -0.0329
 3847SOL    HW111737   1.595   2.205   3.230 -0.8526  0.7623 -0.4359
 3847SOL    HW211738   1.532   2.126   3.342  2.6893 -0.8566  0.5338
 3848SOL     OW11739   3.305   3.590   1.860 -0.4553 -0.1946 -0.1204
 3848SOL    HW111740   3.326   3.613   1.951  1.2725  0.5378 -0.6653
 3848SOL    HW211741   3.388   3.563   1.822 -0.9823  0.3369 -1.7318
 3849SOL     OW11742   1.371   4.913   0.649 -0.0965  0.4741  0.6254
 3849SOL    HW111743   1.344   4.828   0.614 -1.1336  1.4868 -1.1895
 3849SOL    HW211744   1.454   4.895   0.694  0.1857 -1.3397 -0.5158
 3850SOL     OW11745   0.865   3.990   2.624 -0.5065 -0.0006 -0.4607
 3850SOL    HW111746   0.863   3.956   2.534  1.1257 -0.7268 -0.2655
 3850SOL    HW211747   0.808   3.933   2.674 -0.6144 -0.2308 -0.8465
 3851SOL     OW11748   4.166   2.859   1.260 -0.1760 -0.2722  0.0157
 3851SOL    HW111749   4.250   2.905   1.256 -1.4924  2.2887 -1.1317
 3851SOL    HW211750   4.154   2.824   1.172 -0.4662 -0.2685  0.0528
 3852SOL     OW11751   4.679   3.726   3.656  0.1874 -0.6613  0.4115
 3852SOL    HW111752   4.730   3.668   3.599 -2.2360 -0.8014 -1.7999
 3852SOL    HW211753   4.687   3.813   3.615 -1.5655 -0.7584 -0.2440
 3853SOL     OW11754   4.823   2.225   1.528 -0.1218  0.3301  0.3362
 3853SOL    HW111755   4.747   2.268   1.568  1.1467  1.6974  1.4065
 3853SOL    HW211756   4.851   2.285   1.459 -0.5829 -0.6623 -0.7542
 3854SOL     OW11757   0.981   2.270   4.755 -0.5179  0.1286  0.2167
 3854SOL    HW111758   0.951   2.219   4.679 -0.3090 -1.9964  1.4802
 3854SOL    HW211759   0.963   2.361   4.731 -1.2554 -0.5264 -2.0130
 3855SOL     OW11760   0.156   1.303   4.070  0.0733  0.4496  0.5473
 3855SOL    HW111761   0.070   1.324   4.032 -0.4597  0.0897  1.5076
 3855SOL    HW211762   0.149   1.332   4.161  1.9445  3.0420 -0.0062
 3856SOL     OW11763   4.211   3.718   4.371  0.2306  0.5679  0.3072
 3856SOL    HW111764   4.277   3.787   4.366  0.0940  0.6199 -1.4050
 3856SOL    HW211765   4.155   3.743   4.444  2.0877  0.5046  1.8247
 3857SOL     OW11766   1.028   3.492   0.196 -0.1492 -0.0282 -0.7459
 3857SOL    HW111767   1.080   3.432   0.249 -1.7164 -0.6675  0.1296
 3857SOL    HW211768   0.982   3.435   0.134 -1.1992  0.3030 -0.2943
 3858SOL     OW11769   1.395   1.893   4.819 -0.0647 -0.9516 -0.4223
 3858SOL    HW111770   1.327   1.946   4.776 -2.4783 -3.9341 -0.6190
 3858SOL    HW211771   1.419   1.944   4.896 -0.8782  1.2369 -1.5226
 3859SOL     OW11772   0.337   2.877   4.218 -0.1601 -0.2974 -0.2248
 3859SOL    HW111773   0.401   2.827   4.268  0.7875  1.3751  0.3193
 3859SOL    HW211774   0.259   2.822   4.216  0.8680 -1.8305  0.2050
 3860SOL     OW11775   1.153   1.083   2.551 -0.3710  0.1321 -0.1494
 3860SOL    HW111776   1.074   1.040   2.586 -0.5153  1.1035  0.7823
 3860SOL    HW211777   1.121   1.164   2.513 -0.0407 -0.3355 -1.4679
 3861SOL     OW11778   4.001   3.620   2.839  0.4236 -0.1287  0.1439
 3861SOL    HW111779   4.068   3.659   2.783  0.2551  0.5203  0.3775
 3861SOL    HW211780   3.997   3.678   2.915 -1.0518  0.3816 -0.2893
 3862SOL     OW11781   2.108   2.253   2.055  0.8746  0.2929  0.0017
 3862SOL    HW111782   2.030   2.234   2.108 -0.6380  2.6604 -1.2229
 3862SOL    HW211783   2.179   2.257   2.119 -0.3936  0.2723  1.4866
 3863SOL     OW11784   1.660   2.550   4.795 -0.2494 -0.0940 -0.5344
 3863SOL    HW111785   1.665   2.487   4.723 -0.1034 -0.2381 -0.3986
 3863SOL    HW211786   1.567   2.572   4.801 -0.3269 -0.4435 -0.4575
 3864SOL     OW11787   3.128   1.969   3.069 -0.1652  0.1985 -0.2109
 3864SOL    HW111788   3.133   1.896   3.132 -0.7781  0.4924  0.1850
 3864SOL    HW211789   3.190   2.033   3.102 -0.1328  0.1479 -0.1728
 3865SOL     OW11790   0.130   1.360   1.482  0.2356  0.4164 -0.0755
 3865SOL    HW111791   0.128   1.445   1.526  0.4977  0.1973  0.3662
 3865SOL    HW211792   0.205   1.365   1.423 -0.1290  0.7192 -0.5186
 3866SOL     OW11793   2.622   0.155   2.594  0.0342 -0.1816 -0.0419
 3866SOL    HW111794   2.584   0.180   2.510  0.7705  1.2102  0.0206
 3866SOL    HW211795   2.715   0.176   2.587  0.0657  0.2042  1.2032
 3867SOL     OW11796   0.472   1.304   2.975  0.1805 -0.2350  0.5023
 3867SOL    HW111797   0.514   1.344   2.900  1.1543  0.6912  1.5138
 3867SOL    HW211798   0.493   1.211   2.967 -0.3622 -0.2714 -0.7470
 3868SOL     OW11799   1.183   2.952   0.860  0.0308 -0.4806 -0.3096
 3868SOL    HW111800   1.133   3.033   0.872  1.3197  0.2361  0.4828
 3868SOL    HW211801   1.162   2.900   0.937  1.2071  0.2368  0.5353
 3869SOL     OW11802   0.386   3.765   0.072  0.6046 -0.3271 -0.1081
 3869SOL    HW111803   0.424   3.678   0.082 -0.7940 -0.8049  1.3860
 3869SOL    HW211804   0.301   3.750   0.030  0.8698  0.4548 -0.9569
 3870SOL     OW11805   1.047   2.909   1.537  0.5025 -0.1357 -0.0323
 3870SOL    HW111806   0.975   2.890   1.597  1.7289  1.8533  2.2388
 3870SOL    HW211807   1.098   2.828   1.534 -0.3558 -0.7077  0.4680
 3871SOL     OW11808   1.246   3.636   0.440  0.1847 -0.4533  0.3882
 3871SOL    HW111809   1.241   3.682   0.356  1.9178  1.0960  1.0657
 3871SOL    HW211810   1.295   3.556   0.421  0.0108 -0.4282 -0.1896
 3872SOL     OW11811   4.343   4.082   0.195 -0.2227  1.2560 -0.1769
 3872SOL    HW111812   4.291   4.140   0.138 -0.1710  0.0159 -1.5627
 3872SOL    HW211813   4.342   3.998   0.149  0.7119  0.4836  1.1755
 3873SOL     OW11814   1.835   1.952   3.974 -0.2181 -0.1558 -0.0987
 3873SOL    HW111815   1.793   1.946   4.060  0.6648  2.3877  0.6042
 3873SOL    HW211816   1.922   1.914   3.987  0.3506  1.2610  0.5314
 3874SOL     OW11817   0.610   2.948   2.163  0.0921  0.1003 -0.2906
 3874SOL    HW111818   0.628   2.920   2.074 -0.7651 -1.1764 -0.0903
 3874SOL    HW211819   0.689   2.926   2.212 -0.4257 -1.7339 -0.2107
 3875SOL     OW11820   4.073   0.059   0.882  0.3412 -0.3666 -0.0050
 3875SOL    HW111821   4.121  -0.023   0.894  1.6514  0.0780 -1.8934
 3875SOL    HW211822   4.033   0.051   0.796 -1.6919 -0.0172  0.8309
 3876SOL     OW11823   4.120   1.818   0.545 -0.1815  0.1110  0.0542
 3876SOL    HW111824   4.152   1.907   0.540 -0.1339  0.0786 -0.2042
 3876SOL    HW211825   4.184   1.772   0.600  0.4311 -0.0535 -0.7890
 3877SOL     OW11826   4.785   2.491   1.670  0.4691  0.0773 -0.2667
 3877SOL    HW111827   4.732   2.571   1.675 -1.2293 -0.9043 -1.6150
 3877SOL    HW211828   4.809   2.484   1.578  0.5820 -0.9892 -0.1646
 3878SOL     OW11829   3.970   0.051   2.520 -0.1129  0.4130 -0.0036
 3878SOL    HW111830   4.064   0.053   2.504 -0.0173 -0.4118  0.3812
 3878SOL    HW211831   3.950  -0.042   2.532 -0.8514  0.6423  0.6473
 3879SOL     OW11832   3.565   2.805   0.330 -0.2043 -0.4486 -1.0196
 3879SOL    HW111833   3.580   2.711   0.326  1.0242 -0.3308  0.1981
 3879SOL    HW211834   3.562   2.833   0.239  0.1499 -1.5568 -1.3850
 3880SOL     OW11835   2.600   1.806   3.644 -0.4663 -0.1340 -0.0763
 3880SOL    HW111836   2.692   1.834   3.643 -0.7508  0.8040 -1.0778
 3880SOL    HW211837   2.560   1.850   3.570 -1.8766 -0.0894  0.6705
 3881SOL     OW11838   3.112   2.827   2.340 -0.1281  0.1976  0.2622
 3881SOL    HW111839   3.191   2.876   2.316 -0.3957  0.5945  0.1831
 3881SOL    HW211840   3.145   2.754   2.393  0.5260 -0.9436 -1.6055
 3882SOL     OW11841   2.464   2.339   3.922  0.0577 -0.4983 -0.3358
 3882SOL    HW111842   2.497   2.283   3.993  0.0837 -1.2656 -0.9307
 3882SOL    HW211843   2.402   2.397   3.964  2.5496  1.4359  0.9578
 3883SOL     OW11844   1.049   4.302   1.661 -0.0467 -0.2089 -0.1761
 3883SOL    HW111845   1.027   4.387   1.699 -2.1162 -1.0109  0.6033
 3883SOL    HW211846   1.004   4.238   1.717  1.2674 -1.8223 -0.8530
 3884SOL     OW11847   3.791   1.897   0.366 -1.0299  0.1647 -0.7863
 3884SOL    HW111848   3.814   1.827   0.428 -0.8363  0.2201 -0.7948
 3884SOL    HW211849   3.792   1.854   0.280  0.8216  0.5402 -1.0115
 3885SOL     OW11850   0.874   0.612   3.161 -0.3077 -0.3484  0.0046
 3885SOL    HW111851   0.801   0.574   3.210  0.0674 -1.3740 -0.2068
 3885SOL    HW211852   0.944   0.548   3.170 -0.0118 -0.2240 -1.2924
 3886SOL     OW11853   1.509   4.376   0.980  0.7359  1.3257 -0.3669
 3886SOL    HW111854   1.539   4.300   1.030 -1.1108  0.4326 -0.5385
 3886SOL    HW211855   1.516   4.449   1.042  1.5428  0.8336  0.1401
 3887SOL     OW11856   3.013   2.263   3.051  0.2706 -0.4579 -0.3014
 3887SOL    HW111857   3.047   2.347   3.018  0.4080 -0.6963 -0.7770
 3887SOL    HW211858   3.071   2.240   3.123 -0.0765  0.1091  0.1704
 3888SOL     OW11859   2.065   2.857   0.107  0.1574 -0.0584  0.0001
 3888SOL    HW111860   2.110   2.896   0.032  1.2040  0.3139  0.7987
 3888SOL    HW211861   2.115   2.778   0.126  0.7656  0.5871  1.1682
 3889SOL     OW11862   0.097   0.312   4.397 -0.0824  0.0467  0.7171
 3889SOL    HW111863   0.190   0.291   4.404 -0.4930 -2.2118  0.1493
 3889SOL    HW211864   0.060   0.285   4.481 -0.4814 -0.7272  0.3075
 3890SOL     OW11865   0.978   4.884   1.098 -0.0795  0.0988  0.2249
 3890SOL    HW111866   0.921   4.863   1.024 -0.0056  1.4633 -0.2617
 3890SOL    HW211867   1.066   4.859   1.068 -0.2891 -1.1606  0.6234
 3891SOL     OW11868   1.504   3.808   3.291 -0.4449 -0.0232  0.1036
 3891SOL    HW111869   1.447   3.753   3.238  0.7198  0.4031 -1.6913
 3891SOL    HW211870   1.507   3.891   3.244  1.0679  0.2039  0.5499
 3892SOL     OW11871   0.469   0.876   4.693  0.3338  0.1823 -0.0378
 3892SOL    HW111872   0.487   0.962   4.732  1.9169  0.3610 -1.0689
 3892SOL    HW211873   0.431   0.825   4.764 -0.5038  1.6739  0.6419
 3893SOL     OW11874   3.717   1.216   2.359  1.0978 -0.0688 -0.1424
 3893SOL    HW111875   3.688   1.138   2.408  0.3574  0.4222  0.2122
 3893SOL    HW211876   3.704   1.192   2.268  1.0732 -0.4449 -0.0447
 3894SOL     OW11877   0.795   3.378   0.679  1.0260 -0.2700  0.4826
 3894SOL    HW111878   0.801   3.445   0.610  3.6770 -0.6144  0.2599
 3894SOL    HW211879   0.707   3.389   0.716 -0.1519  0.5427 -2.3028
 3895SOL     OW11880   4.664   0.481   0.727 -0.0484 -0.7069  0.2054
 3895SOL    HW111881   4.686   0.558   0.780 -0.5224  1.0189 -1.9581
 3895SOL    HW211882   4.717   0.491   0.648 -1.6656 -1.4917 -1.0278
 3896SOL     OW11883   3.401   2.660   3.559  0.7634 -1.0201  0.4873
 3896SOL    HW111884   3.384   2.624   3.472 -1.6562 -1.1363  0.9256
 3896SOL    HW211885   3.428   2.585   3.612 -0.1149 -1.4122  0.3887
 3897SOL     OW11886   1.329   0.885   2.381  0.2813 -0.3960 -0.5134
 3897SOL    HW111887   1.358   0.795   2.399  0.1939 -0.7044 -1.8038
 3897SOL    HW211888   1.269   0.906   2.453 -1.0152 -2.0052 -1.0564
 3898SOL     OW11889   1.857   2.686   0.414  0.3191 -0.4307 -0.3132
 3898SOL    HW111890   1.817   2.750   0.356 -0.5989 -0.2199  0.5347
 3898SOL    HW211891   1.858   2.728   0.500  0.2408 -1.3255  0.1430
 3899SOL     OW11892   0.604   2.853   4.689 -0.0227  0.1053  0.2755
 3899SOL    HW111893   0.635   2.763   4.701  0.1890 -0.0000 -0.9344
 3899SOL    HW211894   0.581   2.882   4.777 -0.2771 -1.1948  0.6583
 3900SOL     OW11895   0.108   4.069   0.161  0.5976 -0.1371 -0.0671
 3900SOL    HW111896   0.080   4.027   0.079 -0.4315 -2.0416  1.1722
 3900SOL    HW211897   0.080   4.008   0.229  0.8129  1.7205  1.7648
 3901SOL     OW11898   3.912   1.887   2.151 -0.3969  0.3350  0.1288
 3901SOL    HW111899   3.978   1.955   2.163  1.5286 -0.9447 -2.2635
 3901SOL    HW211900   3.859   1.916   2.077 -0.4935 -0.0828  0.0275
 3902SOL     OW11901   1.634   2.364   2.515 -0.2167 -0.5393  0.1944
 3902SOL    HW111902   1.577   2.396   2.586  0.0328  0.9288 -0.2190
 3902SOL    HW211903   1.680   2.289   2.552 -0.9317 -0.4954  1.2042
 3903SOL     OW11904   1.707   0.220   0.488 -0.1885  0.0270 -0.0507
 3903SOL    HW111905   1.687   0.302   0.532  1.5312 -0.4042  1.6749
 3903SOL    HW211906   1.774   0.243   0.424 -2.0947  0.4997 -2.0042
 3904SOL     OW11907   4.707   2.219   4.085 -0.2435  0.1736 -0.0734
 3904SOL    HW111908   4.770   2.287   4.107  1.6484 -1.5050 -0.0743
 3904SOL    HW211909   4.691   2.229   3.991 -1.4242  1.7140  0.2457
 3905SOL     OW11910   3.363   0.184   4.789 -0.0850 -0.4170  0.5607
 3905SOL    HW111911   3.269   0.172   4.779  0.3308 -2.7926 -1.4945
 3905SOL    HW211912   3.393   0.221   4.706  0.9260 -0.7742  0.7399
 3906SOL     OW11913   2.661   4.824   2.318  0.5349 -0.4741  0.3145
 3906SOL    HW111914   2.577   4.799   2.281  0.2136  1.4302 -0.3627
 3906SOL    HW211915   2.644   4.904   2.367  2.3611  1.6807 -2.2613
 3907SOL     OW11916   4.471   2.018   1.002 -0.7434 -0.0934 -0.1156
 3907SOL    HW111917   4.497   2.031   1.093  0.6153  0.2190 -0.5195
 3907SOL    HW211918   4.436   2.102   0.974  0.0782  0.2247 -0.2424
 3908SOL     OW11919   3.288   1.883   1.685  0.1846 -0.2159  0.4895
 3908SOL    HW111920   3.340   1.895   1.606  1.6339  1.3541  1.5988
 3908SOL    HW211921   3.299   1.965   1.734 -4.3049  0.7876  0.3338
 3909SOL     OW11922   0.315   2.078   4.366  0.0481  0.1647  0.1027
 3909SOL    HW111923   0.338   2.054   4.277  3.2057 -1.1285  1.1110
 3909SOL    HW211924   0.271   2.163   4.358  0.8251  0.4003 -2.6074
 3910SOL     OW11925   3.012   1.256   3.786 -0.6925  0.2744  0.4108
 3910SOL    HW111926   3.087   1.200   3.802  2.0194  2.5149 -3.0223
 3910SOL    HW211927   2.961   1.253   3.867  2.4946 -2.2107  2.5321
 3911SOL     OW11928   1.290   0.763   3.121  0.0180  0.1905 -0.1932
 3911SOL    HW111929   1.385   0.755   3.129 -0.0397  0.3638  0.8116
 3911SOL    HW211930   1.268   0.707   3.046  0.9599  0.5831 -0.7854
 3912SOL     OW11931   2.080   3.271   0.373  0.3940 -0.5905  0.1927
 3912SOL    HW111932   2.069   3.282   0.467 -2.1289  1.0194 -0.1995
 3912SOL    HW211933   2.157   3.322   0.351  0.3427 -0.0494  1.2328
 3913SOL     OW11934   3.184   1.104   4.455  0.7047  0.0203 -0.5591
 3913SOL    HW111935   3.272   1.096   4.417  1.0511  0.3365  0.1627
 3913SOL    HW211936   3.129   1.049   4.400  1.5820 -1.1612 -0.2810
 3914SOL     OW11937   2.487   2.430   4.651 -0.1102  1.0884 -0.2353
 3914SOL    HW111938   2.510   2.358   4.710 -1.3817  1.1651  0.3859
 3914SOL    HW211939   2.543   2.503   4.678 -0.0680  0.8607  0.2984
 3915SOL     OW11940   2.886   1.890   3.709 -0.4324 -0.3712  0.4880
 3915SOL    HW111941   2.849   1.951   3.772  1.2800  1.7665 -0.4294
 3915SOL    HW211942   2.929   1.946   3.644  1.9232 -2.5406  0.0029
 3916SOL     OW11943   2.265   1.546   3.099  0.3145  0.4288 -0.2527
 3916SOL    HW111944   2.337   1.500   3.142  0.5478 -0.2757 -1.3760
 3916SOL    HW211945   2.271   1.636   3.132  3.4389  1.1542 -2.3614
 3917SOL     OW11946   4.736   0.159   0.618 -0.0050  0.4005 -0.0611
 3917SOL    HW111947   4.790   0.162   0.539 -1.7528 -0.1113 -1.3635
 3917SOL    HW211948   4.776   0.222   0.677  3.5363 -1.8021  0.1642
 3918SOL     OW11949   1.606   3.554   3.297 -0.5471  0.3121  0.3654
 3918SOL    HW111950   1.552   3.632   3.304 -2.3264 -0.7787 -0.3237
 3918SOL    HW211951   1.679   3.579   3.240 -0.6134  1.6760  0.8532
 3919SOL     OW11952   3.889   2.282   2.449 -0.5912 -0.4297  0.1195
 3919SOL    HW111953   3.823   2.213   2.460  1.1642 -2.0486  0.9223
 3919SOL    HW211954   3.973   2.236   2.452  0.6675  1.7800  1.0380
 3920SOL     OW11955   3.787   4.286   1.348 -0.5300 -0.3860 -0.1864
 3920SOL    HW111956   3.732   4.214   1.316 -4.2391  1.6978  0.9135
 3920SOL    HW211957   3.790   4.347   1.274 -1.0507  0.1796  0.2457
 3921SOL     OW11958   3.722   4.536   1.785  0.4076 -0.4113  0.1778
 3921SOL    HW111959   3.660   4.554   1.714  1.6081  1.4374 -0.4802
 3921SOL    HW211960   3.782   4.471   1.749 -0.2269 -1.0441  0.2576
 3922SOL     OW11961   4.242   1.743   2.299  0.0298 -0.1222 -0.4766
 3922SOL    HW111962   4.200   1.663   2.332  0.5649 -1.4955 -2.8458
 3922SOL    HW211963   4.211   1.750   2.209  2.4651  0.5263 -1.3429
 3923SOL     OW11964   4.935   4.614   4.433  0.3050  0.0387 -0.0866
 3923SOL    HW111965   4.850   4.604   4.476 -0.5745 -0.0959 -1.7879
 3923SOL    HW211966   4.998   4.583   4.498 -1.0737 -1.3976  0.6427
 3924SOL     OW11967   2.504   0.574   1.107 -0.0342  0.8879 -0.5246
 3924SOL    HW111968   2.506   0.530   1.192 -0.1359  0.9254 -0.5035
 3924SOL    HW211969   2.592   0.560   1.072  0.1557  1.2700 -0.2095
 3925SOL     OW11970   4.618   4.020   4.692  0.3223 -0.4327  0.1334
 3925SOL    HW111971   4.578   4.106   4.698  2.2982  0.6239 -0.8447
 3925SOL    HW211972   4.546   3.959   4.709 -1.4791  1.3378 -0.6710
 3926SOL     OW11973   0.582   2.779   3.212 -0.5506  0.0638  0.2196
 3926SOL    HW111974   0.553   2.869   3.225 -0.0901  0.2090  0.2442
 3926SOL    HW211975   0.671   2.787   3.179 -1.1319 -0.3250 -1.6008
 3927SOL     OW11976   4.891   1.012   2.536  0.2582 -0.5311 -0.0788
 3927SOL    HW111977   4.973   1.029   2.583  0.5447  1.6730 -1.1880
 3927SOL    HW211978   4.824   1.057   2.587  0.2662  0.2519 -0.7313
 3928SOL     OW11979   2.288   1.464   3.526  0.1448 -0.0370 -0.3785
 3928SOL    HW111980   2.346   1.416   3.585  1.0734  0.3138 -0.9782
 3928SOL    HW211981   2.347   1.522   3.476 -0.2787 -1.7838 -3.1212
 3929SOL     OW11982   1.863   1.067   1.589  0.0330  0.2265 -0.0866
 3929SOL    HW111983   1.773   1.077   1.618  0.1156  0.1165  0.2231
 3929SOL    HW211984   1.883   1.147   1.541  0.4959  1.3267  1.8344
 3930SOL     OW11985   2.339   4.041   0.001  0.2752 -0.1162  0.2905
 3930SOL    HW111986   2.411   4.033  -0.062 -0.6391  1.9004 -1.1108
 3930SOL    HW211987   2.368   4.107   0.063  0.1263 -0.2204  0.4713
 3931SOL     OW11988   2.493   3.895   4.190  0.7322  0.3454 -0.4507
 3931SOL    HW111989   2.506   3.800   4.192  0.2179  0.2537  1.9176
 3931SOL    HW211990   2.573   3.932   4.227  0.7668  0.8099 -0.9770
 3932SOL     OW11991   0.733   4.615   1.183 -0.2214 -0.0397  0.2741
 3932SOL    HW111992   0.722   4.564   1.102 -0.5202  1.9257 -0.9808
 3932SOL    HW211993   0.645   4.616   1.222 -0.7350  1.3401 -0.8600
 3933SOL     OW11994   4.154   2.624   1.913  0.1033 -0.2608 -0.2904
 3933SOL    HW111995   4.146   2.530   1.931 -0.8207 -0.4960 -1.7961
 3933SOL    HW211996   4.209   2.629   1.835  1.1853  0.5448  0.4932
 3934SOL     OW11997   2.699   3.955   0.648 -0.3405 -0.0179  0.0176
 3934SOL    HW111998   2.664   3.990   0.729 -2.0283  0.8121 -1.0102
 3934SOL    HW211999   2.753   4.026   0.612 -0.0238 -0.1886  0.1521
 3935SOL     OW12000   4.053   3.680   4.842 -0.4607 -0.8726 -0.0475
 3935SOL    HW112001   3.975   3.679   4.897  0.0350  0.7443  0.7496
 3935SOL    HW212002   4.122   3.714   4.899  0.5810 -1.2439 -1.0440
 3936SOL     OW12003   2.721   4.341   4.575 -0.7069  0.1757 -0.2788
 3936SOL    HW112004   2.737   4.371   4.665 -1.9764 -1.3923  0.5355
 3936SOL    HW212005   2.677   4.415   4.533  0.2508  1.0704  0.2567
 3937SOL     OW12006   1.643   2.283   0.048  0.3358  0.0751 -0.1353
 3937SOL    HW112007   1.724   2.232   0.040  1.1148  1.3710 -0.9949
 3937SOL    HW212008   1.653   2.332   0.129 -0.4967 -1.2203  0.7899
 3938SOL     OW12009   0.150   0.871   1.137  0.1767  0.2014  0.0471
 3938SOL    HW112010   0.137   0.937   1.206  1.1208  1.2904 -0.7708
 3938SOL    HW212011   0.236   0.834   1.155 -0.2910 -0.7431  0.4184
 3939SOL     OW12012   0.315   1.696   2.304  1.0001 -0.9163  0.5804
 3939SOL    HW112013   0.320   1.775   2.359 -0.0902 -0.3763 -0.0719
 3939SOL    HW212014   0.317   1.729   2.214  1.0789 -1.6780  0.2970
 3940SOL     OW12015   4.744   4.390   1.970 -0.4914 -0.7809  0.7249
 3940SOL    HW112016   4.768   4.359   1.882 -0.2596 -0.5169  0.6930
 3940SOL    HW212017   4.776   4.323   2.029  0.8990 -0.1431  0.7320
 3941SOL     OW12018   2.239   4.010   0.777 -0.4758  0.4722 -0.1054
 3941SOL    HW112019   2.273   3.933   0.731 -0.7196  0.9754 -1.1847
 3941SOL    HW212020   2.265   4.084   0.721 -0.9376  1.0947  0.4906
 3942SOL     OW12021   0.684   2.275   4.033  0.5006 -0.2204 -0.5017
 3942SOL    HW112022   0.589   2.273   4.037  0.5505 -0.9044  0.8309
 3942SOL    HW212023   0.707   2.215   3.962 -0.0569  0.2533 -1.0937
 3943SOL     OW12024   0.794   4.129   3.351  0.3635 -0.3287  0.0640
 3943SOL    HW112025   0.833   4.048   3.318  0.1716  0.1413 -1.3453
 3943SOL    HW212026   0.799   4.190   3.278  1.9366  1.4603  1.5718
 3944SOL     OW12027   0.599   3.192   1.873 -0.3987  0.3946 -0.1168
 3944SOL    HW112028   0.670   3.194   1.938 -0.0479  0.3905 -0.4945
 3944SOL    HW212029   0.622   3.260   1.810 -0.3736 -0.0643 -0.6119
 3945SOL     OW12030   2.191   4.860   3.813 -0.3967  0.4683 -0.8750
 3945SOL    HW112031   2.267   4.802   3.803 -0.1648  0.9300 -1.8232
 3945SOL    HW212032   2.123   4.819   3.760 -0.0823  1.3068 -1.9626
 3946SOL     OW12033   3.723   4.701   2.145 -0.5533  0.1405 -0.5030
 3946SOL    HW112034   3.783   4.636   2.180 -0.5079  0.7884  0.6650
 3946SOL    HW212035   3.738   4.699   2.050  0.9991 -0.0303 -0.2788
 3947NA      NA12036   2.629   0.600   3.213  0.0146  0.1775 -0.0375
 3948NA      NA12037   3.881   0.517   1.495 -0.2295  0.5020  0.2099
 3949NA      NA12038   0.093   0.237   2.700 -0.2864 -0.1033 -0.3225
 3950NA      NA12039   2.149   2.631   2.422 -0.1945  0.3949  0.3811
 3951NA      NA12040   4.345   1.066   4.264  0.3892 -0.0061 -0.3246
 3952NA      NA12041   2.586   3.222   1.477  0.3335 -0.5584  0.3625
 3953NA      NA12042   0.156   1.710   2.710 -0.3516 -0.1305  0.1324
 3954NA      NA12043   4.452   0.453   0.696 -0.0705  0.0450 -0.1422
 3955NA      NA12044   3.506   4.804   2.177 -0.1863  0.3310  0.0045
 3956NA      NA12045   0.089   1.424   0.314 -0.5862 -0.2252 -0.6933
 3957NA      NA12046   1.913   0.691   1.908  0.4935 -0.0563 -0.4079
 3958CL      CL12047   4.279   3.757   0.078 -0.2128  0.0045  0.2959
 3959CL      CL12048   3.924   2.535   3.770 -0.1947  0.2288 -0.1863
 3960CL      CL12049   0.261   2.192   0.699  0.2351  0.2380  0.1967
 3961CL      CL12050   4.146   3.409   1.104  0.3770  0.1330  0.2765
 3962CL      CL12051   4.142   2.681   0.992  0.3279 -0.1340  0.3333
 3963CL      CL12052   0.131   0.426   1.703 -0.2554 -0.0872  0.0058
 3964CL      CL12053   3.064   0.051   3.082 -0.3888 -0.1502 -0.0239
 3965CL      CL12054   1.118   4.705   3.240  0.1927 -0.1335  0.2001
 3966CL      CL12055   1.403   1.092   0.991 -0.4131 -0.2514  0.0450
 3967CL      CL12056   1.067   2.839   3.144  0.3988  0.0955  0.0600
 3968CL      CL12057   3.326   2.984   2.196 -0.1221 -0.2870 -0.3292
 3969CL      CL12058   1.094   2.766   4.690 -0.1879  0.2629 -0.2246
 3970CL      CL12059   3.175   3.970   0.734  0.0031  0.1851 -0.1443
 3971CL      CL12060   2.565   2.100   4.104  0.2392  0.4817 -0.3341
 3972CL      CL12061   2.317   2.844   4.150 -0.0228 -0.2014  0.1490
 3973CL      CL12062   3.629   4.393   4.525 -0.0135 -0.0939 -0.1500
 3974CL      CL12063   2.082   2.238   0.751  0.2820 -0.3481 -0.6841
 3975CL      CL12064   4.816   1.501   4.427  0.1282  0.0407  0.2635
 3976CL      CL12065   0.351   0.424   2.549  0.4846 -0.0673  0.2045
   4.94704   4.94704   4.94704
