;
;   File g6npocore_petim_betagalactose.itp  was generated
;   By user: sairam (1000)
;   On host: sairam
;   At date: Tue. December  2 16:31:06 2023
;
;   This is a standalone topology file
;
;   Created by:
;   ParmEd:       amb2gro_top_gro.py, VERSION 3.4.1
;   Executable:   amb2gro_top_gro.py
;   Library dir:  /usr/local/gromacs/share/gromacs/top
;   Command line:
;     ./amb2gro_top_gro.py -p g6npocore_petim_betagalactose.prmtop -c g6npocore_petim_betagalactose.inpcrd -t g6npocore_petim_betagalactose.itp -g g6npocore_petim_betagalactose.gro -b g6npocore_petim_betagalactose.pdb
;

;[ defaults ]
;; nbfunc        comb-rule       gen-pairs       fudgeLJ fudgeQQ
;1               2               yes             0.5          0.83333333  
;
;[ atomtypes ]
;; name    at.num    mass    charge ptype  sigma      epsilon
;os             8  16.000000  0.00000000  A     0.30000123        0.71128
;c3             6  12.010000  0.00000000  A     0.33996695      0.4577296
;h1             1   1.008000  0.00000000  A      0.2471353      0.0656888
;hc             1   1.008000  0.00000000  A     0.26495328      0.0656888
;n3             7  14.010000  0.00000000  A     0.32499985        0.71128
;h2             1   1.008000  0.00000000  A     0.22931733      0.0656888
;oh             8  16.000000  0.00000000  A     0.30664734      0.8803136
;ho             1   1.008000  0.00000000  A              0              0


[ moleculetype ]
; Name            nrexcl
g6npocore_petim_betagalactose    3

[ atoms ]
;   nr       type  resnr residue  atom   cgnr    charge       mass  typeB    chargeB      massB
; residue    1 aaa rtp aaa q -0.0
    1         os      1    aaa     O1      1 -0.43807400  16.000000   ; qtot -0.438074
    2         c3      1    aaa     C1      2 0.04509800  12.010000   ; qtot -0.392976
    3         h1      1    aaa     H1      3 0.04771700   1.008000   ; qtot -0.345259
    4         h1      1    aaa     H2      4 0.04771700   1.008000   ; qtot -0.297542
    5         c3      1    aaa     C2      5 0.04509800  12.010000   ; qtot -0.252444
    6         h1      1    aaa     H3      6 0.04771700   1.008000   ; qtot -0.204727
    7         h1      1    aaa     H4      7 0.04771700   1.008000   ; qtot -0.157010
    8         c3      1    aaa     C3      8 0.05658600  12.010000   ; qtot -0.100424
    9         hc      1    aaa     H5      9 0.04933800   1.008000   ; qtot -0.051086
   10         hc      1    aaa     H6     10 0.04933800   1.008000   ; qtot -0.001748
   11         c3      1    aaa     C4     11 0.05658600  12.010000   ; qtot 0.054838
   12         hc      1    aaa     H7     12 0.04933800   1.008000   ; qtot 0.104176
   13         hc      1    aaa     H8     13 0.04933800   1.008000   ; qtot 0.153514
   14         c3      1    aaa     C5     14 0.00989700  12.010000   ; qtot 0.163411
   15         h1      1    aaa     H9     15 0.04845500   1.008000   ; qtot 0.211866
   16         h1      1    aaa    H10     16 0.04845500   1.008000   ; qtot 0.260321
   17         c3      1    aaa     C6     17 0.00989700  12.010000   ; qtot 0.270218
   18         h1      1    aaa    H11     18 0.04845500   1.008000   ; qtot 0.318673
   19         h1      1    aaa    H12     19 0.04845500   1.008000   ; qtot 0.367128
   20         n3      1    aaa     N1     20 -0.59936800  14.010000   ; qtot -0.232240
   21         n3      1    aaa     N2     21 -0.59936800  14.010000   ; qtot -0.831608
   22         c3      1    aaa     C7     22 0.08030200  12.010000   ; qtot -0.751306
   23         h1      1    aaa    H13     23 0.05071600   1.008000   ; qtot -0.700590
   24         h1      1    aaa    H14     24 0.05071600   1.008000   ; qtot -0.649874
   25         c3      1    aaa     C8     25 0.08030200  12.010000   ; qtot -0.569572
   26         h1      1    aaa    H15     26 0.05071600   1.008000   ; qtot -0.518856
   27         h1      1    aaa    H16     27 0.05071600   1.008000   ; qtot -0.468140
   28         c3      1    aaa     C9     28 0.08030200  12.010000   ; qtot -0.387838
   29         h1      1    aaa    H17     29 0.05071600   1.008000   ; qtot -0.337122
   30         h1      1    aaa    H18     30 0.05071600   1.008000   ; qtot -0.286406
   31         c3      1    aaa    C10     31 0.08030200  12.010000   ; qtot -0.206104
   32         h1      1    aaa    H19     32 0.05071600   1.008000   ; qtot -0.155388
   33         h1      1    aaa    H20     33 0.05071600   1.008000   ; qtot -0.104672
   34         c3      1    aaa    C11     34 0.10287800  12.010000   ; qtot -0.001794
   35         hc      1    aaa    H21     35 0.06787400   1.008000   ; qtot 0.066080
   36         hc      1    aaa    H22     36 0.06787400   1.008000   ; qtot 0.133954
   37         c3      1    aaa    C12     37 0.10287800  12.010000   ; qtot 0.236832
   38         hc      1    aaa    H23     38 0.06787400   1.008000   ; qtot 0.304706
   39         hc      1    aaa    H24     39 0.06787400   1.008000   ; qtot 0.372580
   40         c3      1    aaa    C13     40 0.10287800  12.010000   ; qtot 0.475458
   41         hc      1    aaa    H25     41 0.06787400   1.008000   ; qtot 0.543332
   42         hc      1    aaa    H26     42 0.06787400   1.008000   ; qtot 0.611206
   43         c3      1    aaa    C14     43 0.10287800  12.010000   ; qtot 0.714084
   44         hc      1    aaa    H27     44 0.06787400   1.008000   ; qtot 0.781958
   45         hc      1    aaa    H28     45 0.06787400   1.008000   ; qtot 0.849832
   46         c3      1    aaa    C15     46 -0.72585200  12.010000   ; qtot 0.123980
   47         h1      1    aaa    H29     47 0.25669700   1.008000   ; qtot 0.380677
   48         h1      1    aaa    H30     48 0.25669700   1.008000   ; qtot 0.637374
   49         c3      1    aaa    C16     49 -0.72585200  12.010000   ; qtot -0.088478
   50         h1      1    aaa    H31     50 0.25669700   1.008000   ; qtot 0.168219
   51         h1      1    aaa    H32     51 0.25669700   1.008000   ; qtot 0.424916
   52         c3      1    aaa    C17     52 -0.72585200  12.010000   ; qtot -0.300936
   53         h1      1    aaa    H33     53 0.25669700   1.008000   ; qtot -0.044239
   54         h1      1    aaa    H34     54 0.25669700   1.008000   ; qtot 0.212458
   55         c3      1    aaa    C18     55 -0.72585200  12.010000   ; qtot -0.513394
   56         h1      1    aaa    H35     56 0.25669700   1.008000   ; qtot -0.256697
   57         h1      1    aaa    H36     57 0.25669700   1.008000   ; qtot -0.000000
; residue    2 bbb rtp bbb q -0.0
   58         n3      2    bbb     N1     58 -0.59685800  14.010000   ; qtot -0.596858
   59         c3      2    bbb     C1     59 0.10137000  12.010000   ; qtot -0.495488
   60         h1      2    bbb     H1     60 0.04411300   1.008000   ; qtot -0.451375
   61         h1      2    bbb     H2     61 0.04411300   1.008000   ; qtot -0.407262
   62         c3      2    bbb     C2     62 0.10137000  12.010000   ; qtot -0.305892
   63         h1      2    bbb     H3     63 0.04411300   1.008000   ; qtot -0.261779
   64         h1      2    bbb     H4     64 0.04411300   1.008000   ; qtot -0.217666
   65         c3      2    bbb     C3     65 -0.00195300  12.010000   ; qtot -0.219619
   66         h1      2    bbb     H5     66 0.05064400   1.008000   ; qtot -0.168975
   67         h1      2    bbb     H6     67 0.05064400   1.008000   ; qtot -0.118331
   68         c3      2    bbb     C4     68 -0.01612100  12.010000   ; qtot -0.134452
   69         hc      2    bbb     H7     69 0.04936100   1.008000   ; qtot -0.085091
   70         hc      2    bbb     H8     70 0.04936100   1.008000   ; qtot -0.035730
   71         c3      2    bbb     C5     71 0.11363000  12.010000   ; qtot 0.077900
   72         hc      2    bbb     H9     72 0.06265900   1.008000   ; qtot 0.140559
   73         hc      2    bbb    H10     73 0.06265900   1.008000   ; qtot 0.203218
   74         c3      2    bbb     C6     74 0.11363000  12.010000   ; qtot 0.316848
   75         hc      2    bbb    H11     75 0.06265900   1.008000   ; qtot 0.379507
   76         hc      2    bbb    H12     76 0.06265900   1.008000   ; qtot 0.442166
   77         c3      2    bbb     C7     77 0.05858200  12.010000   ; qtot 0.500748
   78         h1      2    bbb    H13     78 0.06123400   1.008000   ; qtot 0.561982
   79         h1      2    bbb    H14     79 0.06123400   1.008000   ; qtot 0.623216
   80         c3      2    bbb     C8     80 -0.72423400  12.010000   ; qtot -0.101018
   81         h1      2    bbb    H15     81 0.25637600   1.008000   ; qtot 0.155358
   82         h1      2    bbb    H16     82 0.25637600   1.008000   ; qtot 0.411734
   83         c3      2    bbb     C9     83 -0.72423400  12.010000   ; qtot -0.312500
   84         h1      2    bbb    H17     84 0.25637600   1.008000   ; qtot -0.056124
   85         h1      2    bbb    H18     85 0.25637600   1.008000   ; qtot 0.200252
   86         os      2    bbb     O1     86 -0.20025300  16.000000   ; qtot -0.000001
; residue    3 bbb rtp bbb q -0.0
   87         n3      3    bbb     N1     87 -0.59685800  14.010000   ; qtot -0.596859
   88         c3      3    bbb     C1     88 0.10137000  12.010000   ; qtot -0.495489
   89         h1      3    bbb     H1     89 0.04411300   1.008000   ; qtot -0.451376
   90         h1      3    bbb     H2     90 0.04411300   1.008000   ; qtot -0.407263
   91         c3      3    bbb     C2     91 0.10137000  12.010000   ; qtot -0.305893
   92         h1      3    bbb     H3     92 0.04411300   1.008000   ; qtot -0.261780
   93         h1      3    bbb     H4     93 0.04411300   1.008000   ; qtot -0.217667
   94         c3      3    bbb     C3     94 -0.00195300  12.010000   ; qtot -0.219620
   95         h1      3    bbb     H5     95 0.05064400   1.008000   ; qtot -0.168976
   96         h1      3    bbb     H6     96 0.05064400   1.008000   ; qtot -0.118332
   97         c3      3    bbb     C4     97 -0.01612100  12.010000   ; qtot -0.134453
   98         hc      3    bbb     H7     98 0.04936100   1.008000   ; qtot -0.085092
   99         hc      3    bbb     H8     99 0.04936100   1.008000   ; qtot -0.035731
  100         c3      3    bbb     C5    100 0.11363000  12.010000   ; qtot 0.077899
  101         hc      3    bbb     H9    101 0.06265900   1.008000   ; qtot 0.140558
  102         hc      3    bbb    H10    102 0.06265900   1.008000   ; qtot 0.203217
  103         c3      3    bbb     C6    103 0.11363000  12.010000   ; qtot 0.316847
  104         hc      3    bbb    H11    104 0.06265900   1.008000   ; qtot 0.379506
  105         hc      3    bbb    H12    105 0.06265900   1.008000   ; qtot 0.442165
  106         c3      3    bbb     C7    106 0.05858200  12.010000   ; qtot 0.500747
  107         h1      3    bbb    H13    107 0.06123400   1.008000   ; qtot 0.561981
  108         h1      3    bbb    H14    108 0.06123400   1.008000   ; qtot 0.623215
  109         c3      3    bbb     C8    109 -0.72423400  12.010000   ; qtot -0.101019
  110         h1      3    bbb    H15    110 0.25637600   1.008000   ; qtot 0.155357
  111         h1      3    bbb    H16    111 0.25637600   1.008000   ; qtot 0.411733
  112         c3      3    bbb     C9    112 -0.72423400  12.010000   ; qtot -0.312501
  113         h1      3    bbb    H17    113 0.25637600   1.008000   ; qtot -0.056125
  114         h1      3    bbb    H18    114 0.25637600   1.008000   ; qtot 0.200251
  115         os      3    bbb     O1    115 -0.20025300  16.000000   ; qtot -0.000002
; residue    4 bbb rtp bbb q -0.0
  116         n3      4    bbb     N1    116 -0.59685800  14.010000   ; qtot -0.596860
  117         c3      4    bbb     C1    117 0.10137000  12.010000   ; qtot -0.495490
  118         h1      4    bbb     H1    118 0.04411300   1.008000   ; qtot -0.451377
  119         h1      4    bbb     H2    119 0.04411300   1.008000   ; qtot -0.407264
  120         c3      4    bbb     C2    120 0.10137000  12.010000   ; qtot -0.305894
  121         h1      4    bbb     H3    121 0.04411300   1.008000   ; qtot -0.261781
  122         h1      4    bbb     H4    122 0.04411300   1.008000   ; qtot -0.217668
  123         c3      4    bbb     C3    123 -0.00195300  12.010000   ; qtot -0.219621
  124         h1      4    bbb     H5    124 0.05064400   1.008000   ; qtot -0.168977
  125         h1      4    bbb     H6    125 0.05064400   1.008000   ; qtot -0.118333
  126         c3      4    bbb     C4    126 -0.01612100  12.010000   ; qtot -0.134454
  127         hc      4    bbb     H7    127 0.04936100   1.008000   ; qtot -0.085093
  128         hc      4    bbb     H8    128 0.04936100   1.008000   ; qtot -0.035732
  129         c3      4    bbb     C5    129 0.11363000  12.010000   ; qtot 0.077898
  130         hc      4    bbb     H9    130 0.06265900   1.008000   ; qtot 0.140557
  131         hc      4    bbb    H10    131 0.06265900   1.008000   ; qtot 0.203216
  132         c3      4    bbb     C6    132 0.11363000  12.010000   ; qtot 0.316846
  133         hc      4    bbb    H11    133 0.06265900   1.008000   ; qtot 0.379505
  134         hc      4    bbb    H12    134 0.06265900   1.008000   ; qtot 0.442164
  135         c3      4    bbb     C7    135 0.05858200  12.010000   ; qtot 0.500746
  136         h1      4    bbb    H13    136 0.06123400   1.008000   ; qtot 0.561980
  137         h1      4    bbb    H14    137 0.06123400   1.008000   ; qtot 0.623214
  138         c3      4    bbb     C8    138 -0.72423400  12.010000   ; qtot -0.101020
  139         h1      4    bbb    H15    139 0.25637600   1.008000   ; qtot 0.155356
  140         h1      4    bbb    H16    140 0.25637600   1.008000   ; qtot 0.411732
  141         c3      4    bbb     C9    141 -0.72423400  12.010000   ; qtot -0.312502
  142         h1      4    bbb    H17    142 0.25637600   1.008000   ; qtot -0.056126
  143         h1      4    bbb    H18    143 0.25637600   1.008000   ; qtot 0.200250
  144         os      4    bbb     O1    144 -0.20025300  16.000000   ; qtot -0.000003
; residue    5 bbb rtp bbb q -0.0
  145         n3      5    bbb     N1    145 -0.59685800  14.010000   ; qtot -0.596861
  146         c3      5    bbb     C1    146 0.10137000  12.010000   ; qtot -0.495491
  147         h1      5    bbb     H1    147 0.04411300   1.008000   ; qtot -0.451378
  148         h1      5    bbb     H2    148 0.04411300   1.008000   ; qtot -0.407265
  149         c3      5    bbb     C2    149 0.10137000  12.010000   ; qtot -0.305895
  150         h1      5    bbb     H3    150 0.04411300   1.008000   ; qtot -0.261782
  151         h1      5    bbb     H4    151 0.04411300   1.008000   ; qtot -0.217669
  152         c3      5    bbb     C3    152 -0.00195300  12.010000   ; qtot -0.219622
  153         h1      5    bbb     H5    153 0.05064400   1.008000   ; qtot -0.168978
  154         h1      5    bbb     H6    154 0.05064400   1.008000   ; qtot -0.118334
  155         c3      5    bbb     C4    155 -0.01612100  12.010000   ; qtot -0.134455
  156         hc      5    bbb     H7    156 0.04936100   1.008000   ; qtot -0.085094
  157         hc      5    bbb     H8    157 0.04936100   1.008000   ; qtot -0.035733
  158         c3      5    bbb     C5    158 0.11363000  12.010000   ; qtot 0.077897
  159         hc      5    bbb     H9    159 0.06265900   1.008000   ; qtot 0.140556
  160         hc      5    bbb    H10    160 0.06265900   1.008000   ; qtot 0.203215
  161         c3      5    bbb     C6    161 0.11363000  12.010000   ; qtot 0.316845
  162         hc      5    bbb    H11    162 0.06265900   1.008000   ; qtot 0.379504
  163         hc      5    bbb    H12    163 0.06265900   1.008000   ; qtot 0.442163
  164         c3      5    bbb     C7    164 0.05858200  12.010000   ; qtot 0.500745
  165         h1      5    bbb    H13    165 0.06123400   1.008000   ; qtot 0.561979
  166         h1      5    bbb    H14    166 0.06123400   1.008000   ; qtot 0.623213
  167         c3      5    bbb     C8    167 -0.72423400  12.010000   ; qtot -0.101021
  168         h1      5    bbb    H15    168 0.25637600   1.008000   ; qtot 0.155355
  169         h1      5    bbb    H16    169 0.25637600   1.008000   ; qtot 0.411731
  170         c3      5    bbb     C9    170 -0.72423400  12.010000   ; qtot -0.312503
  171         h1      5    bbb    H17    171 0.25637600   1.008000   ; qtot -0.056127
  172         h1      5    bbb    H18    172 0.25637600   1.008000   ; qtot 0.200249
  173         os      5    bbb     O1    173 -0.20025300  16.000000   ; qtot -0.000004
; residue    6 bbb rtp bbb q -0.0
  174         n3      6    bbb     N1    174 -0.59685800  14.010000   ; qtot -0.596862
  175         c3      6    bbb     C1    175 0.10137000  12.010000   ; qtot -0.495492
  176         h1      6    bbb     H1    176 0.04411300   1.008000   ; qtot -0.451379
  177         h1      6    bbb     H2    177 0.04411300   1.008000   ; qtot -0.407266
  178         c3      6    bbb     C2    178 0.10137000  12.010000   ; qtot -0.305896
  179         h1      6    bbb     H3    179 0.04411300   1.008000   ; qtot -0.261783
  180         h1      6    bbb     H4    180 0.04411300   1.008000   ; qtot -0.217670
  181         c3      6    bbb     C3    181 -0.00195300  12.010000   ; qtot -0.219623
  182         h1      6    bbb     H5    182 0.05064400   1.008000   ; qtot -0.168979
  183         h1      6    bbb     H6    183 0.05064400   1.008000   ; qtot -0.118335
  184         c3      6    bbb     C4    184 -0.01612100  12.010000   ; qtot -0.134456
  185         hc      6    bbb     H7    185 0.04936100   1.008000   ; qtot -0.085095
  186         hc      6    bbb     H8    186 0.04936100   1.008000   ; qtot -0.035734
  187         c3      6    bbb     C5    187 0.11363000  12.010000   ; qtot 0.077896
  188         hc      6    bbb     H9    188 0.06265900   1.008000   ; qtot 0.140555
  189         hc      6    bbb    H10    189 0.06265900   1.008000   ; qtot 0.203214
  190         c3      6    bbb     C6    190 0.11363000  12.010000   ; qtot 0.316844
  191         hc      6    bbb    H11    191 0.06265900   1.008000   ; qtot 0.379503
  192         hc      6    bbb    H12    192 0.06265900   1.008000   ; qtot 0.442162
  193         c3      6    bbb     C7    193 0.05858200  12.010000   ; qtot 0.500744
  194         h1      6    bbb    H13    194 0.06123400   1.008000   ; qtot 0.561978
  195         h1      6    bbb    H14    195 0.06123400   1.008000   ; qtot 0.623212
  196         c3      6    bbb     C8    196 -0.72423400  12.010000   ; qtot -0.101022
  197         h1      6    bbb    H15    197 0.25637600   1.008000   ; qtot 0.155354
  198         h1      6    bbb    H16    198 0.25637600   1.008000   ; qtot 0.411730
  199         c3      6    bbb     C9    199 -0.72423400  12.010000   ; qtot -0.312504
  200         h1      6    bbb    H17    200 0.25637600   1.008000   ; qtot -0.056128
  201         h1      6    bbb    H18    201 0.25637600   1.008000   ; qtot 0.200248
  202         os      6    bbb     O1    202 -0.20025300  16.000000   ; qtot -0.000005
; residue    7 bbb rtp bbb q -0.0
  203         n3      7    bbb     N1    203 -0.59685800  14.010000   ; qtot -0.596863
  204         c3      7    bbb     C1    204 0.10137000  12.010000   ; qtot -0.495493
  205         h1      7    bbb     H1    205 0.04411300   1.008000   ; qtot -0.451380
  206         h1      7    bbb     H2    206 0.04411300   1.008000   ; qtot -0.407267
  207         c3      7    bbb     C2    207 0.10137000  12.010000   ; qtot -0.305897
  208         h1      7    bbb     H3    208 0.04411300   1.008000   ; qtot -0.261784
  209         h1      7    bbb     H4    209 0.04411300   1.008000   ; qtot -0.217671
  210         c3      7    bbb     C3    210 -0.00195300  12.010000   ; qtot -0.219624
  211         h1      7    bbb     H5    211 0.05064400   1.008000   ; qtot -0.168980
  212         h1      7    bbb     H6    212 0.05064400   1.008000   ; qtot -0.118336
  213         c3      7    bbb     C4    213 -0.01612100  12.010000   ; qtot -0.134457
  214         hc      7    bbb     H7    214 0.04936100   1.008000   ; qtot -0.085096
  215         hc      7    bbb     H8    215 0.04936100   1.008000   ; qtot -0.035735
  216         c3      7    bbb     C5    216 0.11363000  12.010000   ; qtot 0.077895
  217         hc      7    bbb     H9    217 0.06265900   1.008000   ; qtot 0.140554
  218         hc      7    bbb    H10    218 0.06265900   1.008000   ; qtot 0.203213
  219         c3      7    bbb     C6    219 0.11363000  12.010000   ; qtot 0.316843
  220         hc      7    bbb    H11    220 0.06265900   1.008000   ; qtot 0.379502
  221         hc      7    bbb    H12    221 0.06265900   1.008000   ; qtot 0.442161
  222         c3      7    bbb     C7    222 0.05858200  12.010000   ; qtot 0.500743
  223         h1      7    bbb    H13    223 0.06123400   1.008000   ; qtot 0.561977
  224         h1      7    bbb    H14    224 0.06123400   1.008000   ; qtot 0.623211
  225         c3      7    bbb     C8    225 -0.72423400  12.010000   ; qtot -0.101023
  226         h1      7    bbb    H15    226 0.25637600   1.008000   ; qtot 0.155353
  227         h1      7    bbb    H16    227 0.25637600   1.008000   ; qtot 0.411729
  228         c3      7    bbb     C9    228 -0.72423400  12.010000   ; qtot -0.312505
  229         h1      7    bbb    H17    229 0.25637600   1.008000   ; qtot -0.056129
  230         h1      7    bbb    H18    230 0.25637600   1.008000   ; qtot 0.200247
  231         os      7    bbb     O1    231 -0.20025300  16.000000   ; qtot -0.000006
; residue    8 bbb rtp bbb q -0.0
  232         n3      8    bbb     N1    232 -0.59685800  14.010000   ; qtot -0.596864
  233         c3      8    bbb     C1    233 0.10137000  12.010000   ; qtot -0.495494
  234         h1      8    bbb     H1    234 0.04411300   1.008000   ; qtot -0.451381
  235         h1      8    bbb     H2    235 0.04411300   1.008000   ; qtot -0.407268
  236         c3      8    bbb     C2    236 0.10137000  12.010000   ; qtot -0.305898
  237         h1      8    bbb     H3    237 0.04411300   1.008000   ; qtot -0.261785
  238         h1      8    bbb     H4    238 0.04411300   1.008000   ; qtot -0.217672
  239         c3      8    bbb     C3    239 -0.00195300  12.010000   ; qtot -0.219625
  240         h1      8    bbb     H5    240 0.05064400   1.008000   ; qtot -0.168981
  241         h1      8    bbb     H6    241 0.05064400   1.008000   ; qtot -0.118337
  242         c3      8    bbb     C4    242 -0.01612100  12.010000   ; qtot -0.134458
  243         hc      8    bbb     H7    243 0.04936100   1.008000   ; qtot -0.085097
  244         hc      8    bbb     H8    244 0.04936100   1.008000   ; qtot -0.035736
  245         c3      8    bbb     C5    245 0.11363000  12.010000   ; qtot 0.077894
  246         hc      8    bbb     H9    246 0.06265900   1.008000   ; qtot 0.140553
  247         hc      8    bbb    H10    247 0.06265900   1.008000   ; qtot 0.203212
  248         c3      8    bbb     C6    248 0.11363000  12.010000   ; qtot 0.316842
  249         hc      8    bbb    H11    249 0.06265900   1.008000   ; qtot 0.379501
  250         hc      8    bbb    H12    250 0.06265900   1.008000   ; qtot 0.442160
  251         c3      8    bbb     C7    251 0.05858200  12.010000   ; qtot 0.500742
  252         h1      8    bbb    H13    252 0.06123400   1.008000   ; qtot 0.561976
  253         h1      8    bbb    H14    253 0.06123400   1.008000   ; qtot 0.623210
  254         c3      8    bbb     C8    254 -0.72423400  12.010000   ; qtot -0.101024
  255         h1      8    bbb    H15    255 0.25637600   1.008000   ; qtot 0.155352
  256         h1      8    bbb    H16    256 0.25637600   1.008000   ; qtot 0.411728
  257         c3      8    bbb     C9    257 -0.72423400  12.010000   ; qtot -0.312506
  258         h1      8    bbb    H17    258 0.25637600   1.008000   ; qtot -0.056130
  259         h1      8    bbb    H18    259 0.25637600   1.008000   ; qtot 0.200246
  260         os      8    bbb     O1    260 -0.20025300  16.000000   ; qtot -0.000007
; residue    9 bbb rtp bbb q -0.0
  261         n3      9    bbb     N1    261 -0.59685800  14.010000   ; qtot -0.596865
  262         c3      9    bbb     C1    262 0.10137000  12.010000   ; qtot -0.495495
  263         h1      9    bbb     H1    263 0.04411300   1.008000   ; qtot -0.451382
  264         h1      9    bbb     H2    264 0.04411300   1.008000   ; qtot -0.407269
  265         c3      9    bbb     C2    265 0.10137000  12.010000   ; qtot -0.305899
  266         h1      9    bbb     H3    266 0.04411300   1.008000   ; qtot -0.261786
  267         h1      9    bbb     H4    267 0.04411300   1.008000   ; qtot -0.217673
  268         c3      9    bbb     C3    268 -0.00195300  12.010000   ; qtot -0.219626
  269         h1      9    bbb     H5    269 0.05064400   1.008000   ; qtot -0.168982
  270         h1      9    bbb     H6    270 0.05064400   1.008000   ; qtot -0.118338
  271         c3      9    bbb     C4    271 -0.01612100  12.010000   ; qtot -0.134459
  272         hc      9    bbb     H7    272 0.04936100   1.008000   ; qtot -0.085098
  273         hc      9    bbb     H8    273 0.04936100   1.008000   ; qtot -0.035737
  274         c3      9    bbb     C5    274 0.11363000  12.010000   ; qtot 0.077893
  275         hc      9    bbb     H9    275 0.06265900   1.008000   ; qtot 0.140552
  276         hc      9    bbb    H10    276 0.06265900   1.008000   ; qtot 0.203211
  277         c3      9    bbb     C6    277 0.11363000  12.010000   ; qtot 0.316841
  278         hc      9    bbb    H11    278 0.06265900   1.008000   ; qtot 0.379500
  279         hc      9    bbb    H12    279 0.06265900   1.008000   ; qtot 0.442159
  280         c3      9    bbb     C7    280 0.05858200  12.010000   ; qtot 0.500741
  281         h1      9    bbb    H13    281 0.06123400   1.008000   ; qtot 0.561975
  282         h1      9    bbb    H14    282 0.06123400   1.008000   ; qtot 0.623209
  283         c3      9    bbb     C8    283 -0.72423400  12.010000   ; qtot -0.101025
  284         h1      9    bbb    H15    284 0.25637600   1.008000   ; qtot 0.155351
  285         h1      9    bbb    H16    285 0.25637600   1.008000   ; qtot 0.411727
  286         c3      9    bbb     C9    286 -0.72423400  12.010000   ; qtot -0.312507
  287         h1      9    bbb    H17    287 0.25637600   1.008000   ; qtot -0.056131
  288         h1      9    bbb    H18    288 0.25637600   1.008000   ; qtot 0.200245
  289         os      9    bbb     O1    289 -0.20025300  16.000000   ; qtot -0.000008
; residue   10 bbb rtp bbb q -0.0
  290         n3     10    bbb     N1    290 -0.59685800  14.010000   ; qtot -0.596866
  291         c3     10    bbb     C1    291 0.10137000  12.010000   ; qtot -0.495496
  292         h1     10    bbb     H1    292 0.04411300   1.008000   ; qtot -0.451383
  293         h1     10    bbb     H2    293 0.04411300   1.008000   ; qtot -0.407270
  294         c3     10    bbb     C2    294 0.10137000  12.010000   ; qtot -0.305900
  295         h1     10    bbb     H3    295 0.04411300   1.008000   ; qtot -0.261787
  296         h1     10    bbb     H4    296 0.04411300   1.008000   ; qtot -0.217674
  297         c3     10    bbb     C3    297 -0.00195300  12.010000   ; qtot -0.219627
  298         h1     10    bbb     H5    298 0.05064400   1.008000   ; qtot -0.168983
  299         h1     10    bbb     H6    299 0.05064400   1.008000   ; qtot -0.118339
  300         c3     10    bbb     C4    300 -0.01612100  12.010000   ; qtot -0.134460
  301         hc     10    bbb     H7    301 0.04936100   1.008000   ; qtot -0.085099
  302         hc     10    bbb     H8    302 0.04936100   1.008000   ; qtot -0.035738
  303         c3     10    bbb     C5    303 0.11363000  12.010000   ; qtot 0.077892
  304         hc     10    bbb     H9    304 0.06265900   1.008000   ; qtot 0.140551
  305         hc     10    bbb    H10    305 0.06265900   1.008000   ; qtot 0.203210
  306         c3     10    bbb     C6    306 0.11363000  12.010000   ; qtot 0.316840
  307         hc     10    bbb    H11    307 0.06265900   1.008000   ; qtot 0.379499
  308         hc     10    bbb    H12    308 0.06265900   1.008000   ; qtot 0.442158
  309         c3     10    bbb     C7    309 0.05858200  12.010000   ; qtot 0.500740
  310         h1     10    bbb    H13    310 0.06123400   1.008000   ; qtot 0.561974
  311         h1     10    bbb    H14    311 0.06123400   1.008000   ; qtot 0.623208
  312         c3     10    bbb     C8    312 -0.72423400  12.010000   ; qtot -0.101026
  313         h1     10    bbb    H15    313 0.25637600   1.008000   ; qtot 0.155350
  314         h1     10    bbb    H16    314 0.25637600   1.008000   ; qtot 0.411726
  315         c3     10    bbb     C9    315 -0.72423400  12.010000   ; qtot -0.312508
  316         h1     10    bbb    H17    316 0.25637600   1.008000   ; qtot -0.056132
  317         h1     10    bbb    H18    317 0.25637600   1.008000   ; qtot 0.200244
  318         os     10    bbb     O1    318 -0.20025300  16.000000   ; qtot -0.000009
; residue   11 bbb rtp bbb q -0.0
  319         n3     11    bbb     N1    319 -0.59685800  14.010000   ; qtot -0.596867
  320         c3     11    bbb     C1    320 0.10137000  12.010000   ; qtot -0.495497
  321         h1     11    bbb     H1    321 0.04411300   1.008000   ; qtot -0.451384
  322         h1     11    bbb     H2    322 0.04411300   1.008000   ; qtot -0.407271
  323         c3     11    bbb     C2    323 0.10137000  12.010000   ; qtot -0.305901
  324         h1     11    bbb     H3    324 0.04411300   1.008000   ; qtot -0.261788
  325         h1     11    bbb     H4    325 0.04411300   1.008000   ; qtot -0.217675
  326         c3     11    bbb     C3    326 -0.00195300  12.010000   ; qtot -0.219628
  327         h1     11    bbb     H5    327 0.05064400   1.008000   ; qtot -0.168984
  328         h1     11    bbb     H6    328 0.05064400   1.008000   ; qtot -0.118340
  329         c3     11    bbb     C4    329 -0.01612100  12.010000   ; qtot -0.134461
  330         hc     11    bbb     H7    330 0.04936100   1.008000   ; qtot -0.085100
  331         hc     11    bbb     H8    331 0.04936100   1.008000   ; qtot -0.035739
  332         c3     11    bbb     C5    332 0.11363000  12.010000   ; qtot 0.077891
  333         hc     11    bbb     H9    333 0.06265900   1.008000   ; qtot 0.140550
  334         hc     11    bbb    H10    334 0.06265900   1.008000   ; qtot 0.203209
  335         c3     11    bbb     C6    335 0.11363000  12.010000   ; qtot 0.316839
  336         hc     11    bbb    H11    336 0.06265900   1.008000   ; qtot 0.379498
  337         hc     11    bbb    H12    337 0.06265900   1.008000   ; qtot 0.442157
  338         c3     11    bbb     C7    338 0.05858200  12.010000   ; qtot 0.500739
  339         h1     11    bbb    H13    339 0.06123400   1.008000   ; qtot 0.561973
  340         h1     11    bbb    H14    340 0.06123400   1.008000   ; qtot 0.623207
  341         c3     11    bbb     C8    341 -0.72423400  12.010000   ; qtot -0.101027
  342         h1     11    bbb    H15    342 0.25637600   1.008000   ; qtot 0.155349
  343         h1     11    bbb    H16    343 0.25637600   1.008000   ; qtot 0.411725
  344         c3     11    bbb     C9    344 -0.72423400  12.010000   ; qtot -0.312509
  345         h1     11    bbb    H17    345 0.25637600   1.008000   ; qtot -0.056133
  346         h1     11    bbb    H18    346 0.25637600   1.008000   ; qtot 0.200243
  347         os     11    bbb     O1    347 -0.20025300  16.000000   ; qtot -0.000010
; residue   12 bbb rtp bbb q -0.0
  348         n3     12    bbb     N1    348 -0.59685800  14.010000   ; qtot -0.596868
  349         c3     12    bbb     C1    349 0.10137000  12.010000   ; qtot -0.495498
  350         h1     12    bbb     H1    350 0.04411300   1.008000   ; qtot -0.451385
  351         h1     12    bbb     H2    351 0.04411300   1.008000   ; qtot -0.407272
  352         c3     12    bbb     C2    352 0.10137000  12.010000   ; qtot -0.305902
  353         h1     12    bbb     H3    353 0.04411300   1.008000   ; qtot -0.261789
  354         h1     12    bbb     H4    354 0.04411300   1.008000   ; qtot -0.217676
  355         c3     12    bbb     C3    355 -0.00195300  12.010000   ; qtot -0.219629
  356         h1     12    bbb     H5    356 0.05064400   1.008000   ; qtot -0.168985
  357         h1     12    bbb     H6    357 0.05064400   1.008000   ; qtot -0.118341
  358         c3     12    bbb     C4    358 -0.01612100  12.010000   ; qtot -0.134462
  359         hc     12    bbb     H7    359 0.04936100   1.008000   ; qtot -0.085101
  360         hc     12    bbb     H8    360 0.04936100   1.008000   ; qtot -0.035740
  361         c3     12    bbb     C5    361 0.11363000  12.010000   ; qtot 0.077890
  362         hc     12    bbb     H9    362 0.06265900   1.008000   ; qtot 0.140549
  363         hc     12    bbb    H10    363 0.06265900   1.008000   ; qtot 0.203208
  364         c3     12    bbb     C6    364 0.11363000  12.010000   ; qtot 0.316838
  365         hc     12    bbb    H11    365 0.06265900   1.008000   ; qtot 0.379497
  366         hc     12    bbb    H12    366 0.06265900   1.008000   ; qtot 0.442156
  367         c3     12    bbb     C7    367 0.05858200  12.010000   ; qtot 0.500738
  368         h1     12    bbb    H13    368 0.06123400   1.008000   ; qtot 0.561972
  369         h1     12    bbb    H14    369 0.06123400   1.008000   ; qtot 0.623206
  370         c3     12    bbb     C8    370 -0.72423400  12.010000   ; qtot -0.101028
  371         h1     12    bbb    H15    371 0.25637600   1.008000   ; qtot 0.155348
  372         h1     12    bbb    H16    372 0.25637600   1.008000   ; qtot 0.411724
  373         c3     12    bbb     C9    373 -0.72423400  12.010000   ; qtot -0.312510
  374         h1     12    bbb    H17    374 0.25637600   1.008000   ; qtot -0.056134
  375         h1     12    bbb    H18    375 0.25637600   1.008000   ; qtot 0.200242
  376         os     12    bbb     O1    376 -0.20025300  16.000000   ; qtot -0.000011
; residue   13 bbb rtp bbb q -0.0
  377         n3     13    bbb     N1    377 -0.59685800  14.010000   ; qtot -0.596869
  378         c3     13    bbb     C1    378 0.10137000  12.010000   ; qtot -0.495499
  379         h1     13    bbb     H1    379 0.04411300   1.008000   ; qtot -0.451386
  380         h1     13    bbb     H2    380 0.04411300   1.008000   ; qtot -0.407273
  381         c3     13    bbb     C2    381 0.10137000  12.010000   ; qtot -0.305903
  382         h1     13    bbb     H3    382 0.04411300   1.008000   ; qtot -0.261790
  383         h1     13    bbb     H4    383 0.04411300   1.008000   ; qtot -0.217677
  384         c3     13    bbb     C3    384 -0.00195300  12.010000   ; qtot -0.219630
  385         h1     13    bbb     H5    385 0.05064400   1.008000   ; qtot -0.168986
  386         h1     13    bbb     H6    386 0.05064400   1.008000   ; qtot -0.118342
  387         c3     13    bbb     C4    387 -0.01612100  12.010000   ; qtot -0.134463
  388         hc     13    bbb     H7    388 0.04936100   1.008000   ; qtot -0.085102
  389         hc     13    bbb     H8    389 0.04936100   1.008000   ; qtot -0.035741
  390         c3     13    bbb     C5    390 0.11363000  12.010000   ; qtot 0.077889
  391         hc     13    bbb     H9    391 0.06265900   1.008000   ; qtot 0.140548
  392         hc     13    bbb    H10    392 0.06265900   1.008000   ; qtot 0.203207
  393         c3     13    bbb     C6    393 0.11363000  12.010000   ; qtot 0.316837
  394         hc     13    bbb    H11    394 0.06265900   1.008000   ; qtot 0.379496
  395         hc     13    bbb    H12    395 0.06265900   1.008000   ; qtot 0.442155
  396         c3     13    bbb     C7    396 0.05858200  12.010000   ; qtot 0.500737
  397         h1     13    bbb    H13    397 0.06123400   1.008000   ; qtot 0.561971
  398         h1     13    bbb    H14    398 0.06123400   1.008000   ; qtot 0.623205
  399         c3     13    bbb     C8    399 -0.72423400  12.010000   ; qtot -0.101029
  400         h1     13    bbb    H15    400 0.25637600   1.008000   ; qtot 0.155347
  401         h1     13    bbb    H16    401 0.25637600   1.008000   ; qtot 0.411723
  402         c3     13    bbb     C9    402 -0.72423400  12.010000   ; qtot -0.312511
  403         h1     13    bbb    H17    403 0.25637600   1.008000   ; qtot -0.056135
  404         h1     13    bbb    H18    404 0.25637600   1.008000   ; qtot 0.200241
  405         os     13    bbb     O1    405 -0.20025300  16.000000   ; qtot -0.000012
; residue   14 bbb rtp bbb q -0.0
  406         n3     14    bbb     N1    406 -0.59685800  14.010000   ; qtot -0.596870
  407         c3     14    bbb     C1    407 0.10137000  12.010000   ; qtot -0.495500
  408         h1     14    bbb     H1    408 0.04411300   1.008000   ; qtot -0.451387
  409         h1     14    bbb     H2    409 0.04411300   1.008000   ; qtot -0.407274
  410         c3     14    bbb     C2    410 0.10137000  12.010000   ; qtot -0.305904
  411         h1     14    bbb     H3    411 0.04411300   1.008000   ; qtot -0.261791
  412         h1     14    bbb     H4    412 0.04411300   1.008000   ; qtot -0.217678
  413         c3     14    bbb     C3    413 -0.00195300  12.010000   ; qtot -0.219631
  414         h1     14    bbb     H5    414 0.05064400   1.008000   ; qtot -0.168987
  415         h1     14    bbb     H6    415 0.05064400   1.008000   ; qtot -0.118343
  416         c3     14    bbb     C4    416 -0.01612100  12.010000   ; qtot -0.134464
  417         hc     14    bbb     H7    417 0.04936100   1.008000   ; qtot -0.085103
  418         hc     14    bbb     H8    418 0.04936100   1.008000   ; qtot -0.035742
  419         c3     14    bbb     C5    419 0.11363000  12.010000   ; qtot 0.077888
  420         hc     14    bbb     H9    420 0.06265900   1.008000   ; qtot 0.140547
  421         hc     14    bbb    H10    421 0.06265900   1.008000   ; qtot 0.203206
  422         c3     14    bbb     C6    422 0.11363000  12.010000   ; qtot 0.316836
  423         hc     14    bbb    H11    423 0.06265900   1.008000   ; qtot 0.379495
  424         hc     14    bbb    H12    424 0.06265900   1.008000   ; qtot 0.442154
  425         c3     14    bbb     C7    425 0.05858200  12.010000   ; qtot 0.500736
  426         h1     14    bbb    H13    426 0.06123400   1.008000   ; qtot 0.561970
  427         h1     14    bbb    H14    427 0.06123400   1.008000   ; qtot 0.623204
  428         c3     14    bbb     C8    428 -0.72423400  12.010000   ; qtot -0.101030
  429         h1     14    bbb    H15    429 0.25637600   1.008000   ; qtot 0.155346
  430         h1     14    bbb    H16    430 0.25637600   1.008000   ; qtot 0.411722
  431         c3     14    bbb     C9    431 -0.72423400  12.010000   ; qtot -0.312512
  432         h1     14    bbb    H17    432 0.25637600   1.008000   ; qtot -0.056136
  433         h1     14    bbb    H18    433 0.25637600   1.008000   ; qtot 0.200240
  434         os     14    bbb     O1    434 -0.20025300  16.000000   ; qtot -0.000013
; residue   15 bbb rtp bbb q -0.0
  435         n3     15    bbb     N1    435 -0.59685800  14.010000   ; qtot -0.596871
  436         c3     15    bbb     C1    436 0.10137000  12.010000   ; qtot -0.495501
  437         h1     15    bbb     H1    437 0.04411300   1.008000   ; qtot -0.451388
  438         h1     15    bbb     H2    438 0.04411300   1.008000   ; qtot -0.407275
  439         c3     15    bbb     C2    439 0.10137000  12.010000   ; qtot -0.305905
  440         h1     15    bbb     H3    440 0.04411300   1.008000   ; qtot -0.261792
  441         h1     15    bbb     H4    441 0.04411300   1.008000   ; qtot -0.217679
  442         c3     15    bbb     C3    442 -0.00195300  12.010000   ; qtot -0.219632
  443         h1     15    bbb     H5    443 0.05064400   1.008000   ; qtot -0.168988
  444         h1     15    bbb     H6    444 0.05064400   1.008000   ; qtot -0.118344
  445         c3     15    bbb     C4    445 -0.01612100  12.010000   ; qtot -0.134465
  446         hc     15    bbb     H7    446 0.04936100   1.008000   ; qtot -0.085104
  447         hc     15    bbb     H8    447 0.04936100   1.008000   ; qtot -0.035743
  448         c3     15    bbb     C5    448 0.11363000  12.010000   ; qtot 0.077887
  449         hc     15    bbb     H9    449 0.06265900   1.008000   ; qtot 0.140546
  450         hc     15    bbb    H10    450 0.06265900   1.008000   ; qtot 0.203205
  451         c3     15    bbb     C6    451 0.11363000  12.010000   ; qtot 0.316835
  452         hc     15    bbb    H11    452 0.06265900   1.008000   ; qtot 0.379494
  453         hc     15    bbb    H12    453 0.06265900   1.008000   ; qtot 0.442153
  454         c3     15    bbb     C7    454 0.05858200  12.010000   ; qtot 0.500735
  455         h1     15    bbb    H13    455 0.06123400   1.008000   ; qtot 0.561969
  456         h1     15    bbb    H14    456 0.06123400   1.008000   ; qtot 0.623203
  457         c3     15    bbb     C8    457 -0.72423400  12.010000   ; qtot -0.101031
  458         h1     15    bbb    H15    458 0.25637600   1.008000   ; qtot 0.155345
  459         h1     15    bbb    H16    459 0.25637600   1.008000   ; qtot 0.411721
  460         c3     15    bbb     C9    460 -0.72423400  12.010000   ; qtot -0.312513
  461         h1     15    bbb    H17    461 0.25637600   1.008000   ; qtot -0.056137
  462         h1     15    bbb    H18    462 0.25637600   1.008000   ; qtot 0.200239
  463         os     15    bbb     O1    463 -0.20025300  16.000000   ; qtot -0.000014
; residue   16 bbb rtp bbb q -0.0
  464         n3     16    bbb     N1    464 -0.59685800  14.010000   ; qtot -0.596872
  465         c3     16    bbb     C1    465 0.10137000  12.010000   ; qtot -0.495502
  466         h1     16    bbb     H1    466 0.04411300   1.008000   ; qtot -0.451389
  467         h1     16    bbb     H2    467 0.04411300   1.008000   ; qtot -0.407276
  468         c3     16    bbb     C2    468 0.10137000  12.010000   ; qtot -0.305906
  469         h1     16    bbb     H3    469 0.04411300   1.008000   ; qtot -0.261793
  470         h1     16    bbb     H4    470 0.04411300   1.008000   ; qtot -0.217680
  471         c3     16    bbb     C3    471 -0.00195300  12.010000   ; qtot -0.219633
  472         h1     16    bbb     H5    472 0.05064400   1.008000   ; qtot -0.168989
  473         h1     16    bbb     H6    473 0.05064400   1.008000   ; qtot -0.118345
  474         c3     16    bbb     C4    474 -0.01612100  12.010000   ; qtot -0.134466
  475         hc     16    bbb     H7    475 0.04936100   1.008000   ; qtot -0.085105
  476         hc     16    bbb     H8    476 0.04936100   1.008000   ; qtot -0.035744
  477         c3     16    bbb     C5    477 0.11363000  12.010000   ; qtot 0.077886
  478         hc     16    bbb     H9    478 0.06265900   1.008000   ; qtot 0.140545
  479         hc     16    bbb    H10    479 0.06265900   1.008000   ; qtot 0.203204
  480         c3     16    bbb     C6    480 0.11363000  12.010000   ; qtot 0.316834
  481         hc     16    bbb    H11    481 0.06265900   1.008000   ; qtot 0.379493
  482         hc     16    bbb    H12    482 0.06265900   1.008000   ; qtot 0.442152
  483         c3     16    bbb     C7    483 0.05858200  12.010000   ; qtot 0.500734
  484         h1     16    bbb    H13    484 0.06123400   1.008000   ; qtot 0.561968
  485         h1     16    bbb    H14    485 0.06123400   1.008000   ; qtot 0.623202
  486         c3     16    bbb     C8    486 -0.72423400  12.010000   ; qtot -0.101032
  487         h1     16    bbb    H15    487 0.25637600   1.008000   ; qtot 0.155344
  488         h1     16    bbb    H16    488 0.25637600   1.008000   ; qtot 0.411720
  489         c3     16    bbb     C9    489 -0.72423400  12.010000   ; qtot -0.312514
  490         h1     16    bbb    H17    490 0.25637600   1.008000   ; qtot -0.056138
  491         h1     16    bbb    H18    491 0.25637600   1.008000   ; qtot 0.200238
  492         os     16    bbb     O1    492 -0.20025300  16.000000   ; qtot -0.000015
; residue   17 bbb rtp bbb q -0.0
  493         n3     17    bbb     N1    493 -0.59685800  14.010000   ; qtot -0.596873
  494         c3     17    bbb     C1    494 0.10137000  12.010000   ; qtot -0.495503
  495         h1     17    bbb     H1    495 0.04411300   1.008000   ; qtot -0.451390
  496         h1     17    bbb     H2    496 0.04411300   1.008000   ; qtot -0.407277
  497         c3     17    bbb     C2    497 0.10137000  12.010000   ; qtot -0.305907
  498         h1     17    bbb     H3    498 0.04411300   1.008000   ; qtot -0.261794
  499         h1     17    bbb     H4    499 0.04411300   1.008000   ; qtot -0.217681
  500         c3     17    bbb     C3    500 -0.00195300  12.010000   ; qtot -0.219634
  501         h1     17    bbb     H5    501 0.05064400   1.008000   ; qtot -0.168990
  502         h1     17    bbb     H6    502 0.05064400   1.008000   ; qtot -0.118346
  503         c3     17    bbb     C4    503 -0.01612100  12.010000   ; qtot -0.134467
  504         hc     17    bbb     H7    504 0.04936100   1.008000   ; qtot -0.085106
  505         hc     17    bbb     H8    505 0.04936100   1.008000   ; qtot -0.035745
  506         c3     17    bbb     C5    506 0.11363000  12.010000   ; qtot 0.077885
  507         hc     17    bbb     H9    507 0.06265900   1.008000   ; qtot 0.140544
  508         hc     17    bbb    H10    508 0.06265900   1.008000   ; qtot 0.203203
  509         c3     17    bbb     C6    509 0.11363000  12.010000   ; qtot 0.316833
  510         hc     17    bbb    H11    510 0.06265900   1.008000   ; qtot 0.379492
  511         hc     17    bbb    H12    511 0.06265900   1.008000   ; qtot 0.442151
  512         c3     17    bbb     C7    512 0.05858200  12.010000   ; qtot 0.500733
  513         h1     17    bbb    H13    513 0.06123400   1.008000   ; qtot 0.561967
  514         h1     17    bbb    H14    514 0.06123400   1.008000   ; qtot 0.623201
  515         c3     17    bbb     C8    515 -0.72423400  12.010000   ; qtot -0.101033
  516         h1     17    bbb    H15    516 0.25637600   1.008000   ; qtot 0.155343
  517         h1     17    bbb    H16    517 0.25637600   1.008000   ; qtot 0.411719
  518         c3     17    bbb     C9    518 -0.72423400  12.010000   ; qtot -0.312515
  519         h1     17    bbb    H17    519 0.25637600   1.008000   ; qtot -0.056139
  520         h1     17    bbb    H18    520 0.25637600   1.008000   ; qtot 0.200237
  521         os     17    bbb     O1    521 -0.20025300  16.000000   ; qtot -0.000016
; residue   18 bbb rtp bbb q -0.0
  522         n3     18    bbb     N1    522 -0.59685800  14.010000   ; qtot -0.596874
  523         c3     18    bbb     C1    523 0.10137000  12.010000   ; qtot -0.495504
  524         h1     18    bbb     H1    524 0.04411300   1.008000   ; qtot -0.451391
  525         h1     18    bbb     H2    525 0.04411300   1.008000   ; qtot -0.407278
  526         c3     18    bbb     C2    526 0.10137000  12.010000   ; qtot -0.305908
  527         h1     18    bbb     H3    527 0.04411300   1.008000   ; qtot -0.261795
  528         h1     18    bbb     H4    528 0.04411300   1.008000   ; qtot -0.217682
  529         c3     18    bbb     C3    529 -0.00195300  12.010000   ; qtot -0.219635
  530         h1     18    bbb     H5    530 0.05064400   1.008000   ; qtot -0.168991
  531         h1     18    bbb     H6    531 0.05064400   1.008000   ; qtot -0.118347
  532         c3     18    bbb     C4    532 -0.01612100  12.010000   ; qtot -0.134468
  533         hc     18    bbb     H7    533 0.04936100   1.008000   ; qtot -0.085107
  534         hc     18    bbb     H8    534 0.04936100   1.008000   ; qtot -0.035746
  535         c3     18    bbb     C5    535 0.11363000  12.010000   ; qtot 0.077884
  536         hc     18    bbb     H9    536 0.06265900   1.008000   ; qtot 0.140543
  537         hc     18    bbb    H10    537 0.06265900   1.008000   ; qtot 0.203202
  538         c3     18    bbb     C6    538 0.11363000  12.010000   ; qtot 0.316832
  539         hc     18    bbb    H11    539 0.06265900   1.008000   ; qtot 0.379491
  540         hc     18    bbb    H12    540 0.06265900   1.008000   ; qtot 0.442150
  541         c3     18    bbb     C7    541 0.05858200  12.010000   ; qtot 0.500732
  542         h1     18    bbb    H13    542 0.06123400   1.008000   ; qtot 0.561966
  543         h1     18    bbb    H14    543 0.06123400   1.008000   ; qtot 0.623200
  544         c3     18    bbb     C8    544 -0.72423400  12.010000   ; qtot -0.101034
  545         h1     18    bbb    H15    545 0.25637600   1.008000   ; qtot 0.155342
  546         h1     18    bbb    H16    546 0.25637600   1.008000   ; qtot 0.411718
  547         c3     18    bbb     C9    547 -0.72423400  12.010000   ; qtot -0.312516
  548         h1     18    bbb    H17    548 0.25637600   1.008000   ; qtot -0.056140
  549         h1     18    bbb    H18    549 0.25637600   1.008000   ; qtot 0.200236
  550         os     18    bbb     O1    550 -0.20025300  16.000000   ; qtot -0.000017
; residue   19 bbb rtp bbb q -0.0
  551         n3     19    bbb     N1    551 -0.59685800  14.010000   ; qtot -0.596875
  552         c3     19    bbb     C1    552 0.10137000  12.010000   ; qtot -0.495505
  553         h1     19    bbb     H1    553 0.04411300   1.008000   ; qtot -0.451392
  554         h1     19    bbb     H2    554 0.04411300   1.008000   ; qtot -0.407279
  555         c3     19    bbb     C2    555 0.10137000  12.010000   ; qtot -0.305909
  556         h1     19    bbb     H3    556 0.04411300   1.008000   ; qtot -0.261796
  557         h1     19    bbb     H4    557 0.04411300   1.008000   ; qtot -0.217683
  558         c3     19    bbb     C3    558 -0.00195300  12.010000   ; qtot -0.219636
  559         h1     19    bbb     H5    559 0.05064400   1.008000   ; qtot -0.168992
  560         h1     19    bbb     H6    560 0.05064400   1.008000   ; qtot -0.118348
  561         c3     19    bbb     C4    561 -0.01612100  12.010000   ; qtot -0.134469
  562         hc     19    bbb     H7    562 0.04936100   1.008000   ; qtot -0.085108
  563         hc     19    bbb     H8    563 0.04936100   1.008000   ; qtot -0.035747
  564         c3     19    bbb     C5    564 0.11363000  12.010000   ; qtot 0.077883
  565         hc     19    bbb     H9    565 0.06265900   1.008000   ; qtot 0.140542
  566         hc     19    bbb    H10    566 0.06265900   1.008000   ; qtot 0.203201
  567         c3     19    bbb     C6    567 0.11363000  12.010000   ; qtot 0.316831
  568         hc     19    bbb    H11    568 0.06265900   1.008000   ; qtot 0.379490
  569         hc     19    bbb    H12    569 0.06265900   1.008000   ; qtot 0.442149
  570         c3     19    bbb     C7    570 0.05858200  12.010000   ; qtot 0.500731
  571         h1     19    bbb    H13    571 0.06123400   1.008000   ; qtot 0.561965
  572         h1     19    bbb    H14    572 0.06123400   1.008000   ; qtot 0.623199
  573         c3     19    bbb     C8    573 -0.72423400  12.010000   ; qtot -0.101035
  574         h1     19    bbb    H15    574 0.25637600   1.008000   ; qtot 0.155341
  575         h1     19    bbb    H16    575 0.25637600   1.008000   ; qtot 0.411717
  576         c3     19    bbb     C9    576 -0.72423400  12.010000   ; qtot -0.312517
  577         h1     19    bbb    H17    577 0.25637600   1.008000   ; qtot -0.056141
  578         h1     19    bbb    H18    578 0.25637600   1.008000   ; qtot 0.200235
  579         os     19    bbb     O1    579 -0.20025300  16.000000   ; qtot -0.000018
; residue   20 bbb rtp bbb q -0.0
  580         n3     20    bbb     N1    580 -0.59685800  14.010000   ; qtot -0.596876
  581         c3     20    bbb     C1    581 0.10137000  12.010000   ; qtot -0.495506
  582         h1     20    bbb     H1    582 0.04411300   1.008000   ; qtot -0.451393
  583         h1     20    bbb     H2    583 0.04411300   1.008000   ; qtot -0.407280
  584         c3     20    bbb     C2    584 0.10137000  12.010000   ; qtot -0.305910
  585         h1     20    bbb     H3    585 0.04411300   1.008000   ; qtot -0.261797
  586         h1     20    bbb     H4    586 0.04411300   1.008000   ; qtot -0.217684
  587         c3     20    bbb     C3    587 -0.00195300  12.010000   ; qtot -0.219637
  588         h1     20    bbb     H5    588 0.05064400   1.008000   ; qtot -0.168993
  589         h1     20    bbb     H6    589 0.05064400   1.008000   ; qtot -0.118349
  590         c3     20    bbb     C4    590 -0.01612100  12.010000   ; qtot -0.134470
  591         hc     20    bbb     H7    591 0.04936100   1.008000   ; qtot -0.085109
  592         hc     20    bbb     H8    592 0.04936100   1.008000   ; qtot -0.035748
  593         c3     20    bbb     C5    593 0.11363000  12.010000   ; qtot 0.077882
  594         hc     20    bbb     H9    594 0.06265900   1.008000   ; qtot 0.140541
  595         hc     20    bbb    H10    595 0.06265900   1.008000   ; qtot 0.203200
  596         c3     20    bbb     C6    596 0.11363000  12.010000   ; qtot 0.316830
  597         hc     20    bbb    H11    597 0.06265900   1.008000   ; qtot 0.379489
  598         hc     20    bbb    H12    598 0.06265900   1.008000   ; qtot 0.442148
  599         c3     20    bbb     C7    599 0.05858200  12.010000   ; qtot 0.500730
  600         h1     20    bbb    H13    600 0.06123400   1.008000   ; qtot 0.561964
  601         h1     20    bbb    H14    601 0.06123400   1.008000   ; qtot 0.623198
  602         c3     20    bbb     C8    602 -0.72423400  12.010000   ; qtot -0.101036
  603         h1     20    bbb    H15    603 0.25637600   1.008000   ; qtot 0.155340
  604         h1     20    bbb    H16    604 0.25637600   1.008000   ; qtot 0.411716
  605         c3     20    bbb     C9    605 -0.72423400  12.010000   ; qtot -0.312518
  606         h1     20    bbb    H17    606 0.25637600   1.008000   ; qtot -0.056142
  607         h1     20    bbb    H18    607 0.25637600   1.008000   ; qtot 0.200234
  608         os     20    bbb     O1    608 -0.20025300  16.000000   ; qtot -0.000019
; residue   21 bbb rtp bbb q -0.0
  609         n3     21    bbb     N1    609 -0.59685800  14.010000   ; qtot -0.596877
  610         c3     21    bbb     C1    610 0.10137000  12.010000   ; qtot -0.495507
  611         h1     21    bbb     H1    611 0.04411300   1.008000   ; qtot -0.451394
  612         h1     21    bbb     H2    612 0.04411300   1.008000   ; qtot -0.407281
  613         c3     21    bbb     C2    613 0.10137000  12.010000   ; qtot -0.305911
  614         h1     21    bbb     H3    614 0.04411300   1.008000   ; qtot -0.261798
  615         h1     21    bbb     H4    615 0.04411300   1.008000   ; qtot -0.217685
  616         c3     21    bbb     C3    616 -0.00195300  12.010000   ; qtot -0.219638
  617         h1     21    bbb     H5    617 0.05064400   1.008000   ; qtot -0.168994
  618         h1     21    bbb     H6    618 0.05064400   1.008000   ; qtot -0.118350
  619         c3     21    bbb     C4    619 -0.01612100  12.010000   ; qtot -0.134471
  620         hc     21    bbb     H7    620 0.04936100   1.008000   ; qtot -0.085110
  621         hc     21    bbb     H8    621 0.04936100   1.008000   ; qtot -0.035749
  622         c3     21    bbb     C5    622 0.11363000  12.010000   ; qtot 0.077881
  623         hc     21    bbb     H9    623 0.06265900   1.008000   ; qtot 0.140540
  624         hc     21    bbb    H10    624 0.06265900   1.008000   ; qtot 0.203199
  625         c3     21    bbb     C6    625 0.11363000  12.010000   ; qtot 0.316829
  626         hc     21    bbb    H11    626 0.06265900   1.008000   ; qtot 0.379488
  627         hc     21    bbb    H12    627 0.06265900   1.008000   ; qtot 0.442147
  628         c3     21    bbb     C7    628 0.05858200  12.010000   ; qtot 0.500729
  629         h1     21    bbb    H13    629 0.06123400   1.008000   ; qtot 0.561963
  630         h1     21    bbb    H14    630 0.06123400   1.008000   ; qtot 0.623197
  631         c3     21    bbb     C8    631 -0.72423400  12.010000   ; qtot -0.101037
  632         h1     21    bbb    H15    632 0.25637600   1.008000   ; qtot 0.155339
  633         h1     21    bbb    H16    633 0.25637600   1.008000   ; qtot 0.411715
  634         c3     21    bbb     C9    634 -0.72423400  12.010000   ; qtot -0.312519
  635         h1     21    bbb    H17    635 0.25637600   1.008000   ; qtot -0.056143
  636         h1     21    bbb    H18    636 0.25637600   1.008000   ; qtot 0.200233
  637         os     21    bbb     O1    637 -0.20025300  16.000000   ; qtot -0.000020
; residue   22 bbb rtp bbb q -0.0
  638         n3     22    bbb     N1    638 -0.59685800  14.010000   ; qtot -0.596878
  639         c3     22    bbb     C1    639 0.10137000  12.010000   ; qtot -0.495508
  640         h1     22    bbb     H1    640 0.04411300   1.008000   ; qtot -0.451395
  641         h1     22    bbb     H2    641 0.04411300   1.008000   ; qtot -0.407282
  642         c3     22    bbb     C2    642 0.10137000  12.010000   ; qtot -0.305912
  643         h1     22    bbb     H3    643 0.04411300   1.008000   ; qtot -0.261799
  644         h1     22    bbb     H4    644 0.04411300   1.008000   ; qtot -0.217686
  645         c3     22    bbb     C3    645 -0.00195300  12.010000   ; qtot -0.219639
  646         h1     22    bbb     H5    646 0.05064400   1.008000   ; qtot -0.168995
  647         h1     22    bbb     H6    647 0.05064400   1.008000   ; qtot -0.118351
  648         c3     22    bbb     C4    648 -0.01612100  12.010000   ; qtot -0.134472
  649         hc     22    bbb     H7    649 0.04936100   1.008000   ; qtot -0.085111
  650         hc     22    bbb     H8    650 0.04936100   1.008000   ; qtot -0.035750
  651         c3     22    bbb     C5    651 0.11363000  12.010000   ; qtot 0.077880
  652         hc     22    bbb     H9    652 0.06265900   1.008000   ; qtot 0.140539
  653         hc     22    bbb    H10    653 0.06265900   1.008000   ; qtot 0.203198
  654         c3     22    bbb     C6    654 0.11363000  12.010000   ; qtot 0.316828
  655         hc     22    bbb    H11    655 0.06265900   1.008000   ; qtot 0.379487
  656         hc     22    bbb    H12    656 0.06265900   1.008000   ; qtot 0.442146
  657         c3     22    bbb     C7    657 0.05858200  12.010000   ; qtot 0.500728
  658         h1     22    bbb    H13    658 0.06123400   1.008000   ; qtot 0.561962
  659         h1     22    bbb    H14    659 0.06123400   1.008000   ; qtot 0.623196
  660         c3     22    bbb     C8    660 -0.72423400  12.010000   ; qtot -0.101038
  661         h1     22    bbb    H15    661 0.25637600   1.008000   ; qtot 0.155338
  662         h1     22    bbb    H16    662 0.25637600   1.008000   ; qtot 0.411714
  663         c3     22    bbb     C9    663 -0.72423400  12.010000   ; qtot -0.312520
  664         h1     22    bbb    H17    664 0.25637600   1.008000   ; qtot -0.056144
  665         h1     22    bbb    H18    665 0.25637600   1.008000   ; qtot 0.200232
  666         os     22    bbb     O1    666 -0.20025300  16.000000   ; qtot -0.000021
; residue   23 bbb rtp bbb q -0.0
  667         n3     23    bbb     N1    667 -0.59685800  14.010000   ; qtot -0.596879
  668         c3     23    bbb     C1    668 0.10137000  12.010000   ; qtot -0.495509
  669         h1     23    bbb     H1    669 0.04411300   1.008000   ; qtot -0.451396
  670         h1     23    bbb     H2    670 0.04411300   1.008000   ; qtot -0.407283
  671         c3     23    bbb     C2    671 0.10137000  12.010000   ; qtot -0.305913
  672         h1     23    bbb     H3    672 0.04411300   1.008000   ; qtot -0.261800
  673         h1     23    bbb     H4    673 0.04411300   1.008000   ; qtot -0.217687
  674         c3     23    bbb     C3    674 -0.00195300  12.010000   ; qtot -0.219640
  675         h1     23    bbb     H5    675 0.05064400   1.008000   ; qtot -0.168996
  676         h1     23    bbb     H6    676 0.05064400   1.008000   ; qtot -0.118352
  677         c3     23    bbb     C4    677 -0.01612100  12.010000   ; qtot -0.134473
  678         hc     23    bbb     H7    678 0.04936100   1.008000   ; qtot -0.085112
  679         hc     23    bbb     H8    679 0.04936100   1.008000   ; qtot -0.035751
  680         c3     23    bbb     C5    680 0.11363000  12.010000   ; qtot 0.077879
  681         hc     23    bbb     H9    681 0.06265900   1.008000   ; qtot 0.140538
  682         hc     23    bbb    H10    682 0.06265900   1.008000   ; qtot 0.203197
  683         c3     23    bbb     C6    683 0.11363000  12.010000   ; qtot 0.316827
  684         hc     23    bbb    H11    684 0.06265900   1.008000   ; qtot 0.379486
  685         hc     23    bbb    H12    685 0.06265900   1.008000   ; qtot 0.442145
  686         c3     23    bbb     C7    686 0.05858200  12.010000   ; qtot 0.500727
  687         h1     23    bbb    H13    687 0.06123400   1.008000   ; qtot 0.561961
  688         h1     23    bbb    H14    688 0.06123400   1.008000   ; qtot 0.623195
  689         c3     23    bbb     C8    689 -0.72423400  12.010000   ; qtot -0.101039
  690         h1     23    bbb    H15    690 0.25637600   1.008000   ; qtot 0.155337
  691         h1     23    bbb    H16    691 0.25637600   1.008000   ; qtot 0.411713
  692         c3     23    bbb     C9    692 -0.72423400  12.010000   ; qtot -0.312521
  693         h1     23    bbb    H17    693 0.25637600   1.008000   ; qtot -0.056145
  694         h1     23    bbb    H18    694 0.25637600   1.008000   ; qtot 0.200231
  695         os     23    bbb     O1    695 -0.20025300  16.000000   ; qtot -0.000022
; residue   24 bbb rtp bbb q -0.0
  696         n3     24    bbb     N1    696 -0.59685800  14.010000   ; qtot -0.596880
  697         c3     24    bbb     C1    697 0.10137000  12.010000   ; qtot -0.495510
  698         h1     24    bbb     H1    698 0.04411300   1.008000   ; qtot -0.451397
  699         h1     24    bbb     H2    699 0.04411300   1.008000   ; qtot -0.407284
  700         c3     24    bbb     C2    700 0.10137000  12.010000   ; qtot -0.305914
  701         h1     24    bbb     H3    701 0.04411300   1.008000   ; qtot -0.261801
  702         h1     24    bbb     H4    702 0.04411300   1.008000   ; qtot -0.217688
  703         c3     24    bbb     C3    703 -0.00195300  12.010000   ; qtot -0.219641
  704         h1     24    bbb     H5    704 0.05064400   1.008000   ; qtot -0.168997
  705         h1     24    bbb     H6    705 0.05064400   1.008000   ; qtot -0.118353
  706         c3     24    bbb     C4    706 -0.01612100  12.010000   ; qtot -0.134474
  707         hc     24    bbb     H7    707 0.04936100   1.008000   ; qtot -0.085113
  708         hc     24    bbb     H8    708 0.04936100   1.008000   ; qtot -0.035752
  709         c3     24    bbb     C5    709 0.11363000  12.010000   ; qtot 0.077878
  710         hc     24    bbb     H9    710 0.06265900   1.008000   ; qtot 0.140537
  711         hc     24    bbb    H10    711 0.06265900   1.008000   ; qtot 0.203196
  712         c3     24    bbb     C6    712 0.11363000  12.010000   ; qtot 0.316826
  713         hc     24    bbb    H11    713 0.06265900   1.008000   ; qtot 0.379485
  714         hc     24    bbb    H12    714 0.06265900   1.008000   ; qtot 0.442144
  715         c3     24    bbb     C7    715 0.05858200  12.010000   ; qtot 0.500726
  716         h1     24    bbb    H13    716 0.06123400   1.008000   ; qtot 0.561960
  717         h1     24    bbb    H14    717 0.06123400   1.008000   ; qtot 0.623194
  718         c3     24    bbb     C8    718 -0.72423400  12.010000   ; qtot -0.101040
  719         h1     24    bbb    H15    719 0.25637600   1.008000   ; qtot 0.155336
  720         h1     24    bbb    H16    720 0.25637600   1.008000   ; qtot 0.411712
  721         c3     24    bbb     C9    721 -0.72423400  12.010000   ; qtot -0.312522
  722         h1     24    bbb    H17    722 0.25637600   1.008000   ; qtot -0.056146
  723         h1     24    bbb    H18    723 0.25637600   1.008000   ; qtot 0.200230
  724         os     24    bbb     O1    724 -0.20025300  16.000000   ; qtot -0.000023
; residue   25 bbb rtp bbb q -0.0
  725         n3     25    bbb     N1    725 -0.59685800  14.010000   ; qtot -0.596881
  726         c3     25    bbb     C1    726 0.10137000  12.010000   ; qtot -0.495511
  727         h1     25    bbb     H1    727 0.04411300   1.008000   ; qtot -0.451398
  728         h1     25    bbb     H2    728 0.04411300   1.008000   ; qtot -0.407285
  729         c3     25    bbb     C2    729 0.10137000  12.010000   ; qtot -0.305915
  730         h1     25    bbb     H3    730 0.04411300   1.008000   ; qtot -0.261802
  731         h1     25    bbb     H4    731 0.04411300   1.008000   ; qtot -0.217689
  732         c3     25    bbb     C3    732 -0.00195300  12.010000   ; qtot -0.219642
  733         h1     25    bbb     H5    733 0.05064400   1.008000   ; qtot -0.168998
  734         h1     25    bbb     H6    734 0.05064400   1.008000   ; qtot -0.118354
  735         c3     25    bbb     C4    735 -0.01612100  12.010000   ; qtot -0.134475
  736         hc     25    bbb     H7    736 0.04936100   1.008000   ; qtot -0.085114
  737         hc     25    bbb     H8    737 0.04936100   1.008000   ; qtot -0.035753
  738         c3     25    bbb     C5    738 0.11363000  12.010000   ; qtot 0.077877
  739         hc     25    bbb     H9    739 0.06265900   1.008000   ; qtot 0.140536
  740         hc     25    bbb    H10    740 0.06265900   1.008000   ; qtot 0.203195
  741         c3     25    bbb     C6    741 0.11363000  12.010000   ; qtot 0.316825
  742         hc     25    bbb    H11    742 0.06265900   1.008000   ; qtot 0.379484
  743         hc     25    bbb    H12    743 0.06265900   1.008000   ; qtot 0.442143
  744         c3     25    bbb     C7    744 0.05858200  12.010000   ; qtot 0.500725
  745         h1     25    bbb    H13    745 0.06123400   1.008000   ; qtot 0.561959
  746         h1     25    bbb    H14    746 0.06123400   1.008000   ; qtot 0.623193
  747         c3     25    bbb     C8    747 -0.72423400  12.010000   ; qtot -0.101041
  748         h1     25    bbb    H15    748 0.25637600   1.008000   ; qtot 0.155335
  749         h1     25    bbb    H16    749 0.25637600   1.008000   ; qtot 0.411711
  750         c3     25    bbb     C9    750 -0.72423400  12.010000   ; qtot -0.312523
  751         h1     25    bbb    H17    751 0.25637600   1.008000   ; qtot -0.056147
  752         h1     25    bbb    H18    752 0.25637600   1.008000   ; qtot 0.200229
  753         os     25    bbb     O1    753 -0.20025300  16.000000   ; qtot -0.000024
; residue   26 bbb rtp bbb q -0.0
  754         n3     26    bbb     N1    754 -0.59685800  14.010000   ; qtot -0.596882
  755         c3     26    bbb     C1    755 0.10137000  12.010000   ; qtot -0.495512
  756         h1     26    bbb     H1    756 0.04411300   1.008000   ; qtot -0.451399
  757         h1     26    bbb     H2    757 0.04411300   1.008000   ; qtot -0.407286
  758         c3     26    bbb     C2    758 0.10137000  12.010000   ; qtot -0.305916
  759         h1     26    bbb     H3    759 0.04411300   1.008000   ; qtot -0.261803
  760         h1     26    bbb     H4    760 0.04411300   1.008000   ; qtot -0.217690
  761         c3     26    bbb     C3    761 -0.00195300  12.010000   ; qtot -0.219643
  762         h1     26    bbb     H5    762 0.05064400   1.008000   ; qtot -0.168999
  763         h1     26    bbb     H6    763 0.05064400   1.008000   ; qtot -0.118355
  764         c3     26    bbb     C4    764 -0.01612100  12.010000   ; qtot -0.134476
  765         hc     26    bbb     H7    765 0.04936100   1.008000   ; qtot -0.085115
  766         hc     26    bbb     H8    766 0.04936100   1.008000   ; qtot -0.035754
  767         c3     26    bbb     C5    767 0.11363000  12.010000   ; qtot 0.077876
  768         hc     26    bbb     H9    768 0.06265900   1.008000   ; qtot 0.140535
  769         hc     26    bbb    H10    769 0.06265900   1.008000   ; qtot 0.203194
  770         c3     26    bbb     C6    770 0.11363000  12.010000   ; qtot 0.316824
  771         hc     26    bbb    H11    771 0.06265900   1.008000   ; qtot 0.379483
  772         hc     26    bbb    H12    772 0.06265900   1.008000   ; qtot 0.442142
  773         c3     26    bbb     C7    773 0.05858200  12.010000   ; qtot 0.500724
  774         h1     26    bbb    H13    774 0.06123400   1.008000   ; qtot 0.561958
  775         h1     26    bbb    H14    775 0.06123400   1.008000   ; qtot 0.623192
  776         c3     26    bbb     C8    776 -0.72423400  12.010000   ; qtot -0.101042
  777         h1     26    bbb    H15    777 0.25637600   1.008000   ; qtot 0.155334
  778         h1     26    bbb    H16    778 0.25637600   1.008000   ; qtot 0.411710
  779         c3     26    bbb     C9    779 -0.72423400  12.010000   ; qtot -0.312524
  780         h1     26    bbb    H17    780 0.25637600   1.008000   ; qtot -0.056148
  781         h1     26    bbb    H18    781 0.25637600   1.008000   ; qtot 0.200228
  782         os     26    bbb     O1    782 -0.20025300  16.000000   ; qtot -0.000025
; residue   27 bbb rtp bbb q -0.0
  783         n3     27    bbb     N1    783 -0.59685800  14.010000   ; qtot -0.596883
  784         c3     27    bbb     C1    784 0.10137000  12.010000   ; qtot -0.495513
  785         h1     27    bbb     H1    785 0.04411300   1.008000   ; qtot -0.451400
  786         h1     27    bbb     H2    786 0.04411300   1.008000   ; qtot -0.407287
  787         c3     27    bbb     C2    787 0.10137000  12.010000   ; qtot -0.305917
  788         h1     27    bbb     H3    788 0.04411300   1.008000   ; qtot -0.261804
  789         h1     27    bbb     H4    789 0.04411300   1.008000   ; qtot -0.217691
  790         c3     27    bbb     C3    790 -0.00195300  12.010000   ; qtot -0.219644
  791         h1     27    bbb     H5    791 0.05064400   1.008000   ; qtot -0.169000
  792         h1     27    bbb     H6    792 0.05064400   1.008000   ; qtot -0.118356
  793         c3     27    bbb     C4    793 -0.01612100  12.010000   ; qtot -0.134477
  794         hc     27    bbb     H7    794 0.04936100   1.008000   ; qtot -0.085116
  795         hc     27    bbb     H8    795 0.04936100   1.008000   ; qtot -0.035755
  796         c3     27    bbb     C5    796 0.11363000  12.010000   ; qtot 0.077875
  797         hc     27    bbb     H9    797 0.06265900   1.008000   ; qtot 0.140534
  798         hc     27    bbb    H10    798 0.06265900   1.008000   ; qtot 0.203193
  799         c3     27    bbb     C6    799 0.11363000  12.010000   ; qtot 0.316823
  800         hc     27    bbb    H11    800 0.06265900   1.008000   ; qtot 0.379482
  801         hc     27    bbb    H12    801 0.06265900   1.008000   ; qtot 0.442141
  802         c3     27    bbb     C7    802 0.05858200  12.010000   ; qtot 0.500723
  803         h1     27    bbb    H13    803 0.06123400   1.008000   ; qtot 0.561957
  804         h1     27    bbb    H14    804 0.06123400   1.008000   ; qtot 0.623191
  805         c3     27    bbb     C8    805 -0.72423400  12.010000   ; qtot -0.101043
  806         h1     27    bbb    H15    806 0.25637600   1.008000   ; qtot 0.155333
  807         h1     27    bbb    H16    807 0.25637600   1.008000   ; qtot 0.411709
  808         c3     27    bbb     C9    808 -0.72423400  12.010000   ; qtot -0.312525
  809         h1     27    bbb    H17    809 0.25637600   1.008000   ; qtot -0.056149
  810         h1     27    bbb    H18    810 0.25637600   1.008000   ; qtot 0.200227
  811         os     27    bbb     O1    811 -0.20025300  16.000000   ; qtot -0.000026
; residue   28 bbb rtp bbb q -0.0
  812         n3     28    bbb     N1    812 -0.59685800  14.010000   ; qtot -0.596884
  813         c3     28    bbb     C1    813 0.10137000  12.010000   ; qtot -0.495514
  814         h1     28    bbb     H1    814 0.04411300   1.008000   ; qtot -0.451401
  815         h1     28    bbb     H2    815 0.04411300   1.008000   ; qtot -0.407288
  816         c3     28    bbb     C2    816 0.10137000  12.010000   ; qtot -0.305918
  817         h1     28    bbb     H3    817 0.04411300   1.008000   ; qtot -0.261805
  818         h1     28    bbb     H4    818 0.04411300   1.008000   ; qtot -0.217692
  819         c3     28    bbb     C3    819 -0.00195300  12.010000   ; qtot -0.219645
  820         h1     28    bbb     H5    820 0.05064400   1.008000   ; qtot -0.169001
  821         h1     28    bbb     H6    821 0.05064400   1.008000   ; qtot -0.118357
  822         c3     28    bbb     C4    822 -0.01612100  12.010000   ; qtot -0.134478
  823         hc     28    bbb     H7    823 0.04936100   1.008000   ; qtot -0.085117
  824         hc     28    bbb     H8    824 0.04936100   1.008000   ; qtot -0.035756
  825         c3     28    bbb     C5    825 0.11363000  12.010000   ; qtot 0.077874
  826         hc     28    bbb     H9    826 0.06265900   1.008000   ; qtot 0.140533
  827         hc     28    bbb    H10    827 0.06265900   1.008000   ; qtot 0.203192
  828         c3     28    bbb     C6    828 0.11363000  12.010000   ; qtot 0.316822
  829         hc     28    bbb    H11    829 0.06265900   1.008000   ; qtot 0.379481
  830         hc     28    bbb    H12    830 0.06265900   1.008000   ; qtot 0.442140
  831         c3     28    bbb     C7    831 0.05858200  12.010000   ; qtot 0.500722
  832         h1     28    bbb    H13    832 0.06123400   1.008000   ; qtot 0.561956
  833         h1     28    bbb    H14    833 0.06123400   1.008000   ; qtot 0.623190
  834         c3     28    bbb     C8    834 -0.72423400  12.010000   ; qtot -0.101044
  835         h1     28    bbb    H15    835 0.25637600   1.008000   ; qtot 0.155332
  836         h1     28    bbb    H16    836 0.25637600   1.008000   ; qtot 0.411708
  837         c3     28    bbb     C9    837 -0.72423400  12.010000   ; qtot -0.312526
  838         h1     28    bbb    H17    838 0.25637600   1.008000   ; qtot -0.056150
  839         h1     28    bbb    H18    839 0.25637600   1.008000   ; qtot 0.200226
  840         os     28    bbb     O1    840 -0.20025300  16.000000   ; qtot -0.000027
; residue   29 bbb rtp bbb q -0.0
  841         n3     29    bbb     N1    841 -0.59685800  14.010000   ; qtot -0.596885
  842         c3     29    bbb     C1    842 0.10137000  12.010000   ; qtot -0.495515
  843         h1     29    bbb     H1    843 0.04411300   1.008000   ; qtot -0.451402
  844         h1     29    bbb     H2    844 0.04411300   1.008000   ; qtot -0.407289
  845         c3     29    bbb     C2    845 0.10137000  12.010000   ; qtot -0.305919
  846         h1     29    bbb     H3    846 0.04411300   1.008000   ; qtot -0.261806
  847         h1     29    bbb     H4    847 0.04411300   1.008000   ; qtot -0.217693
  848         c3     29    bbb     C3    848 -0.00195300  12.010000   ; qtot -0.219646
  849         h1     29    bbb     H5    849 0.05064400   1.008000   ; qtot -0.169002
  850         h1     29    bbb     H6    850 0.05064400   1.008000   ; qtot -0.118358
  851         c3     29    bbb     C4    851 -0.01612100  12.010000   ; qtot -0.134479
  852         hc     29    bbb     H7    852 0.04936100   1.008000   ; qtot -0.085118
  853         hc     29    bbb     H8    853 0.04936100   1.008000   ; qtot -0.035757
  854         c3     29    bbb     C5    854 0.11363000  12.010000   ; qtot 0.077873
  855         hc     29    bbb     H9    855 0.06265900   1.008000   ; qtot 0.140532
  856         hc     29    bbb    H10    856 0.06265900   1.008000   ; qtot 0.203191
  857         c3     29    bbb     C6    857 0.11363000  12.010000   ; qtot 0.316821
  858         hc     29    bbb    H11    858 0.06265900   1.008000   ; qtot 0.379480
  859         hc     29    bbb    H12    859 0.06265900   1.008000   ; qtot 0.442139
  860         c3     29    bbb     C7    860 0.05858200  12.010000   ; qtot 0.500721
  861         h1     29    bbb    H13    861 0.06123400   1.008000   ; qtot 0.561955
  862         h1     29    bbb    H14    862 0.06123400   1.008000   ; qtot 0.623189
  863         c3     29    bbb     C8    863 -0.72423400  12.010000   ; qtot -0.101045
  864         h1     29    bbb    H15    864 0.25637600   1.008000   ; qtot 0.155331
  865         h1     29    bbb    H16    865 0.25637600   1.008000   ; qtot 0.411707
  866         c3     29    bbb     C9    866 -0.72423400  12.010000   ; qtot -0.312527
  867         h1     29    bbb    H17    867 0.25637600   1.008000   ; qtot -0.056151
  868         h1     29    bbb    H18    868 0.25637600   1.008000   ; qtot 0.200225
  869         os     29    bbb     O1    869 -0.20025300  16.000000   ; qtot -0.000028
; residue   30 bbb rtp bbb q -0.0
  870         n3     30    bbb     N1    870 -0.59685800  14.010000   ; qtot -0.596886
  871         c3     30    bbb     C1    871 0.10137000  12.010000   ; qtot -0.495516
  872         h1     30    bbb     H1    872 0.04411300   1.008000   ; qtot -0.451403
  873         h1     30    bbb     H2    873 0.04411300   1.008000   ; qtot -0.407290
  874         c3     30    bbb     C2    874 0.10137000  12.010000   ; qtot -0.305920
  875         h1     30    bbb     H3    875 0.04411300   1.008000   ; qtot -0.261807
  876         h1     30    bbb     H4    876 0.04411300   1.008000   ; qtot -0.217694
  877         c3     30    bbb     C3    877 -0.00195300  12.010000   ; qtot -0.219647
  878         h1     30    bbb     H5    878 0.05064400   1.008000   ; qtot -0.169003
  879         h1     30    bbb     H6    879 0.05064400   1.008000   ; qtot -0.118359
  880         c3     30    bbb     C4    880 -0.01612100  12.010000   ; qtot -0.134480
  881         hc     30    bbb     H7    881 0.04936100   1.008000   ; qtot -0.085119
  882         hc     30    bbb     H8    882 0.04936100   1.008000   ; qtot -0.035758
  883         c3     30    bbb     C5    883 0.11363000  12.010000   ; qtot 0.077872
  884         hc     30    bbb     H9    884 0.06265900   1.008000   ; qtot 0.140531
  885         hc     30    bbb    H10    885 0.06265900   1.008000   ; qtot 0.203190
  886         c3     30    bbb     C6    886 0.11363000  12.010000   ; qtot 0.316820
  887         hc     30    bbb    H11    887 0.06265900   1.008000   ; qtot 0.379479
  888         hc     30    bbb    H12    888 0.06265900   1.008000   ; qtot 0.442138
  889         c3     30    bbb     C7    889 0.05858200  12.010000   ; qtot 0.500720
  890         h1     30    bbb    H13    890 0.06123400   1.008000   ; qtot 0.561954
  891         h1     30    bbb    H14    891 0.06123400   1.008000   ; qtot 0.623188
  892         c3     30    bbb     C8    892 -0.72423400  12.010000   ; qtot -0.101046
  893         h1     30    bbb    H15    893 0.25637600   1.008000   ; qtot 0.155330
  894         h1     30    bbb    H16    894 0.25637600   1.008000   ; qtot 0.411706
  895         c3     30    bbb     C9    895 -0.72423400  12.010000   ; qtot -0.312528
  896         h1     30    bbb    H17    896 0.25637600   1.008000   ; qtot -0.056152
  897         h1     30    bbb    H18    897 0.25637600   1.008000   ; qtot 0.200224
  898         os     30    bbb     O1    898 -0.20025300  16.000000   ; qtot -0.000029
; residue   31 bbb rtp bbb q -0.0
  899         n3     31    bbb     N1    899 -0.59685800  14.010000   ; qtot -0.596887
  900         c3     31    bbb     C1    900 0.10137000  12.010000   ; qtot -0.495517
  901         h1     31    bbb     H1    901 0.04411300   1.008000   ; qtot -0.451404
  902         h1     31    bbb     H2    902 0.04411300   1.008000   ; qtot -0.407291
  903         c3     31    bbb     C2    903 0.10137000  12.010000   ; qtot -0.305921
  904         h1     31    bbb     H3    904 0.04411300   1.008000   ; qtot -0.261808
  905         h1     31    bbb     H4    905 0.04411300   1.008000   ; qtot -0.217695
  906         c3     31    bbb     C3    906 -0.00195300  12.010000   ; qtot -0.219648
  907         h1     31    bbb     H5    907 0.05064400   1.008000   ; qtot -0.169004
  908         h1     31    bbb     H6    908 0.05064400   1.008000   ; qtot -0.118360
  909         c3     31    bbb     C4    909 -0.01612100  12.010000   ; qtot -0.134481
  910         hc     31    bbb     H7    910 0.04936100   1.008000   ; qtot -0.085120
  911         hc     31    bbb     H8    911 0.04936100   1.008000   ; qtot -0.035759
  912         c3     31    bbb     C5    912 0.11363000  12.010000   ; qtot 0.077871
  913         hc     31    bbb     H9    913 0.06265900   1.008000   ; qtot 0.140530
  914         hc     31    bbb    H10    914 0.06265900   1.008000   ; qtot 0.203189
  915         c3     31    bbb     C6    915 0.11363000  12.010000   ; qtot 0.316819
  916         hc     31    bbb    H11    916 0.06265900   1.008000   ; qtot 0.379478
  917         hc     31    bbb    H12    917 0.06265900   1.008000   ; qtot 0.442137
  918         c3     31    bbb     C7    918 0.05858200  12.010000   ; qtot 0.500719
  919         h1     31    bbb    H13    919 0.06123400   1.008000   ; qtot 0.561953
  920         h1     31    bbb    H14    920 0.06123400   1.008000   ; qtot 0.623187
  921         c3     31    bbb     C8    921 -0.72423400  12.010000   ; qtot -0.101047
  922         h1     31    bbb    H15    922 0.25637600   1.008000   ; qtot 0.155329
  923         h1     31    bbb    H16    923 0.25637600   1.008000   ; qtot 0.411705
  924         c3     31    bbb     C9    924 -0.72423400  12.010000   ; qtot -0.312529
  925         h1     31    bbb    H17    925 0.25637600   1.008000   ; qtot -0.056153
  926         h1     31    bbb    H18    926 0.25637600   1.008000   ; qtot 0.200223
  927         os     31    bbb     O1    927 -0.20025300  16.000000   ; qtot -0.000030
; residue   32 bbb rtp bbb q -0.0
  928         n3     32    bbb     N1    928 -0.59685800  14.010000   ; qtot -0.596888
  929         c3     32    bbb     C1    929 0.10137000  12.010000   ; qtot -0.495518
  930         h1     32    bbb     H1    930 0.04411300   1.008000   ; qtot -0.451405
  931         h1     32    bbb     H2    931 0.04411300   1.008000   ; qtot -0.407292
  932         c3     32    bbb     C2    932 0.10137000  12.010000   ; qtot -0.305922
  933         h1     32    bbb     H3    933 0.04411300   1.008000   ; qtot -0.261809
  934         h1     32    bbb     H4    934 0.04411300   1.008000   ; qtot -0.217696
  935         c3     32    bbb     C3    935 -0.00195300  12.010000   ; qtot -0.219649
  936         h1     32    bbb     H5    936 0.05064400   1.008000   ; qtot -0.169005
  937         h1     32    bbb     H6    937 0.05064400   1.008000   ; qtot -0.118361
  938         c3     32    bbb     C4    938 -0.01612100  12.010000   ; qtot -0.134482
  939         hc     32    bbb     H7    939 0.04936100   1.008000   ; qtot -0.085121
  940         hc     32    bbb     H8    940 0.04936100   1.008000   ; qtot -0.035760
  941         c3     32    bbb     C5    941 0.11363000  12.010000   ; qtot 0.077870
  942         hc     32    bbb     H9    942 0.06265900   1.008000   ; qtot 0.140529
  943         hc     32    bbb    H10    943 0.06265900   1.008000   ; qtot 0.203188
  944         c3     32    bbb     C6    944 0.11363000  12.010000   ; qtot 0.316818
  945         hc     32    bbb    H11    945 0.06265900   1.008000   ; qtot 0.379477
  946         hc     32    bbb    H12    946 0.06265900   1.008000   ; qtot 0.442136
  947         c3     32    bbb     C7    947 0.05858200  12.010000   ; qtot 0.500718
  948         h1     32    bbb    H13    948 0.06123400   1.008000   ; qtot 0.561952
  949         h1     32    bbb    H14    949 0.06123400   1.008000   ; qtot 0.623186
  950         c3     32    bbb     C8    950 -0.72423400  12.010000   ; qtot -0.101048
  951         h1     32    bbb    H15    951 0.25637600   1.008000   ; qtot 0.155328
  952         h1     32    bbb    H16    952 0.25637600   1.008000   ; qtot 0.411704
  953         c3     32    bbb     C9    953 -0.72423400  12.010000   ; qtot -0.312530
  954         h1     32    bbb    H17    954 0.25637600   1.008000   ; qtot -0.056154
  955         h1     32    bbb    H18    955 0.25637600   1.008000   ; qtot 0.200222
  956         os     32    bbb     O1    956 -0.20025300  16.000000   ; qtot -0.000031
; residue   33 bbb rtp bbb q -0.0
  957         n3     33    bbb     N1    957 -0.59685800  14.010000   ; qtot -0.596889
  958         c3     33    bbb     C1    958 0.10137000  12.010000   ; qtot -0.495519
  959         h1     33    bbb     H1    959 0.04411300   1.008000   ; qtot -0.451406
  960         h1     33    bbb     H2    960 0.04411300   1.008000   ; qtot -0.407293
  961         c3     33    bbb     C2    961 0.10137000  12.010000   ; qtot -0.305923
  962         h1     33    bbb     H3    962 0.04411300   1.008000   ; qtot -0.261810
  963         h1     33    bbb     H4    963 0.04411300   1.008000   ; qtot -0.217697
  964         c3     33    bbb     C3    964 -0.00195300  12.010000   ; qtot -0.219650
  965         h1     33    bbb     H5    965 0.05064400   1.008000   ; qtot -0.169006
  966         h1     33    bbb     H6    966 0.05064400   1.008000   ; qtot -0.118362
  967         c3     33    bbb     C4    967 -0.01612100  12.010000   ; qtot -0.134483
  968         hc     33    bbb     H7    968 0.04936100   1.008000   ; qtot -0.085122
  969         hc     33    bbb     H8    969 0.04936100   1.008000   ; qtot -0.035761
  970         c3     33    bbb     C5    970 0.11363000  12.010000   ; qtot 0.077869
  971         hc     33    bbb     H9    971 0.06265900   1.008000   ; qtot 0.140528
  972         hc     33    bbb    H10    972 0.06265900   1.008000   ; qtot 0.203187
  973         c3     33    bbb     C6    973 0.11363000  12.010000   ; qtot 0.316817
  974         hc     33    bbb    H11    974 0.06265900   1.008000   ; qtot 0.379476
  975         hc     33    bbb    H12    975 0.06265900   1.008000   ; qtot 0.442135
  976         c3     33    bbb     C7    976 0.05858200  12.010000   ; qtot 0.500717
  977         h1     33    bbb    H13    977 0.06123400   1.008000   ; qtot 0.561951
  978         h1     33    bbb    H14    978 0.06123400   1.008000   ; qtot 0.623185
  979         c3     33    bbb     C8    979 -0.72423400  12.010000   ; qtot -0.101049
  980         h1     33    bbb    H15    980 0.25637600   1.008000   ; qtot 0.155327
  981         h1     33    bbb    H16    981 0.25637600   1.008000   ; qtot 0.411703
  982         c3     33    bbb     C9    982 -0.72423400  12.010000   ; qtot -0.312531
  983         h1     33    bbb    H17    983 0.25637600   1.008000   ; qtot -0.056155
  984         h1     33    bbb    H18    984 0.25637600   1.008000   ; qtot 0.200221
  985         os     33    bbb     O1    985 -0.20025300  16.000000   ; qtot -0.000032
; residue   34 bbb rtp bbb q -0.0
  986         n3     34    bbb     N1    986 -0.59685800  14.010000   ; qtot -0.596890
  987         c3     34    bbb     C1    987 0.10137000  12.010000   ; qtot -0.495520
  988         h1     34    bbb     H1    988 0.04411300   1.008000   ; qtot -0.451407
  989         h1     34    bbb     H2    989 0.04411300   1.008000   ; qtot -0.407294
  990         c3     34    bbb     C2    990 0.10137000  12.010000   ; qtot -0.305924
  991         h1     34    bbb     H3    991 0.04411300   1.008000   ; qtot -0.261811
  992         h1     34    bbb     H4    992 0.04411300   1.008000   ; qtot -0.217698
  993         c3     34    bbb     C3    993 -0.00195300  12.010000   ; qtot -0.219651
  994         h1     34    bbb     H5    994 0.05064400   1.008000   ; qtot -0.169007
  995         h1     34    bbb     H6    995 0.05064400   1.008000   ; qtot -0.118363
  996         c3     34    bbb     C4    996 -0.01612100  12.010000   ; qtot -0.134484
  997         hc     34    bbb     H7    997 0.04936100   1.008000   ; qtot -0.085123
  998         hc     34    bbb     H8    998 0.04936100   1.008000   ; qtot -0.035762
  999         c3     34    bbb     C5    999 0.11363000  12.010000   ; qtot 0.077868
 1000         hc     34    bbb     H9   1000 0.06265900   1.008000   ; qtot 0.140527
 1001         hc     34    bbb    H10   1001 0.06265900   1.008000   ; qtot 0.203186
 1002         c3     34    bbb     C6   1002 0.11363000  12.010000   ; qtot 0.316816
 1003         hc     34    bbb    H11   1003 0.06265900   1.008000   ; qtot 0.379475
 1004         hc     34    bbb    H12   1004 0.06265900   1.008000   ; qtot 0.442134
 1005         c3     34    bbb     C7   1005 0.05858200  12.010000   ; qtot 0.500716
 1006         h1     34    bbb    H13   1006 0.06123400   1.008000   ; qtot 0.561950
 1007         h1     34    bbb    H14   1007 0.06123400   1.008000   ; qtot 0.623184
 1008         c3     34    bbb     C8   1008 -0.72423400  12.010000   ; qtot -0.101050
 1009         h1     34    bbb    H15   1009 0.25637600   1.008000   ; qtot 0.155326
 1010         h1     34    bbb    H16   1010 0.25637600   1.008000   ; qtot 0.411702
 1011         c3     34    bbb     C9   1011 -0.72423400  12.010000   ; qtot -0.312532
 1012         h1     34    bbb    H17   1012 0.25637600   1.008000   ; qtot -0.056156
 1013         h1     34    bbb    H18   1013 0.25637600   1.008000   ; qtot 0.200220
 1014         os     34    bbb     O1   1014 -0.20025300  16.000000   ; qtot -0.000033
; residue   35 bbb rtp bbb q -0.0
 1015         n3     35    bbb     N1   1015 -0.59685800  14.010000   ; qtot -0.596891
 1016         c3     35    bbb     C1   1016 0.10137000  12.010000   ; qtot -0.495521
 1017         h1     35    bbb     H1   1017 0.04411300   1.008000   ; qtot -0.451408
 1018         h1     35    bbb     H2   1018 0.04411300   1.008000   ; qtot -0.407295
 1019         c3     35    bbb     C2   1019 0.10137000  12.010000   ; qtot -0.305925
 1020         h1     35    bbb     H3   1020 0.04411300   1.008000   ; qtot -0.261812
 1021         h1     35    bbb     H4   1021 0.04411300   1.008000   ; qtot -0.217699
 1022         c3     35    bbb     C3   1022 -0.00195300  12.010000   ; qtot -0.219652
 1023         h1     35    bbb     H5   1023 0.05064400   1.008000   ; qtot -0.169008
 1024         h1     35    bbb     H6   1024 0.05064400   1.008000   ; qtot -0.118364
 1025         c3     35    bbb     C4   1025 -0.01612100  12.010000   ; qtot -0.134485
 1026         hc     35    bbb     H7   1026 0.04936100   1.008000   ; qtot -0.085124
 1027         hc     35    bbb     H8   1027 0.04936100   1.008000   ; qtot -0.035763
 1028         c3     35    bbb     C5   1028 0.11363000  12.010000   ; qtot 0.077867
 1029         hc     35    bbb     H9   1029 0.06265900   1.008000   ; qtot 0.140526
 1030         hc     35    bbb    H10   1030 0.06265900   1.008000   ; qtot 0.203185
 1031         c3     35    bbb     C6   1031 0.11363000  12.010000   ; qtot 0.316815
 1032         hc     35    bbb    H11   1032 0.06265900   1.008000   ; qtot 0.379474
 1033         hc     35    bbb    H12   1033 0.06265900   1.008000   ; qtot 0.442133
 1034         c3     35    bbb     C7   1034 0.05858200  12.010000   ; qtot 0.500715
 1035         h1     35    bbb    H13   1035 0.06123400   1.008000   ; qtot 0.561949
 1036         h1     35    bbb    H14   1036 0.06123400   1.008000   ; qtot 0.623183
 1037         c3     35    bbb     C8   1037 -0.72423400  12.010000   ; qtot -0.101051
 1038         h1     35    bbb    H15   1038 0.25637600   1.008000   ; qtot 0.155325
 1039         h1     35    bbb    H16   1039 0.25637600   1.008000   ; qtot 0.411701
 1040         c3     35    bbb     C9   1040 -0.72423400  12.010000   ; qtot -0.312533
 1041         h1     35    bbb    H17   1041 0.25637600   1.008000   ; qtot -0.056157
 1042         h1     35    bbb    H18   1042 0.25637600   1.008000   ; qtot 0.200219
 1043         os     35    bbb     O1   1043 -0.20025300  16.000000   ; qtot -0.000034
; residue   36 bbb rtp bbb q -0.0
 1044         n3     36    bbb     N1   1044 -0.59685800  14.010000   ; qtot -0.596892
 1045         c3     36    bbb     C1   1045 0.10137000  12.010000   ; qtot -0.495522
 1046         h1     36    bbb     H1   1046 0.04411300   1.008000   ; qtot -0.451409
 1047         h1     36    bbb     H2   1047 0.04411300   1.008000   ; qtot -0.407296
 1048         c3     36    bbb     C2   1048 0.10137000  12.010000   ; qtot -0.305926
 1049         h1     36    bbb     H3   1049 0.04411300   1.008000   ; qtot -0.261813
 1050         h1     36    bbb     H4   1050 0.04411300   1.008000   ; qtot -0.217700
 1051         c3     36    bbb     C3   1051 -0.00195300  12.010000   ; qtot -0.219653
 1052         h1     36    bbb     H5   1052 0.05064400   1.008000   ; qtot -0.169009
 1053         h1     36    bbb     H6   1053 0.05064400   1.008000   ; qtot -0.118365
 1054         c3     36    bbb     C4   1054 -0.01612100  12.010000   ; qtot -0.134486
 1055         hc     36    bbb     H7   1055 0.04936100   1.008000   ; qtot -0.085125
 1056         hc     36    bbb     H8   1056 0.04936100   1.008000   ; qtot -0.035764
 1057         c3     36    bbb     C5   1057 0.11363000  12.010000   ; qtot 0.077866
 1058         hc     36    bbb     H9   1058 0.06265900   1.008000   ; qtot 0.140525
 1059         hc     36    bbb    H10   1059 0.06265900   1.008000   ; qtot 0.203184
 1060         c3     36    bbb     C6   1060 0.11363000  12.010000   ; qtot 0.316814
 1061         hc     36    bbb    H11   1061 0.06265900   1.008000   ; qtot 0.379473
 1062         hc     36    bbb    H12   1062 0.06265900   1.008000   ; qtot 0.442132
 1063         c3     36    bbb     C7   1063 0.05858200  12.010000   ; qtot 0.500714
 1064         h1     36    bbb    H13   1064 0.06123400   1.008000   ; qtot 0.561948
 1065         h1     36    bbb    H14   1065 0.06123400   1.008000   ; qtot 0.623182
 1066         c3     36    bbb     C8   1066 -0.72423400  12.010000   ; qtot -0.101052
 1067         h1     36    bbb    H15   1067 0.25637600   1.008000   ; qtot 0.155324
 1068         h1     36    bbb    H16   1068 0.25637600   1.008000   ; qtot 0.411700
 1069         c3     36    bbb     C9   1069 -0.72423400  12.010000   ; qtot -0.312534
 1070         h1     36    bbb    H17   1070 0.25637600   1.008000   ; qtot -0.056158
 1071         h1     36    bbb    H18   1071 0.25637600   1.008000   ; qtot 0.200218
 1072         os     36    bbb     O1   1072 -0.20025300  16.000000   ; qtot -0.000035
; residue   37 bbb rtp bbb q -0.0
 1073         n3     37    bbb     N1   1073 -0.59685800  14.010000   ; qtot -0.596893
 1074         c3     37    bbb     C1   1074 0.10137000  12.010000   ; qtot -0.495523
 1075         h1     37    bbb     H1   1075 0.04411300   1.008000   ; qtot -0.451410
 1076         h1     37    bbb     H2   1076 0.04411300   1.008000   ; qtot -0.407297
 1077         c3     37    bbb     C2   1077 0.10137000  12.010000   ; qtot -0.305927
 1078         h1     37    bbb     H3   1078 0.04411300   1.008000   ; qtot -0.261814
 1079         h1     37    bbb     H4   1079 0.04411300   1.008000   ; qtot -0.217701
 1080         c3     37    bbb     C3   1080 -0.00195300  12.010000   ; qtot -0.219654
 1081         h1     37    bbb     H5   1081 0.05064400   1.008000   ; qtot -0.169010
 1082         h1     37    bbb     H6   1082 0.05064400   1.008000   ; qtot -0.118366
 1083         c3     37    bbb     C4   1083 -0.01612100  12.010000   ; qtot -0.134487
 1084         hc     37    bbb     H7   1084 0.04936100   1.008000   ; qtot -0.085126
 1085         hc     37    bbb     H8   1085 0.04936100   1.008000   ; qtot -0.035765
 1086         c3     37    bbb     C5   1086 0.11363000  12.010000   ; qtot 0.077865
 1087         hc     37    bbb     H9   1087 0.06265900   1.008000   ; qtot 0.140524
 1088         hc     37    bbb    H10   1088 0.06265900   1.008000   ; qtot 0.203183
 1089         c3     37    bbb     C6   1089 0.11363000  12.010000   ; qtot 0.316813
 1090         hc     37    bbb    H11   1090 0.06265900   1.008000   ; qtot 0.379472
 1091         hc     37    bbb    H12   1091 0.06265900   1.008000   ; qtot 0.442131
 1092         c3     37    bbb     C7   1092 0.05858200  12.010000   ; qtot 0.500713
 1093         h1     37    bbb    H13   1093 0.06123400   1.008000   ; qtot 0.561947
 1094         h1     37    bbb    H14   1094 0.06123400   1.008000   ; qtot 0.623181
 1095         c3     37    bbb     C8   1095 -0.72423400  12.010000   ; qtot -0.101053
 1096         h1     37    bbb    H15   1096 0.25637600   1.008000   ; qtot 0.155323
 1097         h1     37    bbb    H16   1097 0.25637600   1.008000   ; qtot 0.411699
 1098         c3     37    bbb     C9   1098 -0.72423400  12.010000   ; qtot -0.312535
 1099         h1     37    bbb    H17   1099 0.25637600   1.008000   ; qtot -0.056159
 1100         h1     37    bbb    H18   1100 0.25637600   1.008000   ; qtot 0.200217
 1101         os     37    bbb     O1   1101 -0.20025300  16.000000   ; qtot -0.000036
; residue   38 bbb rtp bbb q -0.0
 1102         n3     38    bbb     N1   1102 -0.59685800  14.010000   ; qtot -0.596894
 1103         c3     38    bbb     C1   1103 0.10137000  12.010000   ; qtot -0.495524
 1104         h1     38    bbb     H1   1104 0.04411300   1.008000   ; qtot -0.451411
 1105         h1     38    bbb     H2   1105 0.04411300   1.008000   ; qtot -0.407298
 1106         c3     38    bbb     C2   1106 0.10137000  12.010000   ; qtot -0.305928
 1107         h1     38    bbb     H3   1107 0.04411300   1.008000   ; qtot -0.261815
 1108         h1     38    bbb     H4   1108 0.04411300   1.008000   ; qtot -0.217702
 1109         c3     38    bbb     C3   1109 -0.00195300  12.010000   ; qtot -0.219655
 1110         h1     38    bbb     H5   1110 0.05064400   1.008000   ; qtot -0.169011
 1111         h1     38    bbb     H6   1111 0.05064400   1.008000   ; qtot -0.118367
 1112         c3     38    bbb     C4   1112 -0.01612100  12.010000   ; qtot -0.134488
 1113         hc     38    bbb     H7   1113 0.04936100   1.008000   ; qtot -0.085127
 1114         hc     38    bbb     H8   1114 0.04936100   1.008000   ; qtot -0.035766
 1115         c3     38    bbb     C5   1115 0.11363000  12.010000   ; qtot 0.077864
 1116         hc     38    bbb     H9   1116 0.06265900   1.008000   ; qtot 0.140523
 1117         hc     38    bbb    H10   1117 0.06265900   1.008000   ; qtot 0.203182
 1118         c3     38    bbb     C6   1118 0.11363000  12.010000   ; qtot 0.316812
 1119         hc     38    bbb    H11   1119 0.06265900   1.008000   ; qtot 0.379471
 1120         hc     38    bbb    H12   1120 0.06265900   1.008000   ; qtot 0.442130
 1121         c3     38    bbb     C7   1121 0.05858200  12.010000   ; qtot 0.500712
 1122         h1     38    bbb    H13   1122 0.06123400   1.008000   ; qtot 0.561946
 1123         h1     38    bbb    H14   1123 0.06123400   1.008000   ; qtot 0.623180
 1124         c3     38    bbb     C8   1124 -0.72423400  12.010000   ; qtot -0.101054
 1125         h1     38    bbb    H15   1125 0.25637600   1.008000   ; qtot 0.155322
 1126         h1     38    bbb    H16   1126 0.25637600   1.008000   ; qtot 0.411698
 1127         c3     38    bbb     C9   1127 -0.72423400  12.010000   ; qtot -0.312536
 1128         h1     38    bbb    H17   1128 0.25637600   1.008000   ; qtot -0.056160
 1129         h1     38    bbb    H18   1129 0.25637600   1.008000   ; qtot 0.200216
 1130         os     38    bbb     O1   1130 -0.20025300  16.000000   ; qtot -0.000037
; residue   39 bbb rtp bbb q -0.0
 1131         n3     39    bbb     N1   1131 -0.59685800  14.010000   ; qtot -0.596895
 1132         c3     39    bbb     C1   1132 0.10137000  12.010000   ; qtot -0.495525
 1133         h1     39    bbb     H1   1133 0.04411300   1.008000   ; qtot -0.451412
 1134         h1     39    bbb     H2   1134 0.04411300   1.008000   ; qtot -0.407299
 1135         c3     39    bbb     C2   1135 0.10137000  12.010000   ; qtot -0.305929
 1136         h1     39    bbb     H3   1136 0.04411300   1.008000   ; qtot -0.261816
 1137         h1     39    bbb     H4   1137 0.04411300   1.008000   ; qtot -0.217703
 1138         c3     39    bbb     C3   1138 -0.00195300  12.010000   ; qtot -0.219656
 1139         h1     39    bbb     H5   1139 0.05064400   1.008000   ; qtot -0.169012
 1140         h1     39    bbb     H6   1140 0.05064400   1.008000   ; qtot -0.118368
 1141         c3     39    bbb     C4   1141 -0.01612100  12.010000   ; qtot -0.134489
 1142         hc     39    bbb     H7   1142 0.04936100   1.008000   ; qtot -0.085128
 1143         hc     39    bbb     H8   1143 0.04936100   1.008000   ; qtot -0.035767
 1144         c3     39    bbb     C5   1144 0.11363000  12.010000   ; qtot 0.077863
 1145         hc     39    bbb     H9   1145 0.06265900   1.008000   ; qtot 0.140522
 1146         hc     39    bbb    H10   1146 0.06265900   1.008000   ; qtot 0.203181
 1147         c3     39    bbb     C6   1147 0.11363000  12.010000   ; qtot 0.316811
 1148         hc     39    bbb    H11   1148 0.06265900   1.008000   ; qtot 0.379470
 1149         hc     39    bbb    H12   1149 0.06265900   1.008000   ; qtot 0.442129
 1150         c3     39    bbb     C7   1150 0.05858200  12.010000   ; qtot 0.500711
 1151         h1     39    bbb    H13   1151 0.06123400   1.008000   ; qtot 0.561945
 1152         h1     39    bbb    H14   1152 0.06123400   1.008000   ; qtot 0.623179
 1153         c3     39    bbb     C8   1153 -0.72423400  12.010000   ; qtot -0.101055
 1154         h1     39    bbb    H15   1154 0.25637600   1.008000   ; qtot 0.155321
 1155         h1     39    bbb    H16   1155 0.25637600   1.008000   ; qtot 0.411697
 1156         c3     39    bbb     C9   1156 -0.72423400  12.010000   ; qtot -0.312537
 1157         h1     39    bbb    H17   1157 0.25637600   1.008000   ; qtot -0.056161
 1158         h1     39    bbb    H18   1158 0.25637600   1.008000   ; qtot 0.200215
 1159         os     39    bbb     O1   1159 -0.20025300  16.000000   ; qtot -0.000038
; residue   40 bbb rtp bbb q -0.0
 1160         n3     40    bbb     N1   1160 -0.59685800  14.010000   ; qtot -0.596896
 1161         c3     40    bbb     C1   1161 0.10137000  12.010000   ; qtot -0.495526
 1162         h1     40    bbb     H1   1162 0.04411300   1.008000   ; qtot -0.451413
 1163         h1     40    bbb     H2   1163 0.04411300   1.008000   ; qtot -0.407300
 1164         c3     40    bbb     C2   1164 0.10137000  12.010000   ; qtot -0.305930
 1165         h1     40    bbb     H3   1165 0.04411300   1.008000   ; qtot -0.261817
 1166         h1     40    bbb     H4   1166 0.04411300   1.008000   ; qtot -0.217704
 1167         c3     40    bbb     C3   1167 -0.00195300  12.010000   ; qtot -0.219657
 1168         h1     40    bbb     H5   1168 0.05064400   1.008000   ; qtot -0.169013
 1169         h1     40    bbb     H6   1169 0.05064400   1.008000   ; qtot -0.118369
 1170         c3     40    bbb     C4   1170 -0.01612100  12.010000   ; qtot -0.134490
 1171         hc     40    bbb     H7   1171 0.04936100   1.008000   ; qtot -0.085129
 1172         hc     40    bbb     H8   1172 0.04936100   1.008000   ; qtot -0.035768
 1173         c3     40    bbb     C5   1173 0.11363000  12.010000   ; qtot 0.077862
 1174         hc     40    bbb     H9   1174 0.06265900   1.008000   ; qtot 0.140521
 1175         hc     40    bbb    H10   1175 0.06265900   1.008000   ; qtot 0.203180
 1176         c3     40    bbb     C6   1176 0.11363000  12.010000   ; qtot 0.316810
 1177         hc     40    bbb    H11   1177 0.06265900   1.008000   ; qtot 0.379469
 1178         hc     40    bbb    H12   1178 0.06265900   1.008000   ; qtot 0.442128
 1179         c3     40    bbb     C7   1179 0.05858200  12.010000   ; qtot 0.500710
 1180         h1     40    bbb    H13   1180 0.06123400   1.008000   ; qtot 0.561944
 1181         h1     40    bbb    H14   1181 0.06123400   1.008000   ; qtot 0.623178
 1182         c3     40    bbb     C8   1182 -0.72423400  12.010000   ; qtot -0.101056
 1183         h1     40    bbb    H15   1183 0.25637600   1.008000   ; qtot 0.155320
 1184         h1     40    bbb    H16   1184 0.25637600   1.008000   ; qtot 0.411696
 1185         c3     40    bbb     C9   1185 -0.72423400  12.010000   ; qtot -0.312538
 1186         h1     40    bbb    H17   1186 0.25637600   1.008000   ; qtot -0.056162
 1187         h1     40    bbb    H18   1187 0.25637600   1.008000   ; qtot 0.200214
 1188         os     40    bbb     O1   1188 -0.20025300  16.000000   ; qtot -0.000039
; residue   41 bbb rtp bbb q -0.0
 1189         n3     41    bbb     N1   1189 -0.59685800  14.010000   ; qtot -0.596897
 1190         c3     41    bbb     C1   1190 0.10137000  12.010000   ; qtot -0.495527
 1191         h1     41    bbb     H1   1191 0.04411300   1.008000   ; qtot -0.451414
 1192         h1     41    bbb     H2   1192 0.04411300   1.008000   ; qtot -0.407301
 1193         c3     41    bbb     C2   1193 0.10137000  12.010000   ; qtot -0.305931
 1194         h1     41    bbb     H3   1194 0.04411300   1.008000   ; qtot -0.261818
 1195         h1     41    bbb     H4   1195 0.04411300   1.008000   ; qtot -0.217705
 1196         c3     41    bbb     C3   1196 -0.00195300  12.010000   ; qtot -0.219658
 1197         h1     41    bbb     H5   1197 0.05064400   1.008000   ; qtot -0.169014
 1198         h1     41    bbb     H6   1198 0.05064400   1.008000   ; qtot -0.118370
 1199         c3     41    bbb     C4   1199 -0.01612100  12.010000   ; qtot -0.134491
 1200         hc     41    bbb     H7   1200 0.04936100   1.008000   ; qtot -0.085130
 1201         hc     41    bbb     H8   1201 0.04936100   1.008000   ; qtot -0.035769
 1202         c3     41    bbb     C5   1202 0.11363000  12.010000   ; qtot 0.077861
 1203         hc     41    bbb     H9   1203 0.06265900   1.008000   ; qtot 0.140520
 1204         hc     41    bbb    H10   1204 0.06265900   1.008000   ; qtot 0.203179
 1205         c3     41    bbb     C6   1205 0.11363000  12.010000   ; qtot 0.316809
 1206         hc     41    bbb    H11   1206 0.06265900   1.008000   ; qtot 0.379468
 1207         hc     41    bbb    H12   1207 0.06265900   1.008000   ; qtot 0.442127
 1208         c3     41    bbb     C7   1208 0.05858200  12.010000   ; qtot 0.500709
 1209         h1     41    bbb    H13   1209 0.06123400   1.008000   ; qtot 0.561943
 1210         h1     41    bbb    H14   1210 0.06123400   1.008000   ; qtot 0.623177
 1211         c3     41    bbb     C8   1211 -0.72423400  12.010000   ; qtot -0.101057
 1212         h1     41    bbb    H15   1212 0.25637600   1.008000   ; qtot 0.155319
 1213         h1     41    bbb    H16   1213 0.25637600   1.008000   ; qtot 0.411695
 1214         c3     41    bbb     C9   1214 -0.72423400  12.010000   ; qtot -0.312539
 1215         h1     41    bbb    H17   1215 0.25637600   1.008000   ; qtot -0.056163
 1216         h1     41    bbb    H18   1216 0.25637600   1.008000   ; qtot 0.200213
 1217         os     41    bbb     O1   1217 -0.20025300  16.000000   ; qtot -0.000040
; residue   42 bbb rtp bbb q -0.0
 1218         n3     42    bbb     N1   1218 -0.59685800  14.010000   ; qtot -0.596898
 1219         c3     42    bbb     C1   1219 0.10137000  12.010000   ; qtot -0.495528
 1220         h1     42    bbb     H1   1220 0.04411300   1.008000   ; qtot -0.451415
 1221         h1     42    bbb     H2   1221 0.04411300   1.008000   ; qtot -0.407302
 1222         c3     42    bbb     C2   1222 0.10137000  12.010000   ; qtot -0.305932
 1223         h1     42    bbb     H3   1223 0.04411300   1.008000   ; qtot -0.261819
 1224         h1     42    bbb     H4   1224 0.04411300   1.008000   ; qtot -0.217706
 1225         c3     42    bbb     C3   1225 -0.00195300  12.010000   ; qtot -0.219659
 1226         h1     42    bbb     H5   1226 0.05064400   1.008000   ; qtot -0.169015
 1227         h1     42    bbb     H6   1227 0.05064400   1.008000   ; qtot -0.118371
 1228         c3     42    bbb     C4   1228 -0.01612100  12.010000   ; qtot -0.134492
 1229         hc     42    bbb     H7   1229 0.04936100   1.008000   ; qtot -0.085131
 1230         hc     42    bbb     H8   1230 0.04936100   1.008000   ; qtot -0.035770
 1231         c3     42    bbb     C5   1231 0.11363000  12.010000   ; qtot 0.077860
 1232         hc     42    bbb     H9   1232 0.06265900   1.008000   ; qtot 0.140519
 1233         hc     42    bbb    H10   1233 0.06265900   1.008000   ; qtot 0.203178
 1234         c3     42    bbb     C6   1234 0.11363000  12.010000   ; qtot 0.316808
 1235         hc     42    bbb    H11   1235 0.06265900   1.008000   ; qtot 0.379467
 1236         hc     42    bbb    H12   1236 0.06265900   1.008000   ; qtot 0.442126
 1237         c3     42    bbb     C7   1237 0.05858200  12.010000   ; qtot 0.500708
 1238         h1     42    bbb    H13   1238 0.06123400   1.008000   ; qtot 0.561942
 1239         h1     42    bbb    H14   1239 0.06123400   1.008000   ; qtot 0.623176
 1240         c3     42    bbb     C8   1240 -0.72423400  12.010000   ; qtot -0.101058
 1241         h1     42    bbb    H15   1241 0.25637600   1.008000   ; qtot 0.155318
 1242         h1     42    bbb    H16   1242 0.25637600   1.008000   ; qtot 0.411694
 1243         c3     42    bbb     C9   1243 -0.72423400  12.010000   ; qtot -0.312540
 1244         h1     42    bbb    H17   1244 0.25637600   1.008000   ; qtot -0.056164
 1245         h1     42    bbb    H18   1245 0.25637600   1.008000   ; qtot 0.200212
 1246         os     42    bbb     O1   1246 -0.20025300  16.000000   ; qtot -0.000041
; residue   43 bbb rtp bbb q -0.0
 1247         n3     43    bbb     N1   1247 -0.59685800  14.010000   ; qtot -0.596899
 1248         c3     43    bbb     C1   1248 0.10137000  12.010000   ; qtot -0.495529
 1249         h1     43    bbb     H1   1249 0.04411300   1.008000   ; qtot -0.451416
 1250         h1     43    bbb     H2   1250 0.04411300   1.008000   ; qtot -0.407303
 1251         c3     43    bbb     C2   1251 0.10137000  12.010000   ; qtot -0.305933
 1252         h1     43    bbb     H3   1252 0.04411300   1.008000   ; qtot -0.261820
 1253         h1     43    bbb     H4   1253 0.04411300   1.008000   ; qtot -0.217707
 1254         c3     43    bbb     C3   1254 -0.00195300  12.010000   ; qtot -0.219660
 1255         h1     43    bbb     H5   1255 0.05064400   1.008000   ; qtot -0.169016
 1256         h1     43    bbb     H6   1256 0.05064400   1.008000   ; qtot -0.118372
 1257         c3     43    bbb     C4   1257 -0.01612100  12.010000   ; qtot -0.134493
 1258         hc     43    bbb     H7   1258 0.04936100   1.008000   ; qtot -0.085132
 1259         hc     43    bbb     H8   1259 0.04936100   1.008000   ; qtot -0.035771
 1260         c3     43    bbb     C5   1260 0.11363000  12.010000   ; qtot 0.077859
 1261         hc     43    bbb     H9   1261 0.06265900   1.008000   ; qtot 0.140518
 1262         hc     43    bbb    H10   1262 0.06265900   1.008000   ; qtot 0.203177
 1263         c3     43    bbb     C6   1263 0.11363000  12.010000   ; qtot 0.316807
 1264         hc     43    bbb    H11   1264 0.06265900   1.008000   ; qtot 0.379466
 1265         hc     43    bbb    H12   1265 0.06265900   1.008000   ; qtot 0.442125
 1266         c3     43    bbb     C7   1266 0.05858200  12.010000   ; qtot 0.500707
 1267         h1     43    bbb    H13   1267 0.06123400   1.008000   ; qtot 0.561941
 1268         h1     43    bbb    H14   1268 0.06123400   1.008000   ; qtot 0.623175
 1269         c3     43    bbb     C8   1269 -0.72423400  12.010000   ; qtot -0.101059
 1270         h1     43    bbb    H15   1270 0.25637600   1.008000   ; qtot 0.155317
 1271         h1     43    bbb    H16   1271 0.25637600   1.008000   ; qtot 0.411693
 1272         c3     43    bbb     C9   1272 -0.72423400  12.010000   ; qtot -0.312541
 1273         h1     43    bbb    H17   1273 0.25637600   1.008000   ; qtot -0.056165
 1274         h1     43    bbb    H18   1274 0.25637600   1.008000   ; qtot 0.200211
 1275         os     43    bbb     O1   1275 -0.20025300  16.000000   ; qtot -0.000042
; residue   44 bbb rtp bbb q -0.0
 1276         n3     44    bbb     N1   1276 -0.59685800  14.010000   ; qtot -0.596900
 1277         c3     44    bbb     C1   1277 0.10137000  12.010000   ; qtot -0.495530
 1278         h1     44    bbb     H1   1278 0.04411300   1.008000   ; qtot -0.451417
 1279         h1     44    bbb     H2   1279 0.04411300   1.008000   ; qtot -0.407304
 1280         c3     44    bbb     C2   1280 0.10137000  12.010000   ; qtot -0.305934
 1281         h1     44    bbb     H3   1281 0.04411300   1.008000   ; qtot -0.261821
 1282         h1     44    bbb     H4   1282 0.04411300   1.008000   ; qtot -0.217708
 1283         c3     44    bbb     C3   1283 -0.00195300  12.010000   ; qtot -0.219661
 1284         h1     44    bbb     H5   1284 0.05064400   1.008000   ; qtot -0.169017
 1285         h1     44    bbb     H6   1285 0.05064400   1.008000   ; qtot -0.118373
 1286         c3     44    bbb     C4   1286 -0.01612100  12.010000   ; qtot -0.134494
 1287         hc     44    bbb     H7   1287 0.04936100   1.008000   ; qtot -0.085133
 1288         hc     44    bbb     H8   1288 0.04936100   1.008000   ; qtot -0.035772
 1289         c3     44    bbb     C5   1289 0.11363000  12.010000   ; qtot 0.077858
 1290         hc     44    bbb     H9   1290 0.06265900   1.008000   ; qtot 0.140517
 1291         hc     44    bbb    H10   1291 0.06265900   1.008000   ; qtot 0.203176
 1292         c3     44    bbb     C6   1292 0.11363000  12.010000   ; qtot 0.316806
 1293         hc     44    bbb    H11   1293 0.06265900   1.008000   ; qtot 0.379465
 1294         hc     44    bbb    H12   1294 0.06265900   1.008000   ; qtot 0.442124
 1295         c3     44    bbb     C7   1295 0.05858200  12.010000   ; qtot 0.500706
 1296         h1     44    bbb    H13   1296 0.06123400   1.008000   ; qtot 0.561940
 1297         h1     44    bbb    H14   1297 0.06123400   1.008000   ; qtot 0.623174
 1298         c3     44    bbb     C8   1298 -0.72423400  12.010000   ; qtot -0.101060
 1299         h1     44    bbb    H15   1299 0.25637600   1.008000   ; qtot 0.155316
 1300         h1     44    bbb    H16   1300 0.25637600   1.008000   ; qtot 0.411692
 1301         c3     44    bbb     C9   1301 -0.72423400  12.010000   ; qtot -0.312542
 1302         h1     44    bbb    H17   1302 0.25637600   1.008000   ; qtot -0.056166
 1303         h1     44    bbb    H18   1303 0.25637600   1.008000   ; qtot 0.200210
 1304         os     44    bbb     O1   1304 -0.20025300  16.000000   ; qtot -0.000043
; residue   45 bbb rtp bbb q -0.0
 1305         n3     45    bbb     N1   1305 -0.59685800  14.010000   ; qtot -0.596901
 1306         c3     45    bbb     C1   1306 0.10137000  12.010000   ; qtot -0.495531
 1307         h1     45    bbb     H1   1307 0.04411300   1.008000   ; qtot -0.451418
 1308         h1     45    bbb     H2   1308 0.04411300   1.008000   ; qtot -0.407305
 1309         c3     45    bbb     C2   1309 0.10137000  12.010000   ; qtot -0.305935
 1310         h1     45    bbb     H3   1310 0.04411300   1.008000   ; qtot -0.261822
 1311         h1     45    bbb     H4   1311 0.04411300   1.008000   ; qtot -0.217709
 1312         c3     45    bbb     C3   1312 -0.00195300  12.010000   ; qtot -0.219662
 1313         h1     45    bbb     H5   1313 0.05064400   1.008000   ; qtot -0.169018
 1314         h1     45    bbb     H6   1314 0.05064400   1.008000   ; qtot -0.118374
 1315         c3     45    bbb     C4   1315 -0.01612100  12.010000   ; qtot -0.134495
 1316         hc     45    bbb     H7   1316 0.04936100   1.008000   ; qtot -0.085134
 1317         hc     45    bbb     H8   1317 0.04936100   1.008000   ; qtot -0.035773
 1318         c3     45    bbb     C5   1318 0.11363000  12.010000   ; qtot 0.077857
 1319         hc     45    bbb     H9   1319 0.06265900   1.008000   ; qtot 0.140516
 1320         hc     45    bbb    H10   1320 0.06265900   1.008000   ; qtot 0.203175
 1321         c3     45    bbb     C6   1321 0.11363000  12.010000   ; qtot 0.316805
 1322         hc     45    bbb    H11   1322 0.06265900   1.008000   ; qtot 0.379464
 1323         hc     45    bbb    H12   1323 0.06265900   1.008000   ; qtot 0.442123
 1324         c3     45    bbb     C7   1324 0.05858200  12.010000   ; qtot 0.500705
 1325         h1     45    bbb    H13   1325 0.06123400   1.008000   ; qtot 0.561939
 1326         h1     45    bbb    H14   1326 0.06123400   1.008000   ; qtot 0.623173
 1327         c3     45    bbb     C8   1327 -0.72423400  12.010000   ; qtot -0.101061
 1328         h1     45    bbb    H15   1328 0.25637600   1.008000   ; qtot 0.155315
 1329         h1     45    bbb    H16   1329 0.25637600   1.008000   ; qtot 0.411691
 1330         c3     45    bbb     C9   1330 -0.72423400  12.010000   ; qtot -0.312543
 1331         h1     45    bbb    H17   1331 0.25637600   1.008000   ; qtot -0.056167
 1332         h1     45    bbb    H18   1332 0.25637600   1.008000   ; qtot 0.200209
 1333         os     45    bbb     O1   1333 -0.20025300  16.000000   ; qtot -0.000044
; residue   46 bbb rtp bbb q -0.0
 1334         n3     46    bbb     N1   1334 -0.59685800  14.010000   ; qtot -0.596902
 1335         c3     46    bbb     C1   1335 0.10137000  12.010000   ; qtot -0.495532
 1336         h1     46    bbb     H1   1336 0.04411300   1.008000   ; qtot -0.451419
 1337         h1     46    bbb     H2   1337 0.04411300   1.008000   ; qtot -0.407306
 1338         c3     46    bbb     C2   1338 0.10137000  12.010000   ; qtot -0.305936
 1339         h1     46    bbb     H3   1339 0.04411300   1.008000   ; qtot -0.261823
 1340         h1     46    bbb     H4   1340 0.04411300   1.008000   ; qtot -0.217710
 1341         c3     46    bbb     C3   1341 -0.00195300  12.010000   ; qtot -0.219663
 1342         h1     46    bbb     H5   1342 0.05064400   1.008000   ; qtot -0.169019
 1343         h1     46    bbb     H6   1343 0.05064400   1.008000   ; qtot -0.118375
 1344         c3     46    bbb     C4   1344 -0.01612100  12.010000   ; qtot -0.134496
 1345         hc     46    bbb     H7   1345 0.04936100   1.008000   ; qtot -0.085135
 1346         hc     46    bbb     H8   1346 0.04936100   1.008000   ; qtot -0.035774
 1347         c3     46    bbb     C5   1347 0.11363000  12.010000   ; qtot 0.077856
 1348         hc     46    bbb     H9   1348 0.06265900   1.008000   ; qtot 0.140515
 1349         hc     46    bbb    H10   1349 0.06265900   1.008000   ; qtot 0.203174
 1350         c3     46    bbb     C6   1350 0.11363000  12.010000   ; qtot 0.316804
 1351         hc     46    bbb    H11   1351 0.06265900   1.008000   ; qtot 0.379463
 1352         hc     46    bbb    H12   1352 0.06265900   1.008000   ; qtot 0.442122
 1353         c3     46    bbb     C7   1353 0.05858200  12.010000   ; qtot 0.500704
 1354         h1     46    bbb    H13   1354 0.06123400   1.008000   ; qtot 0.561938
 1355         h1     46    bbb    H14   1355 0.06123400   1.008000   ; qtot 0.623172
 1356         c3     46    bbb     C8   1356 -0.72423400  12.010000   ; qtot -0.101062
 1357         h1     46    bbb    H15   1357 0.25637600   1.008000   ; qtot 0.155314
 1358         h1     46    bbb    H16   1358 0.25637600   1.008000   ; qtot 0.411690
 1359         c3     46    bbb     C9   1359 -0.72423400  12.010000   ; qtot -0.312544
 1360         h1     46    bbb    H17   1360 0.25637600   1.008000   ; qtot -0.056168
 1361         h1     46    bbb    H18   1361 0.25637600   1.008000   ; qtot 0.200208
 1362         os     46    bbb     O1   1362 -0.20025300  16.000000   ; qtot -0.000045
; residue   47 bbb rtp bbb q -0.0
 1363         n3     47    bbb     N1   1363 -0.59685800  14.010000   ; qtot -0.596903
 1364         c3     47    bbb     C1   1364 0.10137000  12.010000   ; qtot -0.495533
 1365         h1     47    bbb     H1   1365 0.04411300   1.008000   ; qtot -0.451420
 1366         h1     47    bbb     H2   1366 0.04411300   1.008000   ; qtot -0.407307
 1367         c3     47    bbb     C2   1367 0.10137000  12.010000   ; qtot -0.305937
 1368         h1     47    bbb     H3   1368 0.04411300   1.008000   ; qtot -0.261824
 1369         h1     47    bbb     H4   1369 0.04411300   1.008000   ; qtot -0.217711
 1370         c3     47    bbb     C3   1370 -0.00195300  12.010000   ; qtot -0.219664
 1371         h1     47    bbb     H5   1371 0.05064400   1.008000   ; qtot -0.169020
 1372         h1     47    bbb     H6   1372 0.05064400   1.008000   ; qtot -0.118376
 1373         c3     47    bbb     C4   1373 -0.01612100  12.010000   ; qtot -0.134497
 1374         hc     47    bbb     H7   1374 0.04936100   1.008000   ; qtot -0.085136
 1375         hc     47    bbb     H8   1375 0.04936100   1.008000   ; qtot -0.035775
 1376         c3     47    bbb     C5   1376 0.11363000  12.010000   ; qtot 0.077855
 1377         hc     47    bbb     H9   1377 0.06265900   1.008000   ; qtot 0.140514
 1378         hc     47    bbb    H10   1378 0.06265900   1.008000   ; qtot 0.203173
 1379         c3     47    bbb     C6   1379 0.11363000  12.010000   ; qtot 0.316803
 1380         hc     47    bbb    H11   1380 0.06265900   1.008000   ; qtot 0.379462
 1381         hc     47    bbb    H12   1381 0.06265900   1.008000   ; qtot 0.442121
 1382         c3     47    bbb     C7   1382 0.05858200  12.010000   ; qtot 0.500703
 1383         h1     47    bbb    H13   1383 0.06123400   1.008000   ; qtot 0.561937
 1384         h1     47    bbb    H14   1384 0.06123400   1.008000   ; qtot 0.623171
 1385         c3     47    bbb     C8   1385 -0.72423400  12.010000   ; qtot -0.101063
 1386         h1     47    bbb    H15   1386 0.25637600   1.008000   ; qtot 0.155313
 1387         h1     47    bbb    H16   1387 0.25637600   1.008000   ; qtot 0.411689
 1388         c3     47    bbb     C9   1388 -0.72423400  12.010000   ; qtot -0.312545
 1389         h1     47    bbb    H17   1389 0.25637600   1.008000   ; qtot -0.056169
 1390         h1     47    bbb    H18   1390 0.25637600   1.008000   ; qtot 0.200207
 1391         os     47    bbb     O1   1391 -0.20025300  16.000000   ; qtot -0.000046
; residue   48 bbb rtp bbb q -0.0
 1392         n3     48    bbb     N1   1392 -0.59685800  14.010000   ; qtot -0.596904
 1393         c3     48    bbb     C1   1393 0.10137000  12.010000   ; qtot -0.495534
 1394         h1     48    bbb     H1   1394 0.04411300   1.008000   ; qtot -0.451421
 1395         h1     48    bbb     H2   1395 0.04411300   1.008000   ; qtot -0.407308
 1396         c3     48    bbb     C2   1396 0.10137000  12.010000   ; qtot -0.305938
 1397         h1     48    bbb     H3   1397 0.04411300   1.008000   ; qtot -0.261825
 1398         h1     48    bbb     H4   1398 0.04411300   1.008000   ; qtot -0.217712
 1399         c3     48    bbb     C3   1399 -0.00195300  12.010000   ; qtot -0.219665
 1400         h1     48    bbb     H5   1400 0.05064400   1.008000   ; qtot -0.169021
 1401         h1     48    bbb     H6   1401 0.05064400   1.008000   ; qtot -0.118377
 1402         c3     48    bbb     C4   1402 -0.01612100  12.010000   ; qtot -0.134498
 1403         hc     48    bbb     H7   1403 0.04936100   1.008000   ; qtot -0.085137
 1404         hc     48    bbb     H8   1404 0.04936100   1.008000   ; qtot -0.035776
 1405         c3     48    bbb     C5   1405 0.11363000  12.010000   ; qtot 0.077854
 1406         hc     48    bbb     H9   1406 0.06265900   1.008000   ; qtot 0.140513
 1407         hc     48    bbb    H10   1407 0.06265900   1.008000   ; qtot 0.203172
 1408         c3     48    bbb     C6   1408 0.11363000  12.010000   ; qtot 0.316802
 1409         hc     48    bbb    H11   1409 0.06265900   1.008000   ; qtot 0.379461
 1410         hc     48    bbb    H12   1410 0.06265900   1.008000   ; qtot 0.442120
 1411         c3     48    bbb     C7   1411 0.05858200  12.010000   ; qtot 0.500702
 1412         h1     48    bbb    H13   1412 0.06123400   1.008000   ; qtot 0.561936
 1413         h1     48    bbb    H14   1413 0.06123400   1.008000   ; qtot 0.623170
 1414         c3     48    bbb     C8   1414 -0.72423400  12.010000   ; qtot -0.101064
 1415         h1     48    bbb    H15   1415 0.25637600   1.008000   ; qtot 0.155312
 1416         h1     48    bbb    H16   1416 0.25637600   1.008000   ; qtot 0.411688
 1417         c3     48    bbb     C9   1417 -0.72423400  12.010000   ; qtot -0.312546
 1418         h1     48    bbb    H17   1418 0.25637600   1.008000   ; qtot -0.056170
 1419         h1     48    bbb    H18   1419 0.25637600   1.008000   ; qtot 0.200206
 1420         os     48    bbb     O1   1420 -0.20025300  16.000000   ; qtot -0.000047
; residue   49 bbb rtp bbb q -0.0
 1421         n3     49    bbb     N1   1421 -0.59685800  14.010000   ; qtot -0.596905
 1422         c3     49    bbb     C1   1422 0.10137000  12.010000   ; qtot -0.495535
 1423         h1     49    bbb     H1   1423 0.04411300   1.008000   ; qtot -0.451422
 1424         h1     49    bbb     H2   1424 0.04411300   1.008000   ; qtot -0.407309
 1425         c3     49    bbb     C2   1425 0.10137000  12.010000   ; qtot -0.305939
 1426         h1     49    bbb     H3   1426 0.04411300   1.008000   ; qtot -0.261826
 1427         h1     49    bbb     H4   1427 0.04411300   1.008000   ; qtot -0.217713
 1428         c3     49    bbb     C3   1428 -0.00195300  12.010000   ; qtot -0.219666
 1429         h1     49    bbb     H5   1429 0.05064400   1.008000   ; qtot -0.169022
 1430         h1     49    bbb     H6   1430 0.05064400   1.008000   ; qtot -0.118378
 1431         c3     49    bbb     C4   1431 -0.01612100  12.010000   ; qtot -0.134499
 1432         hc     49    bbb     H7   1432 0.04936100   1.008000   ; qtot -0.085138
 1433         hc     49    bbb     H8   1433 0.04936100   1.008000   ; qtot -0.035777
 1434         c3     49    bbb     C5   1434 0.11363000  12.010000   ; qtot 0.077853
 1435         hc     49    bbb     H9   1435 0.06265900   1.008000   ; qtot 0.140512
 1436         hc     49    bbb    H10   1436 0.06265900   1.008000   ; qtot 0.203171
 1437         c3     49    bbb     C6   1437 0.11363000  12.010000   ; qtot 0.316801
 1438         hc     49    bbb    H11   1438 0.06265900   1.008000   ; qtot 0.379460
 1439         hc     49    bbb    H12   1439 0.06265900   1.008000   ; qtot 0.442119
 1440         c3     49    bbb     C7   1440 0.05858200  12.010000   ; qtot 0.500701
 1441         h1     49    bbb    H13   1441 0.06123400   1.008000   ; qtot 0.561935
 1442         h1     49    bbb    H14   1442 0.06123400   1.008000   ; qtot 0.623169
 1443         c3     49    bbb     C8   1443 -0.72423400  12.010000   ; qtot -0.101065
 1444         h1     49    bbb    H15   1444 0.25637600   1.008000   ; qtot 0.155311
 1445         h1     49    bbb    H16   1445 0.25637600   1.008000   ; qtot 0.411687
 1446         c3     49    bbb     C9   1446 -0.72423400  12.010000   ; qtot -0.312547
 1447         h1     49    bbb    H17   1447 0.25637600   1.008000   ; qtot -0.056171
 1448         h1     49    bbb    H18   1448 0.25637600   1.008000   ; qtot 0.200205
 1449         os     49    bbb     O1   1449 -0.20025300  16.000000   ; qtot -0.000048
; residue   50 bbb rtp bbb q -0.0
 1450         n3     50    bbb     N1   1450 -0.59685800  14.010000   ; qtot -0.596906
 1451         c3     50    bbb     C1   1451 0.10137000  12.010000   ; qtot -0.495536
 1452         h1     50    bbb     H1   1452 0.04411300   1.008000   ; qtot -0.451423
 1453         h1     50    bbb     H2   1453 0.04411300   1.008000   ; qtot -0.407310
 1454         c3     50    bbb     C2   1454 0.10137000  12.010000   ; qtot -0.305940
 1455         h1     50    bbb     H3   1455 0.04411300   1.008000   ; qtot -0.261827
 1456         h1     50    bbb     H4   1456 0.04411300   1.008000   ; qtot -0.217714
 1457         c3     50    bbb     C3   1457 -0.00195300  12.010000   ; qtot -0.219667
 1458         h1     50    bbb     H5   1458 0.05064400   1.008000   ; qtot -0.169023
 1459         h1     50    bbb     H6   1459 0.05064400   1.008000   ; qtot -0.118379
 1460         c3     50    bbb     C4   1460 -0.01612100  12.010000   ; qtot -0.134500
 1461         hc     50    bbb     H7   1461 0.04936100   1.008000   ; qtot -0.085139
 1462         hc     50    bbb     H8   1462 0.04936100   1.008000   ; qtot -0.035778
 1463         c3     50    bbb     C5   1463 0.11363000  12.010000   ; qtot 0.077852
 1464         hc     50    bbb     H9   1464 0.06265900   1.008000   ; qtot 0.140511
 1465         hc     50    bbb    H10   1465 0.06265900   1.008000   ; qtot 0.203170
 1466         c3     50    bbb     C6   1466 0.11363000  12.010000   ; qtot 0.316800
 1467         hc     50    bbb    H11   1467 0.06265900   1.008000   ; qtot 0.379459
 1468         hc     50    bbb    H12   1468 0.06265900   1.008000   ; qtot 0.442118
 1469         c3     50    bbb     C7   1469 0.05858200  12.010000   ; qtot 0.500700
 1470         h1     50    bbb    H13   1470 0.06123400   1.008000   ; qtot 0.561934
 1471         h1     50    bbb    H14   1471 0.06123400   1.008000   ; qtot 0.623168
 1472         c3     50    bbb     C8   1472 -0.72423400  12.010000   ; qtot -0.101066
 1473         h1     50    bbb    H15   1473 0.25637600   1.008000   ; qtot 0.155310
 1474         h1     50    bbb    H16   1474 0.25637600   1.008000   ; qtot 0.411686
 1475         c3     50    bbb     C9   1475 -0.72423400  12.010000   ; qtot -0.312548
 1476         h1     50    bbb    H17   1476 0.25637600   1.008000   ; qtot -0.056172
 1477         h1     50    bbb    H18   1477 0.25637600   1.008000   ; qtot 0.200204
 1478         os     50    bbb     O1   1478 -0.20025300  16.000000   ; qtot -0.000049
; residue   51 bbb rtp bbb q -0.0
 1479         n3     51    bbb     N1   1479 -0.59685800  14.010000   ; qtot -0.596907
 1480         c3     51    bbb     C1   1480 0.10137000  12.010000   ; qtot -0.495537
 1481         h1     51    bbb     H1   1481 0.04411300   1.008000   ; qtot -0.451424
 1482         h1     51    bbb     H2   1482 0.04411300   1.008000   ; qtot -0.407311
 1483         c3     51    bbb     C2   1483 0.10137000  12.010000   ; qtot -0.305941
 1484         h1     51    bbb     H3   1484 0.04411300   1.008000   ; qtot -0.261828
 1485         h1     51    bbb     H4   1485 0.04411300   1.008000   ; qtot -0.217715
 1486         c3     51    bbb     C3   1486 -0.00195300  12.010000   ; qtot -0.219668
 1487         h1     51    bbb     H5   1487 0.05064400   1.008000   ; qtot -0.169024
 1488         h1     51    bbb     H6   1488 0.05064400   1.008000   ; qtot -0.118380
 1489         c3     51    bbb     C4   1489 -0.01612100  12.010000   ; qtot -0.134501
 1490         hc     51    bbb     H7   1490 0.04936100   1.008000   ; qtot -0.085140
 1491         hc     51    bbb     H8   1491 0.04936100   1.008000   ; qtot -0.035779
 1492         c3     51    bbb     C5   1492 0.11363000  12.010000   ; qtot 0.077851
 1493         hc     51    bbb     H9   1493 0.06265900   1.008000   ; qtot 0.140510
 1494         hc     51    bbb    H10   1494 0.06265900   1.008000   ; qtot 0.203169
 1495         c3     51    bbb     C6   1495 0.11363000  12.010000   ; qtot 0.316799
 1496         hc     51    bbb    H11   1496 0.06265900   1.008000   ; qtot 0.379458
 1497         hc     51    bbb    H12   1497 0.06265900   1.008000   ; qtot 0.442117
 1498         c3     51    bbb     C7   1498 0.05858200  12.010000   ; qtot 0.500699
 1499         h1     51    bbb    H13   1499 0.06123400   1.008000   ; qtot 0.561933
 1500         h1     51    bbb    H14   1500 0.06123400   1.008000   ; qtot 0.623167
 1501         c3     51    bbb     C8   1501 -0.72423400  12.010000   ; qtot -0.101067
 1502         h1     51    bbb    H15   1502 0.25637600   1.008000   ; qtot 0.155309
 1503         h1     51    bbb    H16   1503 0.25637600   1.008000   ; qtot 0.411685
 1504         c3     51    bbb     C9   1504 -0.72423400  12.010000   ; qtot -0.312549
 1505         h1     51    bbb    H17   1505 0.25637600   1.008000   ; qtot -0.056173
 1506         h1     51    bbb    H18   1506 0.25637600   1.008000   ; qtot 0.200203
 1507         os     51    bbb     O1   1507 -0.20025300  16.000000   ; qtot -0.000050
; residue   52 bbb rtp bbb q -0.0
 1508         n3     52    bbb     N1   1508 -0.59685800  14.010000   ; qtot -0.596908
 1509         c3     52    bbb     C1   1509 0.10137000  12.010000   ; qtot -0.495538
 1510         h1     52    bbb     H1   1510 0.04411300   1.008000   ; qtot -0.451425
 1511         h1     52    bbb     H2   1511 0.04411300   1.008000   ; qtot -0.407312
 1512         c3     52    bbb     C2   1512 0.10137000  12.010000   ; qtot -0.305942
 1513         h1     52    bbb     H3   1513 0.04411300   1.008000   ; qtot -0.261829
 1514         h1     52    bbb     H4   1514 0.04411300   1.008000   ; qtot -0.217716
 1515         c3     52    bbb     C3   1515 -0.00195300  12.010000   ; qtot -0.219669
 1516         h1     52    bbb     H5   1516 0.05064400   1.008000   ; qtot -0.169025
 1517         h1     52    bbb     H6   1517 0.05064400   1.008000   ; qtot -0.118381
 1518         c3     52    bbb     C4   1518 -0.01612100  12.010000   ; qtot -0.134502
 1519         hc     52    bbb     H7   1519 0.04936100   1.008000   ; qtot -0.085141
 1520         hc     52    bbb     H8   1520 0.04936100   1.008000   ; qtot -0.035780
 1521         c3     52    bbb     C5   1521 0.11363000  12.010000   ; qtot 0.077850
 1522         hc     52    bbb     H9   1522 0.06265900   1.008000   ; qtot 0.140509
 1523         hc     52    bbb    H10   1523 0.06265900   1.008000   ; qtot 0.203168
 1524         c3     52    bbb     C6   1524 0.11363000  12.010000   ; qtot 0.316798
 1525         hc     52    bbb    H11   1525 0.06265900   1.008000   ; qtot 0.379457
 1526         hc     52    bbb    H12   1526 0.06265900   1.008000   ; qtot 0.442116
 1527         c3     52    bbb     C7   1527 0.05858200  12.010000   ; qtot 0.500698
 1528         h1     52    bbb    H13   1528 0.06123400   1.008000   ; qtot 0.561932
 1529         h1     52    bbb    H14   1529 0.06123400   1.008000   ; qtot 0.623166
 1530         c3     52    bbb     C8   1530 -0.72423400  12.010000   ; qtot -0.101068
 1531         h1     52    bbb    H15   1531 0.25637600   1.008000   ; qtot 0.155308
 1532         h1     52    bbb    H16   1532 0.25637600   1.008000   ; qtot 0.411684
 1533         c3     52    bbb     C9   1533 -0.72423400  12.010000   ; qtot -0.312550
 1534         h1     52    bbb    H17   1534 0.25637600   1.008000   ; qtot -0.056174
 1535         h1     52    bbb    H18   1535 0.25637600   1.008000   ; qtot 0.200202
 1536         os     52    bbb     O1   1536 -0.20025300  16.000000   ; qtot -0.000051
; residue   53 bbb rtp bbb q -0.0
 1537         n3     53    bbb     N1   1537 -0.59685800  14.010000   ; qtot -0.596909
 1538         c3     53    bbb     C1   1538 0.10137000  12.010000   ; qtot -0.495539
 1539         h1     53    bbb     H1   1539 0.04411300   1.008000   ; qtot -0.451426
 1540         h1     53    bbb     H2   1540 0.04411300   1.008000   ; qtot -0.407313
 1541         c3     53    bbb     C2   1541 0.10137000  12.010000   ; qtot -0.305943
 1542         h1     53    bbb     H3   1542 0.04411300   1.008000   ; qtot -0.261830
 1543         h1     53    bbb     H4   1543 0.04411300   1.008000   ; qtot -0.217717
 1544         c3     53    bbb     C3   1544 -0.00195300  12.010000   ; qtot -0.219670
 1545         h1     53    bbb     H5   1545 0.05064400   1.008000   ; qtot -0.169026
 1546         h1     53    bbb     H6   1546 0.05064400   1.008000   ; qtot -0.118382
 1547         c3     53    bbb     C4   1547 -0.01612100  12.010000   ; qtot -0.134503
 1548         hc     53    bbb     H7   1548 0.04936100   1.008000   ; qtot -0.085142
 1549         hc     53    bbb     H8   1549 0.04936100   1.008000   ; qtot -0.035781
 1550         c3     53    bbb     C5   1550 0.11363000  12.010000   ; qtot 0.077849
 1551         hc     53    bbb     H9   1551 0.06265900   1.008000   ; qtot 0.140508
 1552         hc     53    bbb    H10   1552 0.06265900   1.008000   ; qtot 0.203167
 1553         c3     53    bbb     C6   1553 0.11363000  12.010000   ; qtot 0.316797
 1554         hc     53    bbb    H11   1554 0.06265900   1.008000   ; qtot 0.379456
 1555         hc     53    bbb    H12   1555 0.06265900   1.008000   ; qtot 0.442115
 1556         c3     53    bbb     C7   1556 0.05858200  12.010000   ; qtot 0.500697
 1557         h1     53    bbb    H13   1557 0.06123400   1.008000   ; qtot 0.561931
 1558         h1     53    bbb    H14   1558 0.06123400   1.008000   ; qtot 0.623165
 1559         c3     53    bbb     C8   1559 -0.72423400  12.010000   ; qtot -0.101069
 1560         h1     53    bbb    H15   1560 0.25637600   1.008000   ; qtot 0.155307
 1561         h1     53    bbb    H16   1561 0.25637600   1.008000   ; qtot 0.411683
 1562         c3     53    bbb     C9   1562 -0.72423400  12.010000   ; qtot -0.312551
 1563         h1     53    bbb    H17   1563 0.25637600   1.008000   ; qtot -0.056175
 1564         h1     53    bbb    H18   1564 0.25637600   1.008000   ; qtot 0.200201
 1565         os     53    bbb     O1   1565 -0.20025300  16.000000   ; qtot -0.000052
; residue   54 bbb rtp bbb q -0.0
 1566         n3     54    bbb     N1   1566 -0.59685800  14.010000   ; qtot -0.596910
 1567         c3     54    bbb     C1   1567 0.10137000  12.010000   ; qtot -0.495540
 1568         h1     54    bbb     H1   1568 0.04411300   1.008000   ; qtot -0.451427
 1569         h1     54    bbb     H2   1569 0.04411300   1.008000   ; qtot -0.407314
 1570         c3     54    bbb     C2   1570 0.10137000  12.010000   ; qtot -0.305944
 1571         h1     54    bbb     H3   1571 0.04411300   1.008000   ; qtot -0.261831
 1572         h1     54    bbb     H4   1572 0.04411300   1.008000   ; qtot -0.217718
 1573         c3     54    bbb     C3   1573 -0.00195300  12.010000   ; qtot -0.219671
 1574         h1     54    bbb     H5   1574 0.05064400   1.008000   ; qtot -0.169027
 1575         h1     54    bbb     H6   1575 0.05064400   1.008000   ; qtot -0.118383
 1576         c3     54    bbb     C4   1576 -0.01612100  12.010000   ; qtot -0.134504
 1577         hc     54    bbb     H7   1577 0.04936100   1.008000   ; qtot -0.085143
 1578         hc     54    bbb     H8   1578 0.04936100   1.008000   ; qtot -0.035782
 1579         c3     54    bbb     C5   1579 0.11363000  12.010000   ; qtot 0.077848
 1580         hc     54    bbb     H9   1580 0.06265900   1.008000   ; qtot 0.140507
 1581         hc     54    bbb    H10   1581 0.06265900   1.008000   ; qtot 0.203166
 1582         c3     54    bbb     C6   1582 0.11363000  12.010000   ; qtot 0.316796
 1583         hc     54    bbb    H11   1583 0.06265900   1.008000   ; qtot 0.379455
 1584         hc     54    bbb    H12   1584 0.06265900   1.008000   ; qtot 0.442114
 1585         c3     54    bbb     C7   1585 0.05858200  12.010000   ; qtot 0.500696
 1586         h1     54    bbb    H13   1586 0.06123400   1.008000   ; qtot 0.561930
 1587         h1     54    bbb    H14   1587 0.06123400   1.008000   ; qtot 0.623164
 1588         c3     54    bbb     C8   1588 -0.72423400  12.010000   ; qtot -0.101070
 1589         h1     54    bbb    H15   1589 0.25637600   1.008000   ; qtot 0.155306
 1590         h1     54    bbb    H16   1590 0.25637600   1.008000   ; qtot 0.411682
 1591         c3     54    bbb     C9   1591 -0.72423400  12.010000   ; qtot -0.312552
 1592         h1     54    bbb    H17   1592 0.25637600   1.008000   ; qtot -0.056176
 1593         h1     54    bbb    H18   1593 0.25637600   1.008000   ; qtot 0.200200
 1594         os     54    bbb     O1   1594 -0.20025300  16.000000   ; qtot -0.000053
; residue   55 bbb rtp bbb q -0.0
 1595         n3     55    bbb     N1   1595 -0.59685800  14.010000   ; qtot -0.596911
 1596         c3     55    bbb     C1   1596 0.10137000  12.010000   ; qtot -0.495541
 1597         h1     55    bbb     H1   1597 0.04411300   1.008000   ; qtot -0.451428
 1598         h1     55    bbb     H2   1598 0.04411300   1.008000   ; qtot -0.407315
 1599         c3     55    bbb     C2   1599 0.10137000  12.010000   ; qtot -0.305945
 1600         h1     55    bbb     H3   1600 0.04411300   1.008000   ; qtot -0.261832
 1601         h1     55    bbb     H4   1601 0.04411300   1.008000   ; qtot -0.217719
 1602         c3     55    bbb     C3   1602 -0.00195300  12.010000   ; qtot -0.219672
 1603         h1     55    bbb     H5   1603 0.05064400   1.008000   ; qtot -0.169028
 1604         h1     55    bbb     H6   1604 0.05064400   1.008000   ; qtot -0.118384
 1605         c3     55    bbb     C4   1605 -0.01612100  12.010000   ; qtot -0.134505
 1606         hc     55    bbb     H7   1606 0.04936100   1.008000   ; qtot -0.085144
 1607         hc     55    bbb     H8   1607 0.04936100   1.008000   ; qtot -0.035783
 1608         c3     55    bbb     C5   1608 0.11363000  12.010000   ; qtot 0.077847
 1609         hc     55    bbb     H9   1609 0.06265900   1.008000   ; qtot 0.140506
 1610         hc     55    bbb    H10   1610 0.06265900   1.008000   ; qtot 0.203165
 1611         c3     55    bbb     C6   1611 0.11363000  12.010000   ; qtot 0.316795
 1612         hc     55    bbb    H11   1612 0.06265900   1.008000   ; qtot 0.379454
 1613         hc     55    bbb    H12   1613 0.06265900   1.008000   ; qtot 0.442113
 1614         c3     55    bbb     C7   1614 0.05858200  12.010000   ; qtot 0.500695
 1615         h1     55    bbb    H13   1615 0.06123400   1.008000   ; qtot 0.561929
 1616         h1     55    bbb    H14   1616 0.06123400   1.008000   ; qtot 0.623163
 1617         c3     55    bbb     C8   1617 -0.72423400  12.010000   ; qtot -0.101071
 1618         h1     55    bbb    H15   1618 0.25637600   1.008000   ; qtot 0.155305
 1619         h1     55    bbb    H16   1619 0.25637600   1.008000   ; qtot 0.411681
 1620         c3     55    bbb     C9   1620 -0.72423400  12.010000   ; qtot -0.312553
 1621         h1     55    bbb    H17   1621 0.25637600   1.008000   ; qtot -0.056177
 1622         h1     55    bbb    H18   1622 0.25637600   1.008000   ; qtot 0.200199
 1623         os     55    bbb     O1   1623 -0.20025300  16.000000   ; qtot -0.000054
; residue   56 bbb rtp bbb q -0.0
 1624         n3     56    bbb     N1   1624 -0.59685800  14.010000   ; qtot -0.596912
 1625         c3     56    bbb     C1   1625 0.10137000  12.010000   ; qtot -0.495542
 1626         h1     56    bbb     H1   1626 0.04411300   1.008000   ; qtot -0.451429
 1627         h1     56    bbb     H2   1627 0.04411300   1.008000   ; qtot -0.407316
 1628         c3     56    bbb     C2   1628 0.10137000  12.010000   ; qtot -0.305946
 1629         h1     56    bbb     H3   1629 0.04411300   1.008000   ; qtot -0.261833
 1630         h1     56    bbb     H4   1630 0.04411300   1.008000   ; qtot -0.217720
 1631         c3     56    bbb     C3   1631 -0.00195300  12.010000   ; qtot -0.219673
 1632         h1     56    bbb     H5   1632 0.05064400   1.008000   ; qtot -0.169029
 1633         h1     56    bbb     H6   1633 0.05064400   1.008000   ; qtot -0.118385
 1634         c3     56    bbb     C4   1634 -0.01612100  12.010000   ; qtot -0.134506
 1635         hc     56    bbb     H7   1635 0.04936100   1.008000   ; qtot -0.085145
 1636         hc     56    bbb     H8   1636 0.04936100   1.008000   ; qtot -0.035784
 1637         c3     56    bbb     C5   1637 0.11363000  12.010000   ; qtot 0.077846
 1638         hc     56    bbb     H9   1638 0.06265900   1.008000   ; qtot 0.140505
 1639         hc     56    bbb    H10   1639 0.06265900   1.008000   ; qtot 0.203164
 1640         c3     56    bbb     C6   1640 0.11363000  12.010000   ; qtot 0.316794
 1641         hc     56    bbb    H11   1641 0.06265900   1.008000   ; qtot 0.379453
 1642         hc     56    bbb    H12   1642 0.06265900   1.008000   ; qtot 0.442112
 1643         c3     56    bbb     C7   1643 0.05858200  12.010000   ; qtot 0.500694
 1644         h1     56    bbb    H13   1644 0.06123400   1.008000   ; qtot 0.561928
 1645         h1     56    bbb    H14   1645 0.06123400   1.008000   ; qtot 0.623162
 1646         c3     56    bbb     C8   1646 -0.72423400  12.010000   ; qtot -0.101072
 1647         h1     56    bbb    H15   1647 0.25637600   1.008000   ; qtot 0.155304
 1648         h1     56    bbb    H16   1648 0.25637600   1.008000   ; qtot 0.411680
 1649         c3     56    bbb     C9   1649 -0.72423400  12.010000   ; qtot -0.312554
 1650         h1     56    bbb    H17   1650 0.25637600   1.008000   ; qtot -0.056178
 1651         h1     56    bbb    H18   1651 0.25637600   1.008000   ; qtot 0.200198
 1652         os     56    bbb     O1   1652 -0.20025300  16.000000   ; qtot -0.000055
; residue   57 bbb rtp bbb q -0.0
 1653         n3     57    bbb     N1   1653 -0.59685800  14.010000   ; qtot -0.596913
 1654         c3     57    bbb     C1   1654 0.10137000  12.010000   ; qtot -0.495543
 1655         h1     57    bbb     H1   1655 0.04411300   1.008000   ; qtot -0.451430
 1656         h1     57    bbb     H2   1656 0.04411300   1.008000   ; qtot -0.407317
 1657         c3     57    bbb     C2   1657 0.10137000  12.010000   ; qtot -0.305947
 1658         h1     57    bbb     H3   1658 0.04411300   1.008000   ; qtot -0.261834
 1659         h1     57    bbb     H4   1659 0.04411300   1.008000   ; qtot -0.217721
 1660         c3     57    bbb     C3   1660 -0.00195300  12.010000   ; qtot -0.219674
 1661         h1     57    bbb     H5   1661 0.05064400   1.008000   ; qtot -0.169030
 1662         h1     57    bbb     H6   1662 0.05064400   1.008000   ; qtot -0.118386
 1663         c3     57    bbb     C4   1663 -0.01612100  12.010000   ; qtot -0.134507
 1664         hc     57    bbb     H7   1664 0.04936100   1.008000   ; qtot -0.085146
 1665         hc     57    bbb     H8   1665 0.04936100   1.008000   ; qtot -0.035785
 1666         c3     57    bbb     C5   1666 0.11363000  12.010000   ; qtot 0.077845
 1667         hc     57    bbb     H9   1667 0.06265900   1.008000   ; qtot 0.140504
 1668         hc     57    bbb    H10   1668 0.06265900   1.008000   ; qtot 0.203163
 1669         c3     57    bbb     C6   1669 0.11363000  12.010000   ; qtot 0.316793
 1670         hc     57    bbb    H11   1670 0.06265900   1.008000   ; qtot 0.379452
 1671         hc     57    bbb    H12   1671 0.06265900   1.008000   ; qtot 0.442111
 1672         c3     57    bbb     C7   1672 0.05858200  12.010000   ; qtot 0.500693
 1673         h1     57    bbb    H13   1673 0.06123400   1.008000   ; qtot 0.561927
 1674         h1     57    bbb    H14   1674 0.06123400   1.008000   ; qtot 0.623161
 1675         c3     57    bbb     C8   1675 -0.72423400  12.010000   ; qtot -0.101073
 1676         h1     57    bbb    H15   1676 0.25637600   1.008000   ; qtot 0.155303
 1677         h1     57    bbb    H16   1677 0.25637600   1.008000   ; qtot 0.411679
 1678         c3     57    bbb     C9   1678 -0.72423400  12.010000   ; qtot -0.312555
 1679         h1     57    bbb    H17   1679 0.25637600   1.008000   ; qtot -0.056179
 1680         h1     57    bbb    H18   1680 0.25637600   1.008000   ; qtot 0.200197
 1681         os     57    bbb     O1   1681 -0.20025300  16.000000   ; qtot -0.000056
; residue   58 bbb rtp bbb q -0.0
 1682         n3     58    bbb     N1   1682 -0.59685800  14.010000   ; qtot -0.596914
 1683         c3     58    bbb     C1   1683 0.10137000  12.010000   ; qtot -0.495544
 1684         h1     58    bbb     H1   1684 0.04411300   1.008000   ; qtot -0.451431
 1685         h1     58    bbb     H2   1685 0.04411300   1.008000   ; qtot -0.407318
 1686         c3     58    bbb     C2   1686 0.10137000  12.010000   ; qtot -0.305948
 1687         h1     58    bbb     H3   1687 0.04411300   1.008000   ; qtot -0.261835
 1688         h1     58    bbb     H4   1688 0.04411300   1.008000   ; qtot -0.217722
 1689         c3     58    bbb     C3   1689 -0.00195300  12.010000   ; qtot -0.219675
 1690         h1     58    bbb     H5   1690 0.05064400   1.008000   ; qtot -0.169031
 1691         h1     58    bbb     H6   1691 0.05064400   1.008000   ; qtot -0.118387
 1692         c3     58    bbb     C4   1692 -0.01612100  12.010000   ; qtot -0.134508
 1693         hc     58    bbb     H7   1693 0.04936100   1.008000   ; qtot -0.085147
 1694         hc     58    bbb     H8   1694 0.04936100   1.008000   ; qtot -0.035786
 1695         c3     58    bbb     C5   1695 0.11363000  12.010000   ; qtot 0.077844
 1696         hc     58    bbb     H9   1696 0.06265900   1.008000   ; qtot 0.140503
 1697         hc     58    bbb    H10   1697 0.06265900   1.008000   ; qtot 0.203162
 1698         c3     58    bbb     C6   1698 0.11363000  12.010000   ; qtot 0.316792
 1699         hc     58    bbb    H11   1699 0.06265900   1.008000   ; qtot 0.379451
 1700         hc     58    bbb    H12   1700 0.06265900   1.008000   ; qtot 0.442110
 1701         c3     58    bbb     C7   1701 0.05858200  12.010000   ; qtot 0.500692
 1702         h1     58    bbb    H13   1702 0.06123400   1.008000   ; qtot 0.561926
 1703         h1     58    bbb    H14   1703 0.06123400   1.008000   ; qtot 0.623160
 1704         c3     58    bbb     C8   1704 -0.72423400  12.010000   ; qtot -0.101074
 1705         h1     58    bbb    H15   1705 0.25637600   1.008000   ; qtot 0.155302
 1706         h1     58    bbb    H16   1706 0.25637600   1.008000   ; qtot 0.411678
 1707         c3     58    bbb     C9   1707 -0.72423400  12.010000   ; qtot -0.312556
 1708         h1     58    bbb    H17   1708 0.25637600   1.008000   ; qtot -0.056180
 1709         h1     58    bbb    H18   1709 0.25637600   1.008000   ; qtot 0.200196
 1710         os     58    bbb     O1   1710 -0.20025300  16.000000   ; qtot -0.000057
; residue   59 bbb rtp bbb q -0.0
 1711         n3     59    bbb     N1   1711 -0.59685800  14.010000   ; qtot -0.596915
 1712         c3     59    bbb     C1   1712 0.10137000  12.010000   ; qtot -0.495545
 1713         h1     59    bbb     H1   1713 0.04411300   1.008000   ; qtot -0.451432
 1714         h1     59    bbb     H2   1714 0.04411300   1.008000   ; qtot -0.407319
 1715         c3     59    bbb     C2   1715 0.10137000  12.010000   ; qtot -0.305949
 1716         h1     59    bbb     H3   1716 0.04411300   1.008000   ; qtot -0.261836
 1717         h1     59    bbb     H4   1717 0.04411300   1.008000   ; qtot -0.217723
 1718         c3     59    bbb     C3   1718 -0.00195300  12.010000   ; qtot -0.219676
 1719         h1     59    bbb     H5   1719 0.05064400   1.008000   ; qtot -0.169032
 1720         h1     59    bbb     H6   1720 0.05064400   1.008000   ; qtot -0.118388
 1721         c3     59    bbb     C4   1721 -0.01612100  12.010000   ; qtot -0.134509
 1722         hc     59    bbb     H7   1722 0.04936100   1.008000   ; qtot -0.085148
 1723         hc     59    bbb     H8   1723 0.04936100   1.008000   ; qtot -0.035787
 1724         c3     59    bbb     C5   1724 0.11363000  12.010000   ; qtot 0.077843
 1725         hc     59    bbb     H9   1725 0.06265900   1.008000   ; qtot 0.140502
 1726         hc     59    bbb    H10   1726 0.06265900   1.008000   ; qtot 0.203161
 1727         c3     59    bbb     C6   1727 0.11363000  12.010000   ; qtot 0.316791
 1728         hc     59    bbb    H11   1728 0.06265900   1.008000   ; qtot 0.379450
 1729         hc     59    bbb    H12   1729 0.06265900   1.008000   ; qtot 0.442109
 1730         c3     59    bbb     C7   1730 0.05858200  12.010000   ; qtot 0.500691
 1731         h1     59    bbb    H13   1731 0.06123400   1.008000   ; qtot 0.561925
 1732         h1     59    bbb    H14   1732 0.06123400   1.008000   ; qtot 0.623159
 1733         c3     59    bbb     C8   1733 -0.72423400  12.010000   ; qtot -0.101075
 1734         h1     59    bbb    H15   1734 0.25637600   1.008000   ; qtot 0.155301
 1735         h1     59    bbb    H16   1735 0.25637600   1.008000   ; qtot 0.411677
 1736         c3     59    bbb     C9   1736 -0.72423400  12.010000   ; qtot -0.312557
 1737         h1     59    bbb    H17   1737 0.25637600   1.008000   ; qtot -0.056181
 1738         h1     59    bbb    H18   1738 0.25637600   1.008000   ; qtot 0.200195
 1739         os     59    bbb     O1   1739 -0.20025300  16.000000   ; qtot -0.000058
; residue   60 bbb rtp bbb q -0.0
 1740         n3     60    bbb     N1   1740 -0.59685800  14.010000   ; qtot -0.596916
 1741         c3     60    bbb     C1   1741 0.10137000  12.010000   ; qtot -0.495546
 1742         h1     60    bbb     H1   1742 0.04411300   1.008000   ; qtot -0.451433
 1743         h1     60    bbb     H2   1743 0.04411300   1.008000   ; qtot -0.407320
 1744         c3     60    bbb     C2   1744 0.10137000  12.010000   ; qtot -0.305950
 1745         h1     60    bbb     H3   1745 0.04411300   1.008000   ; qtot -0.261837
 1746         h1     60    bbb     H4   1746 0.04411300   1.008000   ; qtot -0.217724
 1747         c3     60    bbb     C3   1747 -0.00195300  12.010000   ; qtot -0.219677
 1748         h1     60    bbb     H5   1748 0.05064400   1.008000   ; qtot -0.169033
 1749         h1     60    bbb     H6   1749 0.05064400   1.008000   ; qtot -0.118389
 1750         c3     60    bbb     C4   1750 -0.01612100  12.010000   ; qtot -0.134510
 1751         hc     60    bbb     H7   1751 0.04936100   1.008000   ; qtot -0.085149
 1752         hc     60    bbb     H8   1752 0.04936100   1.008000   ; qtot -0.035788
 1753         c3     60    bbb     C5   1753 0.11363000  12.010000   ; qtot 0.077842
 1754         hc     60    bbb     H9   1754 0.06265900   1.008000   ; qtot 0.140501
 1755         hc     60    bbb    H10   1755 0.06265900   1.008000   ; qtot 0.203160
 1756         c3     60    bbb     C6   1756 0.11363000  12.010000   ; qtot 0.316790
 1757         hc     60    bbb    H11   1757 0.06265900   1.008000   ; qtot 0.379449
 1758         hc     60    bbb    H12   1758 0.06265900   1.008000   ; qtot 0.442108
 1759         c3     60    bbb     C7   1759 0.05858200  12.010000   ; qtot 0.500690
 1760         h1     60    bbb    H13   1760 0.06123400   1.008000   ; qtot 0.561924
 1761         h1     60    bbb    H14   1761 0.06123400   1.008000   ; qtot 0.623158
 1762         c3     60    bbb     C8   1762 -0.72423400  12.010000   ; qtot -0.101076
 1763         h1     60    bbb    H15   1763 0.25637600   1.008000   ; qtot 0.155300
 1764         h1     60    bbb    H16   1764 0.25637600   1.008000   ; qtot 0.411676
 1765         c3     60    bbb     C9   1765 -0.72423400  12.010000   ; qtot -0.312558
 1766         h1     60    bbb    H17   1766 0.25637600   1.008000   ; qtot -0.056182
 1767         h1     60    bbb    H18   1767 0.25637600   1.008000   ; qtot 0.200194
 1768         os     60    bbb     O1   1768 -0.20025300  16.000000   ; qtot -0.000059
; residue   61 bbb rtp bbb q -0.0
 1769         n3     61    bbb     N1   1769 -0.59685800  14.010000   ; qtot -0.596917
 1770         c3     61    bbb     C1   1770 0.10137000  12.010000   ; qtot -0.495547
 1771         h1     61    bbb     H1   1771 0.04411300   1.008000   ; qtot -0.451434
 1772         h1     61    bbb     H2   1772 0.04411300   1.008000   ; qtot -0.407321
 1773         c3     61    bbb     C2   1773 0.10137000  12.010000   ; qtot -0.305951
 1774         h1     61    bbb     H3   1774 0.04411300   1.008000   ; qtot -0.261838
 1775         h1     61    bbb     H4   1775 0.04411300   1.008000   ; qtot -0.217725
 1776         c3     61    bbb     C3   1776 -0.00195300  12.010000   ; qtot -0.219678
 1777         h1     61    bbb     H5   1777 0.05064400   1.008000   ; qtot -0.169034
 1778         h1     61    bbb     H6   1778 0.05064400   1.008000   ; qtot -0.118390
 1779         c3     61    bbb     C4   1779 -0.01612100  12.010000   ; qtot -0.134511
 1780         hc     61    bbb     H7   1780 0.04936100   1.008000   ; qtot -0.085150
 1781         hc     61    bbb     H8   1781 0.04936100   1.008000   ; qtot -0.035789
 1782         c3     61    bbb     C5   1782 0.11363000  12.010000   ; qtot 0.077841
 1783         hc     61    bbb     H9   1783 0.06265900   1.008000   ; qtot 0.140500
 1784         hc     61    bbb    H10   1784 0.06265900   1.008000   ; qtot 0.203159
 1785         c3     61    bbb     C6   1785 0.11363000  12.010000   ; qtot 0.316789
 1786         hc     61    bbb    H11   1786 0.06265900   1.008000   ; qtot 0.379448
 1787         hc     61    bbb    H12   1787 0.06265900   1.008000   ; qtot 0.442107
 1788         c3     61    bbb     C7   1788 0.05858200  12.010000   ; qtot 0.500689
 1789         h1     61    bbb    H13   1789 0.06123400   1.008000   ; qtot 0.561923
 1790         h1     61    bbb    H14   1790 0.06123400   1.008000   ; qtot 0.623157
 1791         c3     61    bbb     C8   1791 -0.72423400  12.010000   ; qtot -0.101077
 1792         h1     61    bbb    H15   1792 0.25637600   1.008000   ; qtot 0.155299
 1793         h1     61    bbb    H16   1793 0.25637600   1.008000   ; qtot 0.411675
 1794         c3     61    bbb     C9   1794 -0.72423400  12.010000   ; qtot -0.312559
 1795         h1     61    bbb    H17   1795 0.25637600   1.008000   ; qtot -0.056183
 1796         h1     61    bbb    H18   1796 0.25637600   1.008000   ; qtot 0.200193
 1797         os     61    bbb     O1   1797 -0.20025300  16.000000   ; qtot -0.000060
; residue   62 bbb rtp bbb q -0.0
 1798         n3     62    bbb     N1   1798 -0.59685800  14.010000   ; qtot -0.596918
 1799         c3     62    bbb     C1   1799 0.10137000  12.010000   ; qtot -0.495548
 1800         h1     62    bbb     H1   1800 0.04411300   1.008000   ; qtot -0.451435
 1801         h1     62    bbb     H2   1801 0.04411300   1.008000   ; qtot -0.407322
 1802         c3     62    bbb     C2   1802 0.10137000  12.010000   ; qtot -0.305952
 1803         h1     62    bbb     H3   1803 0.04411300   1.008000   ; qtot -0.261839
 1804         h1     62    bbb     H4   1804 0.04411300   1.008000   ; qtot -0.217726
 1805         c3     62    bbb     C3   1805 -0.00195300  12.010000   ; qtot -0.219679
 1806         h1     62    bbb     H5   1806 0.05064400   1.008000   ; qtot -0.169035
 1807         h1     62    bbb     H6   1807 0.05064400   1.008000   ; qtot -0.118391
 1808         c3     62    bbb     C4   1808 -0.01612100  12.010000   ; qtot -0.134512
 1809         hc     62    bbb     H7   1809 0.04936100   1.008000   ; qtot -0.085151
 1810         hc     62    bbb     H8   1810 0.04936100   1.008000   ; qtot -0.035790
 1811         c3     62    bbb     C5   1811 0.11363000  12.010000   ; qtot 0.077840
 1812         hc     62    bbb     H9   1812 0.06265900   1.008000   ; qtot 0.140499
 1813         hc     62    bbb    H10   1813 0.06265900   1.008000   ; qtot 0.203158
 1814         c3     62    bbb     C6   1814 0.11363000  12.010000   ; qtot 0.316788
 1815         hc     62    bbb    H11   1815 0.06265900   1.008000   ; qtot 0.379447
 1816         hc     62    bbb    H12   1816 0.06265900   1.008000   ; qtot 0.442106
 1817         c3     62    bbb     C7   1817 0.05858200  12.010000   ; qtot 0.500688
 1818         h1     62    bbb    H13   1818 0.06123400   1.008000   ; qtot 0.561922
 1819         h1     62    bbb    H14   1819 0.06123400   1.008000   ; qtot 0.623156
 1820         c3     62    bbb     C8   1820 -0.72423400  12.010000   ; qtot -0.101078
 1821         h1     62    bbb    H15   1821 0.25637600   1.008000   ; qtot 0.155298
 1822         h1     62    bbb    H16   1822 0.25637600   1.008000   ; qtot 0.411674
 1823         c3     62    bbb     C9   1823 -0.72423400  12.010000   ; qtot -0.312560
 1824         h1     62    bbb    H17   1824 0.25637600   1.008000   ; qtot -0.056184
 1825         h1     62    bbb    H18   1825 0.25637600   1.008000   ; qtot 0.200192
 1826         os     62    bbb     O1   1826 -0.20025300  16.000000   ; qtot -0.000061
; residue   63 bbb rtp bbb q -0.0
 1827         n3     63    bbb     N1   1827 -0.59685800  14.010000   ; qtot -0.596919
 1828         c3     63    bbb     C1   1828 0.10137000  12.010000   ; qtot -0.495549
 1829         h1     63    bbb     H1   1829 0.04411300   1.008000   ; qtot -0.451436
 1830         h1     63    bbb     H2   1830 0.04411300   1.008000   ; qtot -0.407323
 1831         c3     63    bbb     C2   1831 0.10137000  12.010000   ; qtot -0.305953
 1832         h1     63    bbb     H3   1832 0.04411300   1.008000   ; qtot -0.261840
 1833         h1     63    bbb     H4   1833 0.04411300   1.008000   ; qtot -0.217727
 1834         c3     63    bbb     C3   1834 -0.00195300  12.010000   ; qtot -0.219680
 1835         h1     63    bbb     H5   1835 0.05064400   1.008000   ; qtot -0.169036
 1836         h1     63    bbb     H6   1836 0.05064400   1.008000   ; qtot -0.118392
 1837         c3     63    bbb     C4   1837 -0.01612100  12.010000   ; qtot -0.134513
 1838         hc     63    bbb     H7   1838 0.04936100   1.008000   ; qtot -0.085152
 1839         hc     63    bbb     H8   1839 0.04936100   1.008000   ; qtot -0.035791
 1840         c3     63    bbb     C5   1840 0.11363000  12.010000   ; qtot 0.077839
 1841         hc     63    bbb     H9   1841 0.06265900   1.008000   ; qtot 0.140498
 1842         hc     63    bbb    H10   1842 0.06265900   1.008000   ; qtot 0.203157
 1843         c3     63    bbb     C6   1843 0.11363000  12.010000   ; qtot 0.316787
 1844         hc     63    bbb    H11   1844 0.06265900   1.008000   ; qtot 0.379446
 1845         hc     63    bbb    H12   1845 0.06265900   1.008000   ; qtot 0.442105
 1846         c3     63    bbb     C7   1846 0.05858200  12.010000   ; qtot 0.500687
 1847         h1     63    bbb    H13   1847 0.06123400   1.008000   ; qtot 0.561921
 1848         h1     63    bbb    H14   1848 0.06123400   1.008000   ; qtot 0.623155
 1849         c3     63    bbb     C8   1849 -0.72423400  12.010000   ; qtot -0.101079
 1850         h1     63    bbb    H15   1850 0.25637600   1.008000   ; qtot 0.155297
 1851         h1     63    bbb    H16   1851 0.25637600   1.008000   ; qtot 0.411673
 1852         c3     63    bbb     C9   1852 -0.72423400  12.010000   ; qtot -0.312561
 1853         h1     63    bbb    H17   1853 0.25637600   1.008000   ; qtot -0.056185
 1854         h1     63    bbb    H18   1854 0.25637600   1.008000   ; qtot 0.200191
 1855         os     63    bbb     O1   1855 -0.20025300  16.000000   ; qtot -0.000062
; residue   64 bbb rtp bbb q -0.0
 1856         n3     64    bbb     N1   1856 -0.59685800  14.010000   ; qtot -0.596920
 1857         c3     64    bbb     C1   1857 0.10137000  12.010000   ; qtot -0.495550
 1858         h1     64    bbb     H1   1858 0.04411300   1.008000   ; qtot -0.451437
 1859         h1     64    bbb     H2   1859 0.04411300   1.008000   ; qtot -0.407324
 1860         c3     64    bbb     C2   1860 0.10137000  12.010000   ; qtot -0.305954
 1861         h1     64    bbb     H3   1861 0.04411300   1.008000   ; qtot -0.261841
 1862         h1     64    bbb     H4   1862 0.04411300   1.008000   ; qtot -0.217728
 1863         c3     64    bbb     C3   1863 -0.00195300  12.010000   ; qtot -0.219681
 1864         h1     64    bbb     H5   1864 0.05064400   1.008000   ; qtot -0.169037
 1865         h1     64    bbb     H6   1865 0.05064400   1.008000   ; qtot -0.118393
 1866         c3     64    bbb     C4   1866 -0.01612100  12.010000   ; qtot -0.134514
 1867         hc     64    bbb     H7   1867 0.04936100   1.008000   ; qtot -0.085153
 1868         hc     64    bbb     H8   1868 0.04936100   1.008000   ; qtot -0.035792
 1869         c3     64    bbb     C5   1869 0.11363000  12.010000   ; qtot 0.077838
 1870         hc     64    bbb     H9   1870 0.06265900   1.008000   ; qtot 0.140497
 1871         hc     64    bbb    H10   1871 0.06265900   1.008000   ; qtot 0.203156
 1872         c3     64    bbb     C6   1872 0.11363000  12.010000   ; qtot 0.316786
 1873         hc     64    bbb    H11   1873 0.06265900   1.008000   ; qtot 0.379445
 1874         hc     64    bbb    H12   1874 0.06265900   1.008000   ; qtot 0.442104
 1875         c3     64    bbb     C7   1875 0.05858200  12.010000   ; qtot 0.500686
 1876         h1     64    bbb    H13   1876 0.06123400   1.008000   ; qtot 0.561920
 1877         h1     64    bbb    H14   1877 0.06123400   1.008000   ; qtot 0.623154
 1878         c3     64    bbb     C8   1878 -0.72423400  12.010000   ; qtot -0.101080
 1879         h1     64    bbb    H15   1879 0.25637600   1.008000   ; qtot 0.155296
 1880         h1     64    bbb    H16   1880 0.25637600   1.008000   ; qtot 0.411672
 1881         c3     64    bbb     C9   1881 -0.72423400  12.010000   ; qtot -0.312562
 1882         h1     64    bbb    H17   1882 0.25637600   1.008000   ; qtot -0.056186
 1883         h1     64    bbb    H18   1883 0.25637600   1.008000   ; qtot 0.200190
 1884         os     64    bbb     O1   1884 -0.20025300  16.000000   ; qtot -0.000063
; residue   65 bbb rtp bbb q -0.0
 1885         n3     65    bbb     N1   1885 -0.59685800  14.010000   ; qtot -0.596921
 1886         c3     65    bbb     C1   1886 0.10137000  12.010000   ; qtot -0.495551
 1887         h1     65    bbb     H1   1887 0.04411300   1.008000   ; qtot -0.451438
 1888         h1     65    bbb     H2   1888 0.04411300   1.008000   ; qtot -0.407325
 1889         c3     65    bbb     C2   1889 0.10137000  12.010000   ; qtot -0.305955
 1890         h1     65    bbb     H3   1890 0.04411300   1.008000   ; qtot -0.261842
 1891         h1     65    bbb     H4   1891 0.04411300   1.008000   ; qtot -0.217729
 1892         c3     65    bbb     C3   1892 -0.00195300  12.010000   ; qtot -0.219682
 1893         h1     65    bbb     H5   1893 0.05064400   1.008000   ; qtot -0.169038
 1894         h1     65    bbb     H6   1894 0.05064400   1.008000   ; qtot -0.118394
 1895         c3     65    bbb     C4   1895 -0.01612100  12.010000   ; qtot -0.134515
 1896         hc     65    bbb     H7   1896 0.04936100   1.008000   ; qtot -0.085154
 1897         hc     65    bbb     H8   1897 0.04936100   1.008000   ; qtot -0.035793
 1898         c3     65    bbb     C5   1898 0.11363000  12.010000   ; qtot 0.077837
 1899         hc     65    bbb     H9   1899 0.06265900   1.008000   ; qtot 0.140496
 1900         hc     65    bbb    H10   1900 0.06265900   1.008000   ; qtot 0.203155
 1901         c3     65    bbb     C6   1901 0.11363000  12.010000   ; qtot 0.316785
 1902         hc     65    bbb    H11   1902 0.06265900   1.008000   ; qtot 0.379444
 1903         hc     65    bbb    H12   1903 0.06265900   1.008000   ; qtot 0.442103
 1904         c3     65    bbb     C7   1904 0.05858200  12.010000   ; qtot 0.500685
 1905         h1     65    bbb    H13   1905 0.06123400   1.008000   ; qtot 0.561919
 1906         h1     65    bbb    H14   1906 0.06123400   1.008000   ; qtot 0.623153
 1907         c3     65    bbb     C8   1907 -0.72423400  12.010000   ; qtot -0.101081
 1908         h1     65    bbb    H15   1908 0.25637600   1.008000   ; qtot 0.155295
 1909         h1     65    bbb    H16   1909 0.25637600   1.008000   ; qtot 0.411671
 1910         c3     65    bbb     C9   1910 -0.72423400  12.010000   ; qtot -0.312563
 1911         h1     65    bbb    H17   1911 0.25637600   1.008000   ; qtot -0.056187
 1912         h1     65    bbb    H18   1912 0.25637600   1.008000   ; qtot 0.200189
 1913         os     65    bbb     O1   1913 -0.20025300  16.000000   ; qtot -0.000064
; residue   66 bbb rtp bbb q -0.0
 1914         n3     66    bbb     N1   1914 -0.59685800  14.010000   ; qtot -0.596922
 1915         c3     66    bbb     C1   1915 0.10137000  12.010000   ; qtot -0.495552
 1916         h1     66    bbb     H1   1916 0.04411300   1.008000   ; qtot -0.451439
 1917         h1     66    bbb     H2   1917 0.04411300   1.008000   ; qtot -0.407326
 1918         c3     66    bbb     C2   1918 0.10137000  12.010000   ; qtot -0.305956
 1919         h1     66    bbb     H3   1919 0.04411300   1.008000   ; qtot -0.261843
 1920         h1     66    bbb     H4   1920 0.04411300   1.008000   ; qtot -0.217730
 1921         c3     66    bbb     C3   1921 -0.00195300  12.010000   ; qtot -0.219683
 1922         h1     66    bbb     H5   1922 0.05064400   1.008000   ; qtot -0.169039
 1923         h1     66    bbb     H6   1923 0.05064400   1.008000   ; qtot -0.118395
 1924         c3     66    bbb     C4   1924 -0.01612100  12.010000   ; qtot -0.134516
 1925         hc     66    bbb     H7   1925 0.04936100   1.008000   ; qtot -0.085155
 1926         hc     66    bbb     H8   1926 0.04936100   1.008000   ; qtot -0.035794
 1927         c3     66    bbb     C5   1927 0.11363000  12.010000   ; qtot 0.077836
 1928         hc     66    bbb     H9   1928 0.06265900   1.008000   ; qtot 0.140495
 1929         hc     66    bbb    H10   1929 0.06265900   1.008000   ; qtot 0.203154
 1930         c3     66    bbb     C6   1930 0.11363000  12.010000   ; qtot 0.316784
 1931         hc     66    bbb    H11   1931 0.06265900   1.008000   ; qtot 0.379443
 1932         hc     66    bbb    H12   1932 0.06265900   1.008000   ; qtot 0.442102
 1933         c3     66    bbb     C7   1933 0.05858200  12.010000   ; qtot 0.500684
 1934         h1     66    bbb    H13   1934 0.06123400   1.008000   ; qtot 0.561918
 1935         h1     66    bbb    H14   1935 0.06123400   1.008000   ; qtot 0.623152
 1936         c3     66    bbb     C8   1936 -0.72423400  12.010000   ; qtot -0.101082
 1937         h1     66    bbb    H15   1937 0.25637600   1.008000   ; qtot 0.155294
 1938         h1     66    bbb    H16   1938 0.25637600   1.008000   ; qtot 0.411670
 1939         c3     66    bbb     C9   1939 -0.72423400  12.010000   ; qtot -0.312564
 1940         h1     66    bbb    H17   1940 0.25637600   1.008000   ; qtot -0.056188
 1941         h1     66    bbb    H18   1941 0.25637600   1.008000   ; qtot 0.200188
 1942         os     66    bbb     O1   1942 -0.20025300  16.000000   ; qtot -0.000065
; residue   67 bbb rtp bbb q -0.0
 1943         n3     67    bbb     N1   1943 -0.59685800  14.010000   ; qtot -0.596923
 1944         c3     67    bbb     C1   1944 0.10137000  12.010000   ; qtot -0.495553
 1945         h1     67    bbb     H1   1945 0.04411300   1.008000   ; qtot -0.451440
 1946         h1     67    bbb     H2   1946 0.04411300   1.008000   ; qtot -0.407327
 1947         c3     67    bbb     C2   1947 0.10137000  12.010000   ; qtot -0.305957
 1948         h1     67    bbb     H3   1948 0.04411300   1.008000   ; qtot -0.261844
 1949         h1     67    bbb     H4   1949 0.04411300   1.008000   ; qtot -0.217731
 1950         c3     67    bbb     C3   1950 -0.00195300  12.010000   ; qtot -0.219684
 1951         h1     67    bbb     H5   1951 0.05064400   1.008000   ; qtot -0.169040
 1952         h1     67    bbb     H6   1952 0.05064400   1.008000   ; qtot -0.118396
 1953         c3     67    bbb     C4   1953 -0.01612100  12.010000   ; qtot -0.134517
 1954         hc     67    bbb     H7   1954 0.04936100   1.008000   ; qtot -0.085156
 1955         hc     67    bbb     H8   1955 0.04936100   1.008000   ; qtot -0.035795
 1956         c3     67    bbb     C5   1956 0.11363000  12.010000   ; qtot 0.077835
 1957         hc     67    bbb     H9   1957 0.06265900   1.008000   ; qtot 0.140494
 1958         hc     67    bbb    H10   1958 0.06265900   1.008000   ; qtot 0.203153
 1959         c3     67    bbb     C6   1959 0.11363000  12.010000   ; qtot 0.316783
 1960         hc     67    bbb    H11   1960 0.06265900   1.008000   ; qtot 0.379442
 1961         hc     67    bbb    H12   1961 0.06265900   1.008000   ; qtot 0.442101
 1962         c3     67    bbb     C7   1962 0.05858200  12.010000   ; qtot 0.500683
 1963         h1     67    bbb    H13   1963 0.06123400   1.008000   ; qtot 0.561917
 1964         h1     67    bbb    H14   1964 0.06123400   1.008000   ; qtot 0.623151
 1965         c3     67    bbb     C8   1965 -0.72423400  12.010000   ; qtot -0.101083
 1966         h1     67    bbb    H15   1966 0.25637600   1.008000   ; qtot 0.155293
 1967         h1     67    bbb    H16   1967 0.25637600   1.008000   ; qtot 0.411669
 1968         c3     67    bbb     C9   1968 -0.72423400  12.010000   ; qtot -0.312565
 1969         h1     67    bbb    H17   1969 0.25637600   1.008000   ; qtot -0.056189
 1970         h1     67    bbb    H18   1970 0.25637600   1.008000   ; qtot 0.200187
 1971         os     67    bbb     O1   1971 -0.20025300  16.000000   ; qtot -0.000066
; residue   68 bbb rtp bbb q -0.0
 1972         n3     68    bbb     N1   1972 -0.59685800  14.010000   ; qtot -0.596924
 1973         c3     68    bbb     C1   1973 0.10137000  12.010000   ; qtot -0.495554
 1974         h1     68    bbb     H1   1974 0.04411300   1.008000   ; qtot -0.451441
 1975         h1     68    bbb     H2   1975 0.04411300   1.008000   ; qtot -0.407328
 1976         c3     68    bbb     C2   1976 0.10137000  12.010000   ; qtot -0.305958
 1977         h1     68    bbb     H3   1977 0.04411300   1.008000   ; qtot -0.261845
 1978         h1     68    bbb     H4   1978 0.04411300   1.008000   ; qtot -0.217732
 1979         c3     68    bbb     C3   1979 -0.00195300  12.010000   ; qtot -0.219685
 1980         h1     68    bbb     H5   1980 0.05064400   1.008000   ; qtot -0.169041
 1981         h1     68    bbb     H6   1981 0.05064400   1.008000   ; qtot -0.118397
 1982         c3     68    bbb     C4   1982 -0.01612100  12.010000   ; qtot -0.134518
 1983         hc     68    bbb     H7   1983 0.04936100   1.008000   ; qtot -0.085157
 1984         hc     68    bbb     H8   1984 0.04936100   1.008000   ; qtot -0.035796
 1985         c3     68    bbb     C5   1985 0.11363000  12.010000   ; qtot 0.077834
 1986         hc     68    bbb     H9   1986 0.06265900   1.008000   ; qtot 0.140493
 1987         hc     68    bbb    H10   1987 0.06265900   1.008000   ; qtot 0.203152
 1988         c3     68    bbb     C6   1988 0.11363000  12.010000   ; qtot 0.316782
 1989         hc     68    bbb    H11   1989 0.06265900   1.008000   ; qtot 0.379441
 1990         hc     68    bbb    H12   1990 0.06265900   1.008000   ; qtot 0.442100
 1991         c3     68    bbb     C7   1991 0.05858200  12.010000   ; qtot 0.500682
 1992         h1     68    bbb    H13   1992 0.06123400   1.008000   ; qtot 0.561916
 1993         h1     68    bbb    H14   1993 0.06123400   1.008000   ; qtot 0.623150
 1994         c3     68    bbb     C8   1994 -0.72423400  12.010000   ; qtot -0.101084
 1995         h1     68    bbb    H15   1995 0.25637600   1.008000   ; qtot 0.155292
 1996         h1     68    bbb    H16   1996 0.25637600   1.008000   ; qtot 0.411668
 1997         c3     68    bbb     C9   1997 -0.72423400  12.010000   ; qtot -0.312566
 1998         h1     68    bbb    H17   1998 0.25637600   1.008000   ; qtot -0.056190
 1999         h1     68    bbb    H18   1999 0.25637600   1.008000   ; qtot 0.200186
 2000         os     68    bbb     O1   2000 -0.20025300  16.000000   ; qtot -0.000067
; residue   69 bbb rtp bbb q -0.0
 2001         n3     69    bbb     N1   2001 -0.59685800  14.010000   ; qtot -0.596925
 2002         c3     69    bbb     C1   2002 0.10137000  12.010000   ; qtot -0.495555
 2003         h1     69    bbb     H1   2003 0.04411300   1.008000   ; qtot -0.451442
 2004         h1     69    bbb     H2   2004 0.04411300   1.008000   ; qtot -0.407329
 2005         c3     69    bbb     C2   2005 0.10137000  12.010000   ; qtot -0.305959
 2006         h1     69    bbb     H3   2006 0.04411300   1.008000   ; qtot -0.261846
 2007         h1     69    bbb     H4   2007 0.04411300   1.008000   ; qtot -0.217733
 2008         c3     69    bbb     C3   2008 -0.00195300  12.010000   ; qtot -0.219686
 2009         h1     69    bbb     H5   2009 0.05064400   1.008000   ; qtot -0.169042
 2010         h1     69    bbb     H6   2010 0.05064400   1.008000   ; qtot -0.118398
 2011         c3     69    bbb     C4   2011 -0.01612100  12.010000   ; qtot -0.134519
 2012         hc     69    bbb     H7   2012 0.04936100   1.008000   ; qtot -0.085158
 2013         hc     69    bbb     H8   2013 0.04936100   1.008000   ; qtot -0.035797
 2014         c3     69    bbb     C5   2014 0.11363000  12.010000   ; qtot 0.077833
 2015         hc     69    bbb     H9   2015 0.06265900   1.008000   ; qtot 0.140492
 2016         hc     69    bbb    H10   2016 0.06265900   1.008000   ; qtot 0.203151
 2017         c3     69    bbb     C6   2017 0.11363000  12.010000   ; qtot 0.316781
 2018         hc     69    bbb    H11   2018 0.06265900   1.008000   ; qtot 0.379440
 2019         hc     69    bbb    H12   2019 0.06265900   1.008000   ; qtot 0.442099
 2020         c3     69    bbb     C7   2020 0.05858200  12.010000   ; qtot 0.500681
 2021         h1     69    bbb    H13   2021 0.06123400   1.008000   ; qtot 0.561915
 2022         h1     69    bbb    H14   2022 0.06123400   1.008000   ; qtot 0.623149
 2023         c3     69    bbb     C8   2023 -0.72423400  12.010000   ; qtot -0.101085
 2024         h1     69    bbb    H15   2024 0.25637600   1.008000   ; qtot 0.155291
 2025         h1     69    bbb    H16   2025 0.25637600   1.008000   ; qtot 0.411667
 2026         c3     69    bbb     C9   2026 -0.72423400  12.010000   ; qtot -0.312567
 2027         h1     69    bbb    H17   2027 0.25637600   1.008000   ; qtot -0.056191
 2028         h1     69    bbb    H18   2028 0.25637600   1.008000   ; qtot 0.200185
 2029         os     69    bbb     O1   2029 -0.20025300  16.000000   ; qtot -0.000068
; residue   70 bbb rtp bbb q -0.0
 2030         n3     70    bbb     N1   2030 -0.59685800  14.010000   ; qtot -0.596926
 2031         c3     70    bbb     C1   2031 0.10137000  12.010000   ; qtot -0.495556
 2032         h1     70    bbb     H1   2032 0.04411300   1.008000   ; qtot -0.451443
 2033         h1     70    bbb     H2   2033 0.04411300   1.008000   ; qtot -0.407330
 2034         c3     70    bbb     C2   2034 0.10137000  12.010000   ; qtot -0.305960
 2035         h1     70    bbb     H3   2035 0.04411300   1.008000   ; qtot -0.261847
 2036         h1     70    bbb     H4   2036 0.04411300   1.008000   ; qtot -0.217734
 2037         c3     70    bbb     C3   2037 -0.00195300  12.010000   ; qtot -0.219687
 2038         h1     70    bbb     H5   2038 0.05064400   1.008000   ; qtot -0.169043
 2039         h1     70    bbb     H6   2039 0.05064400   1.008000   ; qtot -0.118399
 2040         c3     70    bbb     C4   2040 -0.01612100  12.010000   ; qtot -0.134520
 2041         hc     70    bbb     H7   2041 0.04936100   1.008000   ; qtot -0.085159
 2042         hc     70    bbb     H8   2042 0.04936100   1.008000   ; qtot -0.035798
 2043         c3     70    bbb     C5   2043 0.11363000  12.010000   ; qtot 0.077832
 2044         hc     70    bbb     H9   2044 0.06265900   1.008000   ; qtot 0.140491
 2045         hc     70    bbb    H10   2045 0.06265900   1.008000   ; qtot 0.203150
 2046         c3     70    bbb     C6   2046 0.11363000  12.010000   ; qtot 0.316780
 2047         hc     70    bbb    H11   2047 0.06265900   1.008000   ; qtot 0.379439
 2048         hc     70    bbb    H12   2048 0.06265900   1.008000   ; qtot 0.442098
 2049         c3     70    bbb     C7   2049 0.05858200  12.010000   ; qtot 0.500680
 2050         h1     70    bbb    H13   2050 0.06123400   1.008000   ; qtot 0.561914
 2051         h1     70    bbb    H14   2051 0.06123400   1.008000   ; qtot 0.623148
 2052         c3     70    bbb     C8   2052 -0.72423400  12.010000   ; qtot -0.101086
 2053         h1     70    bbb    H15   2053 0.25637600   1.008000   ; qtot 0.155290
 2054         h1     70    bbb    H16   2054 0.25637600   1.008000   ; qtot 0.411666
 2055         c3     70    bbb     C9   2055 -0.72423400  12.010000   ; qtot -0.312568
 2056         h1     70    bbb    H17   2056 0.25637600   1.008000   ; qtot -0.056192
 2057         h1     70    bbb    H18   2057 0.25637600   1.008000   ; qtot 0.200184
 2058         os     70    bbb     O1   2058 -0.20025300  16.000000   ; qtot -0.000069
; residue   71 bbb rtp bbb q -0.0
 2059         n3     71    bbb     N1   2059 -0.59685800  14.010000   ; qtot -0.596927
 2060         c3     71    bbb     C1   2060 0.10137000  12.010000   ; qtot -0.495557
 2061         h1     71    bbb     H1   2061 0.04411300   1.008000   ; qtot -0.451444
 2062         h1     71    bbb     H2   2062 0.04411300   1.008000   ; qtot -0.407331
 2063         c3     71    bbb     C2   2063 0.10137000  12.010000   ; qtot -0.305961
 2064         h1     71    bbb     H3   2064 0.04411300   1.008000   ; qtot -0.261848
 2065         h1     71    bbb     H4   2065 0.04411300   1.008000   ; qtot -0.217735
 2066         c3     71    bbb     C3   2066 -0.00195300  12.010000   ; qtot -0.219688
 2067         h1     71    bbb     H5   2067 0.05064400   1.008000   ; qtot -0.169044
 2068         h1     71    bbb     H6   2068 0.05064400   1.008000   ; qtot -0.118400
 2069         c3     71    bbb     C4   2069 -0.01612100  12.010000   ; qtot -0.134521
 2070         hc     71    bbb     H7   2070 0.04936100   1.008000   ; qtot -0.085160
 2071         hc     71    bbb     H8   2071 0.04936100   1.008000   ; qtot -0.035799
 2072         c3     71    bbb     C5   2072 0.11363000  12.010000   ; qtot 0.077831
 2073         hc     71    bbb     H9   2073 0.06265900   1.008000   ; qtot 0.140490
 2074         hc     71    bbb    H10   2074 0.06265900   1.008000   ; qtot 0.203149
 2075         c3     71    bbb     C6   2075 0.11363000  12.010000   ; qtot 0.316779
 2076         hc     71    bbb    H11   2076 0.06265900   1.008000   ; qtot 0.379438
 2077         hc     71    bbb    H12   2077 0.06265900   1.008000   ; qtot 0.442097
 2078         c3     71    bbb     C7   2078 0.05858200  12.010000   ; qtot 0.500679
 2079         h1     71    bbb    H13   2079 0.06123400   1.008000   ; qtot 0.561913
 2080         h1     71    bbb    H14   2080 0.06123400   1.008000   ; qtot 0.623147
 2081         c3     71    bbb     C8   2081 -0.72423400  12.010000   ; qtot -0.101087
 2082         h1     71    bbb    H15   2082 0.25637600   1.008000   ; qtot 0.155289
 2083         h1     71    bbb    H16   2083 0.25637600   1.008000   ; qtot 0.411665
 2084         c3     71    bbb     C9   2084 -0.72423400  12.010000   ; qtot -0.312569
 2085         h1     71    bbb    H17   2085 0.25637600   1.008000   ; qtot -0.056193
 2086         h1     71    bbb    H18   2086 0.25637600   1.008000   ; qtot 0.200183
 2087         os     71    bbb     O1   2087 -0.20025300  16.000000   ; qtot -0.000070
; residue   72 bbb rtp bbb q -0.0
 2088         n3     72    bbb     N1   2088 -0.59685800  14.010000   ; qtot -0.596928
 2089         c3     72    bbb     C1   2089 0.10137000  12.010000   ; qtot -0.495558
 2090         h1     72    bbb     H1   2090 0.04411300   1.008000   ; qtot -0.451445
 2091         h1     72    bbb     H2   2091 0.04411300   1.008000   ; qtot -0.407332
 2092         c3     72    bbb     C2   2092 0.10137000  12.010000   ; qtot -0.305962
 2093         h1     72    bbb     H3   2093 0.04411300   1.008000   ; qtot -0.261849
 2094         h1     72    bbb     H4   2094 0.04411300   1.008000   ; qtot -0.217736
 2095         c3     72    bbb     C3   2095 -0.00195300  12.010000   ; qtot -0.219689
 2096         h1     72    bbb     H5   2096 0.05064400   1.008000   ; qtot -0.169045
 2097         h1     72    bbb     H6   2097 0.05064400   1.008000   ; qtot -0.118401
 2098         c3     72    bbb     C4   2098 -0.01612100  12.010000   ; qtot -0.134522
 2099         hc     72    bbb     H7   2099 0.04936100   1.008000   ; qtot -0.085161
 2100         hc     72    bbb     H8   2100 0.04936100   1.008000   ; qtot -0.035800
 2101         c3     72    bbb     C5   2101 0.11363000  12.010000   ; qtot 0.077830
 2102         hc     72    bbb     H9   2102 0.06265900   1.008000   ; qtot 0.140489
 2103         hc     72    bbb    H10   2103 0.06265900   1.008000   ; qtot 0.203148
 2104         c3     72    bbb     C6   2104 0.11363000  12.010000   ; qtot 0.316778
 2105         hc     72    bbb    H11   2105 0.06265900   1.008000   ; qtot 0.379437
 2106         hc     72    bbb    H12   2106 0.06265900   1.008000   ; qtot 0.442096
 2107         c3     72    bbb     C7   2107 0.05858200  12.010000   ; qtot 0.500678
 2108         h1     72    bbb    H13   2108 0.06123400   1.008000   ; qtot 0.561912
 2109         h1     72    bbb    H14   2109 0.06123400   1.008000   ; qtot 0.623146
 2110         c3     72    bbb     C8   2110 -0.72423400  12.010000   ; qtot -0.101088
 2111         h1     72    bbb    H15   2111 0.25637600   1.008000   ; qtot 0.155288
 2112         h1     72    bbb    H16   2112 0.25637600   1.008000   ; qtot 0.411664
 2113         c3     72    bbb     C9   2113 -0.72423400  12.010000   ; qtot -0.312570
 2114         h1     72    bbb    H17   2114 0.25637600   1.008000   ; qtot -0.056194
 2115         h1     72    bbb    H18   2115 0.25637600   1.008000   ; qtot 0.200182
 2116         os     72    bbb     O1   2116 -0.20025300  16.000000   ; qtot -0.000071
; residue   73 bbb rtp bbb q -0.0
 2117         n3     73    bbb     N1   2117 -0.59685800  14.010000   ; qtot -0.596929
 2118         c3     73    bbb     C1   2118 0.10137000  12.010000   ; qtot -0.495559
 2119         h1     73    bbb     H1   2119 0.04411300   1.008000   ; qtot -0.451446
 2120         h1     73    bbb     H2   2120 0.04411300   1.008000   ; qtot -0.407333
 2121         c3     73    bbb     C2   2121 0.10137000  12.010000   ; qtot -0.305963
 2122         h1     73    bbb     H3   2122 0.04411300   1.008000   ; qtot -0.261850
 2123         h1     73    bbb     H4   2123 0.04411300   1.008000   ; qtot -0.217737
 2124         c3     73    bbb     C3   2124 -0.00195300  12.010000   ; qtot -0.219690
 2125         h1     73    bbb     H5   2125 0.05064400   1.008000   ; qtot -0.169046
 2126         h1     73    bbb     H6   2126 0.05064400   1.008000   ; qtot -0.118402
 2127         c3     73    bbb     C4   2127 -0.01612100  12.010000   ; qtot -0.134523
 2128         hc     73    bbb     H7   2128 0.04936100   1.008000   ; qtot -0.085162
 2129         hc     73    bbb     H8   2129 0.04936100   1.008000   ; qtot -0.035801
 2130         c3     73    bbb     C5   2130 0.11363000  12.010000   ; qtot 0.077829
 2131         hc     73    bbb     H9   2131 0.06265900   1.008000   ; qtot 0.140488
 2132         hc     73    bbb    H10   2132 0.06265900   1.008000   ; qtot 0.203147
 2133         c3     73    bbb     C6   2133 0.11363000  12.010000   ; qtot 0.316777
 2134         hc     73    bbb    H11   2134 0.06265900   1.008000   ; qtot 0.379436
 2135         hc     73    bbb    H12   2135 0.06265900   1.008000   ; qtot 0.442095
 2136         c3     73    bbb     C7   2136 0.05858200  12.010000   ; qtot 0.500677
 2137         h1     73    bbb    H13   2137 0.06123400   1.008000   ; qtot 0.561911
 2138         h1     73    bbb    H14   2138 0.06123400   1.008000   ; qtot 0.623145
 2139         c3     73    bbb     C8   2139 -0.72423400  12.010000   ; qtot -0.101089
 2140         h1     73    bbb    H15   2140 0.25637600   1.008000   ; qtot 0.155287
 2141         h1     73    bbb    H16   2141 0.25637600   1.008000   ; qtot 0.411663
 2142         c3     73    bbb     C9   2142 -0.72423400  12.010000   ; qtot -0.312571
 2143         h1     73    bbb    H17   2143 0.25637600   1.008000   ; qtot -0.056195
 2144         h1     73    bbb    H18   2144 0.25637600   1.008000   ; qtot 0.200181
 2145         os     73    bbb     O1   2145 -0.20025300  16.000000   ; qtot -0.000072
; residue   74 bbb rtp bbb q -0.0
 2146         n3     74    bbb     N1   2146 -0.59685800  14.010000   ; qtot -0.596930
 2147         c3     74    bbb     C1   2147 0.10137000  12.010000   ; qtot -0.495560
 2148         h1     74    bbb     H1   2148 0.04411300   1.008000   ; qtot -0.451447
 2149         h1     74    bbb     H2   2149 0.04411300   1.008000   ; qtot -0.407334
 2150         c3     74    bbb     C2   2150 0.10137000  12.010000   ; qtot -0.305964
 2151         h1     74    bbb     H3   2151 0.04411300   1.008000   ; qtot -0.261851
 2152         h1     74    bbb     H4   2152 0.04411300   1.008000   ; qtot -0.217738
 2153         c3     74    bbb     C3   2153 -0.00195300  12.010000   ; qtot -0.219691
 2154         h1     74    bbb     H5   2154 0.05064400   1.008000   ; qtot -0.169047
 2155         h1     74    bbb     H6   2155 0.05064400   1.008000   ; qtot -0.118403
 2156         c3     74    bbb     C4   2156 -0.01612100  12.010000   ; qtot -0.134524
 2157         hc     74    bbb     H7   2157 0.04936100   1.008000   ; qtot -0.085163
 2158         hc     74    bbb     H8   2158 0.04936100   1.008000   ; qtot -0.035802
 2159         c3     74    bbb     C5   2159 0.11363000  12.010000   ; qtot 0.077828
 2160         hc     74    bbb     H9   2160 0.06265900   1.008000   ; qtot 0.140487
 2161         hc     74    bbb    H10   2161 0.06265900   1.008000   ; qtot 0.203146
 2162         c3     74    bbb     C6   2162 0.11363000  12.010000   ; qtot 0.316776
 2163         hc     74    bbb    H11   2163 0.06265900   1.008000   ; qtot 0.379435
 2164         hc     74    bbb    H12   2164 0.06265900   1.008000   ; qtot 0.442094
 2165         c3     74    bbb     C7   2165 0.05858200  12.010000   ; qtot 0.500676
 2166         h1     74    bbb    H13   2166 0.06123400   1.008000   ; qtot 0.561910
 2167         h1     74    bbb    H14   2167 0.06123400   1.008000   ; qtot 0.623144
 2168         c3     74    bbb     C8   2168 -0.72423400  12.010000   ; qtot -0.101090
 2169         h1     74    bbb    H15   2169 0.25637600   1.008000   ; qtot 0.155286
 2170         h1     74    bbb    H16   2170 0.25637600   1.008000   ; qtot 0.411662
 2171         c3     74    bbb     C9   2171 -0.72423400  12.010000   ; qtot -0.312572
 2172         h1     74    bbb    H17   2172 0.25637600   1.008000   ; qtot -0.056196
 2173         h1     74    bbb    H18   2173 0.25637600   1.008000   ; qtot 0.200180
 2174         os     74    bbb     O1   2174 -0.20025300  16.000000   ; qtot -0.000073
; residue   75 bbb rtp bbb q -0.0
 2175         n3     75    bbb     N1   2175 -0.59685800  14.010000   ; qtot -0.596931
 2176         c3     75    bbb     C1   2176 0.10137000  12.010000   ; qtot -0.495561
 2177         h1     75    bbb     H1   2177 0.04411300   1.008000   ; qtot -0.451448
 2178         h1     75    bbb     H2   2178 0.04411300   1.008000   ; qtot -0.407335
 2179         c3     75    bbb     C2   2179 0.10137000  12.010000   ; qtot -0.305965
 2180         h1     75    bbb     H3   2180 0.04411300   1.008000   ; qtot -0.261852
 2181         h1     75    bbb     H4   2181 0.04411300   1.008000   ; qtot -0.217739
 2182         c3     75    bbb     C3   2182 -0.00195300  12.010000   ; qtot -0.219692
 2183         h1     75    bbb     H5   2183 0.05064400   1.008000   ; qtot -0.169048
 2184         h1     75    bbb     H6   2184 0.05064400   1.008000   ; qtot -0.118404
 2185         c3     75    bbb     C4   2185 -0.01612100  12.010000   ; qtot -0.134525
 2186         hc     75    bbb     H7   2186 0.04936100   1.008000   ; qtot -0.085164
 2187         hc     75    bbb     H8   2187 0.04936100   1.008000   ; qtot -0.035803
 2188         c3     75    bbb     C5   2188 0.11363000  12.010000   ; qtot 0.077827
 2189         hc     75    bbb     H9   2189 0.06265900   1.008000   ; qtot 0.140486
 2190         hc     75    bbb    H10   2190 0.06265900   1.008000   ; qtot 0.203145
 2191         c3     75    bbb     C6   2191 0.11363000  12.010000   ; qtot 0.316775
 2192         hc     75    bbb    H11   2192 0.06265900   1.008000   ; qtot 0.379434
 2193         hc     75    bbb    H12   2193 0.06265900   1.008000   ; qtot 0.442093
 2194         c3     75    bbb     C7   2194 0.05858200  12.010000   ; qtot 0.500675
 2195         h1     75    bbb    H13   2195 0.06123400   1.008000   ; qtot 0.561909
 2196         h1     75    bbb    H14   2196 0.06123400   1.008000   ; qtot 0.623143
 2197         c3     75    bbb     C8   2197 -0.72423400  12.010000   ; qtot -0.101091
 2198         h1     75    bbb    H15   2198 0.25637600   1.008000   ; qtot 0.155285
 2199         h1     75    bbb    H16   2199 0.25637600   1.008000   ; qtot 0.411661
 2200         c3     75    bbb     C9   2200 -0.72423400  12.010000   ; qtot -0.312573
 2201         h1     75    bbb    H17   2201 0.25637600   1.008000   ; qtot -0.056197
 2202         h1     75    bbb    H18   2202 0.25637600   1.008000   ; qtot 0.200179
 2203         os     75    bbb     O1   2203 -0.20025300  16.000000   ; qtot -0.000074
; residue   76 bbb rtp bbb q -0.0
 2204         n3     76    bbb     N1   2204 -0.59685800  14.010000   ; qtot -0.596932
 2205         c3     76    bbb     C1   2205 0.10137000  12.010000   ; qtot -0.495562
 2206         h1     76    bbb     H1   2206 0.04411300   1.008000   ; qtot -0.451449
 2207         h1     76    bbb     H2   2207 0.04411300   1.008000   ; qtot -0.407336
 2208         c3     76    bbb     C2   2208 0.10137000  12.010000   ; qtot -0.305966
 2209         h1     76    bbb     H3   2209 0.04411300   1.008000   ; qtot -0.261853
 2210         h1     76    bbb     H4   2210 0.04411300   1.008000   ; qtot -0.217740
 2211         c3     76    bbb     C3   2211 -0.00195300  12.010000   ; qtot -0.219693
 2212         h1     76    bbb     H5   2212 0.05064400   1.008000   ; qtot -0.169049
 2213         h1     76    bbb     H6   2213 0.05064400   1.008000   ; qtot -0.118405
 2214         c3     76    bbb     C4   2214 -0.01612100  12.010000   ; qtot -0.134526
 2215         hc     76    bbb     H7   2215 0.04936100   1.008000   ; qtot -0.085165
 2216         hc     76    bbb     H8   2216 0.04936100   1.008000   ; qtot -0.035804
 2217         c3     76    bbb     C5   2217 0.11363000  12.010000   ; qtot 0.077826
 2218         hc     76    bbb     H9   2218 0.06265900   1.008000   ; qtot 0.140485
 2219         hc     76    bbb    H10   2219 0.06265900   1.008000   ; qtot 0.203144
 2220         c3     76    bbb     C6   2220 0.11363000  12.010000   ; qtot 0.316774
 2221         hc     76    bbb    H11   2221 0.06265900   1.008000   ; qtot 0.379433
 2222         hc     76    bbb    H12   2222 0.06265900   1.008000   ; qtot 0.442092
 2223         c3     76    bbb     C7   2223 0.05858200  12.010000   ; qtot 0.500674
 2224         h1     76    bbb    H13   2224 0.06123400   1.008000   ; qtot 0.561908
 2225         h1     76    bbb    H14   2225 0.06123400   1.008000   ; qtot 0.623142
 2226         c3     76    bbb     C8   2226 -0.72423400  12.010000   ; qtot -0.101092
 2227         h1     76    bbb    H15   2227 0.25637600   1.008000   ; qtot 0.155284
 2228         h1     76    bbb    H16   2228 0.25637600   1.008000   ; qtot 0.411660
 2229         c3     76    bbb     C9   2229 -0.72423400  12.010000   ; qtot -0.312574
 2230         h1     76    bbb    H17   2230 0.25637600   1.008000   ; qtot -0.056198
 2231         h1     76    bbb    H18   2231 0.25637600   1.008000   ; qtot 0.200178
 2232         os     76    bbb     O1   2232 -0.20025300  16.000000   ; qtot -0.000075
; residue   77 bbb rtp bbb q -0.0
 2233         n3     77    bbb     N1   2233 -0.59685800  14.010000   ; qtot -0.596933
 2234         c3     77    bbb     C1   2234 0.10137000  12.010000   ; qtot -0.495563
 2235         h1     77    bbb     H1   2235 0.04411300   1.008000   ; qtot -0.451450
 2236         h1     77    bbb     H2   2236 0.04411300   1.008000   ; qtot -0.407337
 2237         c3     77    bbb     C2   2237 0.10137000  12.010000   ; qtot -0.305967
 2238         h1     77    bbb     H3   2238 0.04411300   1.008000   ; qtot -0.261854
 2239         h1     77    bbb     H4   2239 0.04411300   1.008000   ; qtot -0.217741
 2240         c3     77    bbb     C3   2240 -0.00195300  12.010000   ; qtot -0.219694
 2241         h1     77    bbb     H5   2241 0.05064400   1.008000   ; qtot -0.169050
 2242         h1     77    bbb     H6   2242 0.05064400   1.008000   ; qtot -0.118406
 2243         c3     77    bbb     C4   2243 -0.01612100  12.010000   ; qtot -0.134527
 2244         hc     77    bbb     H7   2244 0.04936100   1.008000   ; qtot -0.085166
 2245         hc     77    bbb     H8   2245 0.04936100   1.008000   ; qtot -0.035805
 2246         c3     77    bbb     C5   2246 0.11363000  12.010000   ; qtot 0.077825
 2247         hc     77    bbb     H9   2247 0.06265900   1.008000   ; qtot 0.140484
 2248         hc     77    bbb    H10   2248 0.06265900   1.008000   ; qtot 0.203143
 2249         c3     77    bbb     C6   2249 0.11363000  12.010000   ; qtot 0.316773
 2250         hc     77    bbb    H11   2250 0.06265900   1.008000   ; qtot 0.379432
 2251         hc     77    bbb    H12   2251 0.06265900   1.008000   ; qtot 0.442091
 2252         c3     77    bbb     C7   2252 0.05858200  12.010000   ; qtot 0.500673
 2253         h1     77    bbb    H13   2253 0.06123400   1.008000   ; qtot 0.561907
 2254         h1     77    bbb    H14   2254 0.06123400   1.008000   ; qtot 0.623141
 2255         c3     77    bbb     C8   2255 -0.72423400  12.010000   ; qtot -0.101093
 2256         h1     77    bbb    H15   2256 0.25637600   1.008000   ; qtot 0.155283
 2257         h1     77    bbb    H16   2257 0.25637600   1.008000   ; qtot 0.411659
 2258         c3     77    bbb     C9   2258 -0.72423400  12.010000   ; qtot -0.312575
 2259         h1     77    bbb    H17   2259 0.25637600   1.008000   ; qtot -0.056199
 2260         h1     77    bbb    H18   2260 0.25637600   1.008000   ; qtot 0.200177
 2261         os     77    bbb     O1   2261 -0.20025300  16.000000   ; qtot -0.000076
; residue   78 bbb rtp bbb q -0.0
 2262         n3     78    bbb     N1   2262 -0.59685800  14.010000   ; qtot -0.596934
 2263         c3     78    bbb     C1   2263 0.10137000  12.010000   ; qtot -0.495564
 2264         h1     78    bbb     H1   2264 0.04411300   1.008000   ; qtot -0.451451
 2265         h1     78    bbb     H2   2265 0.04411300   1.008000   ; qtot -0.407338
 2266         c3     78    bbb     C2   2266 0.10137000  12.010000   ; qtot -0.305968
 2267         h1     78    bbb     H3   2267 0.04411300   1.008000   ; qtot -0.261855
 2268         h1     78    bbb     H4   2268 0.04411300   1.008000   ; qtot -0.217742
 2269         c3     78    bbb     C3   2269 -0.00195300  12.010000   ; qtot -0.219695
 2270         h1     78    bbb     H5   2270 0.05064400   1.008000   ; qtot -0.169051
 2271         h1     78    bbb     H6   2271 0.05064400   1.008000   ; qtot -0.118407
 2272         c3     78    bbb     C4   2272 -0.01612100  12.010000   ; qtot -0.134528
 2273         hc     78    bbb     H7   2273 0.04936100   1.008000   ; qtot -0.085167
 2274         hc     78    bbb     H8   2274 0.04936100   1.008000   ; qtot -0.035806
 2275         c3     78    bbb     C5   2275 0.11363000  12.010000   ; qtot 0.077824
 2276         hc     78    bbb     H9   2276 0.06265900   1.008000   ; qtot 0.140483
 2277         hc     78    bbb    H10   2277 0.06265900   1.008000   ; qtot 0.203142
 2278         c3     78    bbb     C6   2278 0.11363000  12.010000   ; qtot 0.316772
 2279         hc     78    bbb    H11   2279 0.06265900   1.008000   ; qtot 0.379431
 2280         hc     78    bbb    H12   2280 0.06265900   1.008000   ; qtot 0.442090
 2281         c3     78    bbb     C7   2281 0.05858200  12.010000   ; qtot 0.500672
 2282         h1     78    bbb    H13   2282 0.06123400   1.008000   ; qtot 0.561906
 2283         h1     78    bbb    H14   2283 0.06123400   1.008000   ; qtot 0.623140
 2284         c3     78    bbb     C8   2284 -0.72423400  12.010000   ; qtot -0.101094
 2285         h1     78    bbb    H15   2285 0.25637600   1.008000   ; qtot 0.155282
 2286         h1     78    bbb    H16   2286 0.25637600   1.008000   ; qtot 0.411658
 2287         c3     78    bbb     C9   2287 -0.72423400  12.010000   ; qtot -0.312576
 2288         h1     78    bbb    H17   2288 0.25637600   1.008000   ; qtot -0.056200
 2289         h1     78    bbb    H18   2289 0.25637600   1.008000   ; qtot 0.200176
 2290         os     78    bbb     O1   2290 -0.20025300  16.000000   ; qtot -0.000077
; residue   79 bbb rtp bbb q -0.0
 2291         n3     79    bbb     N1   2291 -0.59685800  14.010000   ; qtot -0.596935
 2292         c3     79    bbb     C1   2292 0.10137000  12.010000   ; qtot -0.495565
 2293         h1     79    bbb     H1   2293 0.04411300   1.008000   ; qtot -0.451452
 2294         h1     79    bbb     H2   2294 0.04411300   1.008000   ; qtot -0.407339
 2295         c3     79    bbb     C2   2295 0.10137000  12.010000   ; qtot -0.305969
 2296         h1     79    bbb     H3   2296 0.04411300   1.008000   ; qtot -0.261856
 2297         h1     79    bbb     H4   2297 0.04411300   1.008000   ; qtot -0.217743
 2298         c3     79    bbb     C3   2298 -0.00195300  12.010000   ; qtot -0.219696
 2299         h1     79    bbb     H5   2299 0.05064400   1.008000   ; qtot -0.169052
 2300         h1     79    bbb     H6   2300 0.05064400   1.008000   ; qtot -0.118408
 2301         c3     79    bbb     C4   2301 -0.01612100  12.010000   ; qtot -0.134529
 2302         hc     79    bbb     H7   2302 0.04936100   1.008000   ; qtot -0.085168
 2303         hc     79    bbb     H8   2303 0.04936100   1.008000   ; qtot -0.035807
 2304         c3     79    bbb     C5   2304 0.11363000  12.010000   ; qtot 0.077823
 2305         hc     79    bbb     H9   2305 0.06265900   1.008000   ; qtot 0.140482
 2306         hc     79    bbb    H10   2306 0.06265900   1.008000   ; qtot 0.203141
 2307         c3     79    bbb     C6   2307 0.11363000  12.010000   ; qtot 0.316771
 2308         hc     79    bbb    H11   2308 0.06265900   1.008000   ; qtot 0.379430
 2309         hc     79    bbb    H12   2309 0.06265900   1.008000   ; qtot 0.442089
 2310         c3     79    bbb     C7   2310 0.05858200  12.010000   ; qtot 0.500671
 2311         h1     79    bbb    H13   2311 0.06123400   1.008000   ; qtot 0.561905
 2312         h1     79    bbb    H14   2312 0.06123400   1.008000   ; qtot 0.623139
 2313         c3     79    bbb     C8   2313 -0.72423400  12.010000   ; qtot -0.101095
 2314         h1     79    bbb    H15   2314 0.25637600   1.008000   ; qtot 0.155281
 2315         h1     79    bbb    H16   2315 0.25637600   1.008000   ; qtot 0.411657
 2316         c3     79    bbb     C9   2316 -0.72423400  12.010000   ; qtot -0.312577
 2317         h1     79    bbb    H17   2317 0.25637600   1.008000   ; qtot -0.056201
 2318         h1     79    bbb    H18   2318 0.25637600   1.008000   ; qtot 0.200175
 2319         os     79    bbb     O1   2319 -0.20025300  16.000000   ; qtot -0.000078
; residue   80 bbb rtp bbb q -0.0
 2320         n3     80    bbb     N1   2320 -0.59685800  14.010000   ; qtot -0.596936
 2321         c3     80    bbb     C1   2321 0.10137000  12.010000   ; qtot -0.495566
 2322         h1     80    bbb     H1   2322 0.04411300   1.008000   ; qtot -0.451453
 2323         h1     80    bbb     H2   2323 0.04411300   1.008000   ; qtot -0.407340
 2324         c3     80    bbb     C2   2324 0.10137000  12.010000   ; qtot -0.305970
 2325         h1     80    bbb     H3   2325 0.04411300   1.008000   ; qtot -0.261857
 2326         h1     80    bbb     H4   2326 0.04411300   1.008000   ; qtot -0.217744
 2327         c3     80    bbb     C3   2327 -0.00195300  12.010000   ; qtot -0.219697
 2328         h1     80    bbb     H5   2328 0.05064400   1.008000   ; qtot -0.169053
 2329         h1     80    bbb     H6   2329 0.05064400   1.008000   ; qtot -0.118409
 2330         c3     80    bbb     C4   2330 -0.01612100  12.010000   ; qtot -0.134530
 2331         hc     80    bbb     H7   2331 0.04936100   1.008000   ; qtot -0.085169
 2332         hc     80    bbb     H8   2332 0.04936100   1.008000   ; qtot -0.035808
 2333         c3     80    bbb     C5   2333 0.11363000  12.010000   ; qtot 0.077822
 2334         hc     80    bbb     H9   2334 0.06265900   1.008000   ; qtot 0.140481
 2335         hc     80    bbb    H10   2335 0.06265900   1.008000   ; qtot 0.203140
 2336         c3     80    bbb     C6   2336 0.11363000  12.010000   ; qtot 0.316770
 2337         hc     80    bbb    H11   2337 0.06265900   1.008000   ; qtot 0.379429
 2338         hc     80    bbb    H12   2338 0.06265900   1.008000   ; qtot 0.442088
 2339         c3     80    bbb     C7   2339 0.05858200  12.010000   ; qtot 0.500670
 2340         h1     80    bbb    H13   2340 0.06123400   1.008000   ; qtot 0.561904
 2341         h1     80    bbb    H14   2341 0.06123400   1.008000   ; qtot 0.623138
 2342         c3     80    bbb     C8   2342 -0.72423400  12.010000   ; qtot -0.101096
 2343         h1     80    bbb    H15   2343 0.25637600   1.008000   ; qtot 0.155280
 2344         h1     80    bbb    H16   2344 0.25637600   1.008000   ; qtot 0.411656
 2345         c3     80    bbb     C9   2345 -0.72423400  12.010000   ; qtot -0.312578
 2346         h1     80    bbb    H17   2346 0.25637600   1.008000   ; qtot -0.056202
 2347         h1     80    bbb    H18   2347 0.25637600   1.008000   ; qtot 0.200174
 2348         os     80    bbb     O1   2348 -0.20025300  16.000000   ; qtot -0.000079
; residue   81 bbb rtp bbb q -0.0
 2349         n3     81    bbb     N1   2349 -0.59685800  14.010000   ; qtot -0.596937
 2350         c3     81    bbb     C1   2350 0.10137000  12.010000   ; qtot -0.495567
 2351         h1     81    bbb     H1   2351 0.04411300   1.008000   ; qtot -0.451454
 2352         h1     81    bbb     H2   2352 0.04411300   1.008000   ; qtot -0.407341
 2353         c3     81    bbb     C2   2353 0.10137000  12.010000   ; qtot -0.305971
 2354         h1     81    bbb     H3   2354 0.04411300   1.008000   ; qtot -0.261858
 2355         h1     81    bbb     H4   2355 0.04411300   1.008000   ; qtot -0.217745
 2356         c3     81    bbb     C3   2356 -0.00195300  12.010000   ; qtot -0.219698
 2357         h1     81    bbb     H5   2357 0.05064400   1.008000   ; qtot -0.169054
 2358         h1     81    bbb     H6   2358 0.05064400   1.008000   ; qtot -0.118410
 2359         c3     81    bbb     C4   2359 -0.01612100  12.010000   ; qtot -0.134531
 2360         hc     81    bbb     H7   2360 0.04936100   1.008000   ; qtot -0.085170
 2361         hc     81    bbb     H8   2361 0.04936100   1.008000   ; qtot -0.035809
 2362         c3     81    bbb     C5   2362 0.11363000  12.010000   ; qtot 0.077821
 2363         hc     81    bbb     H9   2363 0.06265900   1.008000   ; qtot 0.140480
 2364         hc     81    bbb    H10   2364 0.06265900   1.008000   ; qtot 0.203139
 2365         c3     81    bbb     C6   2365 0.11363000  12.010000   ; qtot 0.316769
 2366         hc     81    bbb    H11   2366 0.06265900   1.008000   ; qtot 0.379428
 2367         hc     81    bbb    H12   2367 0.06265900   1.008000   ; qtot 0.442087
 2368         c3     81    bbb     C7   2368 0.05858200  12.010000   ; qtot 0.500669
 2369         h1     81    bbb    H13   2369 0.06123400   1.008000   ; qtot 0.561903
 2370         h1     81    bbb    H14   2370 0.06123400   1.008000   ; qtot 0.623137
 2371         c3     81    bbb     C8   2371 -0.72423400  12.010000   ; qtot -0.101097
 2372         h1     81    bbb    H15   2372 0.25637600   1.008000   ; qtot 0.155279
 2373         h1     81    bbb    H16   2373 0.25637600   1.008000   ; qtot 0.411655
 2374         c3     81    bbb     C9   2374 -0.72423400  12.010000   ; qtot -0.312579
 2375         h1     81    bbb    H17   2375 0.25637600   1.008000   ; qtot -0.056203
 2376         h1     81    bbb    H18   2376 0.25637600   1.008000   ; qtot 0.200173
 2377         os     81    bbb     O1   2377 -0.20025300  16.000000   ; qtot -0.000080
; residue   82 bbb rtp bbb q -0.0
 2378         n3     82    bbb     N1   2378 -0.59685800  14.010000   ; qtot -0.596938
 2379         c3     82    bbb     C1   2379 0.10137000  12.010000   ; qtot -0.495568
 2380         h1     82    bbb     H1   2380 0.04411300   1.008000   ; qtot -0.451455
 2381         h1     82    bbb     H2   2381 0.04411300   1.008000   ; qtot -0.407342
 2382         c3     82    bbb     C2   2382 0.10137000  12.010000   ; qtot -0.305972
 2383         h1     82    bbb     H3   2383 0.04411300   1.008000   ; qtot -0.261859
 2384         h1     82    bbb     H4   2384 0.04411300   1.008000   ; qtot -0.217746
 2385         c3     82    bbb     C3   2385 -0.00195300  12.010000   ; qtot -0.219699
 2386         h1     82    bbb     H5   2386 0.05064400   1.008000   ; qtot -0.169055
 2387         h1     82    bbb     H6   2387 0.05064400   1.008000   ; qtot -0.118411
 2388         c3     82    bbb     C4   2388 -0.01612100  12.010000   ; qtot -0.134532
 2389         hc     82    bbb     H7   2389 0.04936100   1.008000   ; qtot -0.085171
 2390         hc     82    bbb     H8   2390 0.04936100   1.008000   ; qtot -0.035810
 2391         c3     82    bbb     C5   2391 0.11363000  12.010000   ; qtot 0.077820
 2392         hc     82    bbb     H9   2392 0.06265900   1.008000   ; qtot 0.140479
 2393         hc     82    bbb    H10   2393 0.06265900   1.008000   ; qtot 0.203138
 2394         c3     82    bbb     C6   2394 0.11363000  12.010000   ; qtot 0.316768
 2395         hc     82    bbb    H11   2395 0.06265900   1.008000   ; qtot 0.379427
 2396         hc     82    bbb    H12   2396 0.06265900   1.008000   ; qtot 0.442086
 2397         c3     82    bbb     C7   2397 0.05858200  12.010000   ; qtot 0.500668
 2398         h1     82    bbb    H13   2398 0.06123400   1.008000   ; qtot 0.561902
 2399         h1     82    bbb    H14   2399 0.06123400   1.008000   ; qtot 0.623136
 2400         c3     82    bbb     C8   2400 -0.72423400  12.010000   ; qtot -0.101098
 2401         h1     82    bbb    H15   2401 0.25637600   1.008000   ; qtot 0.155278
 2402         h1     82    bbb    H16   2402 0.25637600   1.008000   ; qtot 0.411654
 2403         c3     82    bbb     C9   2403 -0.72423400  12.010000   ; qtot -0.312580
 2404         h1     82    bbb    H17   2404 0.25637600   1.008000   ; qtot -0.056204
 2405         h1     82    bbb    H18   2405 0.25637600   1.008000   ; qtot 0.200172
 2406         os     82    bbb     O1   2406 -0.20025300  16.000000   ; qtot -0.000081
; residue   83 bbb rtp bbb q -0.0
 2407         n3     83    bbb     N1   2407 -0.59685800  14.010000   ; qtot -0.596939
 2408         c3     83    bbb     C1   2408 0.10137000  12.010000   ; qtot -0.495569
 2409         h1     83    bbb     H1   2409 0.04411300   1.008000   ; qtot -0.451456
 2410         h1     83    bbb     H2   2410 0.04411300   1.008000   ; qtot -0.407343
 2411         c3     83    bbb     C2   2411 0.10137000  12.010000   ; qtot -0.305973
 2412         h1     83    bbb     H3   2412 0.04411300   1.008000   ; qtot -0.261860
 2413         h1     83    bbb     H4   2413 0.04411300   1.008000   ; qtot -0.217747
 2414         c3     83    bbb     C3   2414 -0.00195300  12.010000   ; qtot -0.219700
 2415         h1     83    bbb     H5   2415 0.05064400   1.008000   ; qtot -0.169056
 2416         h1     83    bbb     H6   2416 0.05064400   1.008000   ; qtot -0.118412
 2417         c3     83    bbb     C4   2417 -0.01612100  12.010000   ; qtot -0.134533
 2418         hc     83    bbb     H7   2418 0.04936100   1.008000   ; qtot -0.085172
 2419         hc     83    bbb     H8   2419 0.04936100   1.008000   ; qtot -0.035811
 2420         c3     83    bbb     C5   2420 0.11363000  12.010000   ; qtot 0.077819
 2421         hc     83    bbb     H9   2421 0.06265900   1.008000   ; qtot 0.140478
 2422         hc     83    bbb    H10   2422 0.06265900   1.008000   ; qtot 0.203137
 2423         c3     83    bbb     C6   2423 0.11363000  12.010000   ; qtot 0.316767
 2424         hc     83    bbb    H11   2424 0.06265900   1.008000   ; qtot 0.379426
 2425         hc     83    bbb    H12   2425 0.06265900   1.008000   ; qtot 0.442085
 2426         c3     83    bbb     C7   2426 0.05858200  12.010000   ; qtot 0.500667
 2427         h1     83    bbb    H13   2427 0.06123400   1.008000   ; qtot 0.561901
 2428         h1     83    bbb    H14   2428 0.06123400   1.008000   ; qtot 0.623135
 2429         c3     83    bbb     C8   2429 -0.72423400  12.010000   ; qtot -0.101099
 2430         h1     83    bbb    H15   2430 0.25637600   1.008000   ; qtot 0.155277
 2431         h1     83    bbb    H16   2431 0.25637600   1.008000   ; qtot 0.411653
 2432         c3     83    bbb     C9   2432 -0.72423400  12.010000   ; qtot -0.312581
 2433         h1     83    bbb    H17   2433 0.25637600   1.008000   ; qtot -0.056205
 2434         h1     83    bbb    H18   2434 0.25637600   1.008000   ; qtot 0.200171
 2435         os     83    bbb     O1   2435 -0.20025300  16.000000   ; qtot -0.000082
; residue   84 bbb rtp bbb q -0.0
 2436         n3     84    bbb     N1   2436 -0.59685800  14.010000   ; qtot -0.596940
 2437         c3     84    bbb     C1   2437 0.10137000  12.010000   ; qtot -0.495570
 2438         h1     84    bbb     H1   2438 0.04411300   1.008000   ; qtot -0.451457
 2439         h1     84    bbb     H2   2439 0.04411300   1.008000   ; qtot -0.407344
 2440         c3     84    bbb     C2   2440 0.10137000  12.010000   ; qtot -0.305974
 2441         h1     84    bbb     H3   2441 0.04411300   1.008000   ; qtot -0.261861
 2442         h1     84    bbb     H4   2442 0.04411300   1.008000   ; qtot -0.217748
 2443         c3     84    bbb     C3   2443 -0.00195300  12.010000   ; qtot -0.219701
 2444         h1     84    bbb     H5   2444 0.05064400   1.008000   ; qtot -0.169057
 2445         h1     84    bbb     H6   2445 0.05064400   1.008000   ; qtot -0.118413
 2446         c3     84    bbb     C4   2446 -0.01612100  12.010000   ; qtot -0.134534
 2447         hc     84    bbb     H7   2447 0.04936100   1.008000   ; qtot -0.085173
 2448         hc     84    bbb     H8   2448 0.04936100   1.008000   ; qtot -0.035812
 2449         c3     84    bbb     C5   2449 0.11363000  12.010000   ; qtot 0.077818
 2450         hc     84    bbb     H9   2450 0.06265900   1.008000   ; qtot 0.140477
 2451         hc     84    bbb    H10   2451 0.06265900   1.008000   ; qtot 0.203136
 2452         c3     84    bbb     C6   2452 0.11363000  12.010000   ; qtot 0.316766
 2453         hc     84    bbb    H11   2453 0.06265900   1.008000   ; qtot 0.379425
 2454         hc     84    bbb    H12   2454 0.06265900   1.008000   ; qtot 0.442084
 2455         c3     84    bbb     C7   2455 0.05858200  12.010000   ; qtot 0.500666
 2456         h1     84    bbb    H13   2456 0.06123400   1.008000   ; qtot 0.561900
 2457         h1     84    bbb    H14   2457 0.06123400   1.008000   ; qtot 0.623134
 2458         c3     84    bbb     C8   2458 -0.72423400  12.010000   ; qtot -0.101100
 2459         h1     84    bbb    H15   2459 0.25637600   1.008000   ; qtot 0.155276
 2460         h1     84    bbb    H16   2460 0.25637600   1.008000   ; qtot 0.411652
 2461         c3     84    bbb     C9   2461 -0.72423400  12.010000   ; qtot -0.312582
 2462         h1     84    bbb    H17   2462 0.25637600   1.008000   ; qtot -0.056206
 2463         h1     84    bbb    H18   2463 0.25637600   1.008000   ; qtot 0.200170
 2464         os     84    bbb     O1   2464 -0.20025300  16.000000   ; qtot -0.000083
; residue   85 bbb rtp bbb q -0.0
 2465         n3     85    bbb     N1   2465 -0.59685800  14.010000   ; qtot -0.596941
 2466         c3     85    bbb     C1   2466 0.10137000  12.010000   ; qtot -0.495571
 2467         h1     85    bbb     H1   2467 0.04411300   1.008000   ; qtot -0.451458
 2468         h1     85    bbb     H2   2468 0.04411300   1.008000   ; qtot -0.407345
 2469         c3     85    bbb     C2   2469 0.10137000  12.010000   ; qtot -0.305975
 2470         h1     85    bbb     H3   2470 0.04411300   1.008000   ; qtot -0.261862
 2471         h1     85    bbb     H4   2471 0.04411300   1.008000   ; qtot -0.217749
 2472         c3     85    bbb     C3   2472 -0.00195300  12.010000   ; qtot -0.219702
 2473         h1     85    bbb     H5   2473 0.05064400   1.008000   ; qtot -0.169058
 2474         h1     85    bbb     H6   2474 0.05064400   1.008000   ; qtot -0.118414
 2475         c3     85    bbb     C4   2475 -0.01612100  12.010000   ; qtot -0.134535
 2476         hc     85    bbb     H7   2476 0.04936100   1.008000   ; qtot -0.085174
 2477         hc     85    bbb     H8   2477 0.04936100   1.008000   ; qtot -0.035813
 2478         c3     85    bbb     C5   2478 0.11363000  12.010000   ; qtot 0.077817
 2479         hc     85    bbb     H9   2479 0.06265900   1.008000   ; qtot 0.140476
 2480         hc     85    bbb    H10   2480 0.06265900   1.008000   ; qtot 0.203135
 2481         c3     85    bbb     C6   2481 0.11363000  12.010000   ; qtot 0.316765
 2482         hc     85    bbb    H11   2482 0.06265900   1.008000   ; qtot 0.379424
 2483         hc     85    bbb    H12   2483 0.06265900   1.008000   ; qtot 0.442083
 2484         c3     85    bbb     C7   2484 0.05858200  12.010000   ; qtot 0.500665
 2485         h1     85    bbb    H13   2485 0.06123400   1.008000   ; qtot 0.561899
 2486         h1     85    bbb    H14   2486 0.06123400   1.008000   ; qtot 0.623133
 2487         c3     85    bbb     C8   2487 -0.72423400  12.010000   ; qtot -0.101101
 2488         h1     85    bbb    H15   2488 0.25637600   1.008000   ; qtot 0.155275
 2489         h1     85    bbb    H16   2489 0.25637600   1.008000   ; qtot 0.411651
 2490         c3     85    bbb     C9   2490 -0.72423400  12.010000   ; qtot -0.312583
 2491         h1     85    bbb    H17   2491 0.25637600   1.008000   ; qtot -0.056207
 2492         h1     85    bbb    H18   2492 0.25637600   1.008000   ; qtot 0.200169
 2493         os     85    bbb     O1   2493 -0.20025300  16.000000   ; qtot -0.000084
; residue   86 bbb rtp bbb q -0.0
 2494         n3     86    bbb     N1   2494 -0.59685800  14.010000   ; qtot -0.596942
 2495         c3     86    bbb     C1   2495 0.10137000  12.010000   ; qtot -0.495572
 2496         h1     86    bbb     H1   2496 0.04411300   1.008000   ; qtot -0.451459
 2497         h1     86    bbb     H2   2497 0.04411300   1.008000   ; qtot -0.407346
 2498         c3     86    bbb     C2   2498 0.10137000  12.010000   ; qtot -0.305976
 2499         h1     86    bbb     H3   2499 0.04411300   1.008000   ; qtot -0.261863
 2500         h1     86    bbb     H4   2500 0.04411300   1.008000   ; qtot -0.217750
 2501         c3     86    bbb     C3   2501 -0.00195300  12.010000   ; qtot -0.219703
 2502         h1     86    bbb     H5   2502 0.05064400   1.008000   ; qtot -0.169059
 2503         h1     86    bbb     H6   2503 0.05064400   1.008000   ; qtot -0.118415
 2504         c3     86    bbb     C4   2504 -0.01612100  12.010000   ; qtot -0.134536
 2505         hc     86    bbb     H7   2505 0.04936100   1.008000   ; qtot -0.085175
 2506         hc     86    bbb     H8   2506 0.04936100   1.008000   ; qtot -0.035814
 2507         c3     86    bbb     C5   2507 0.11363000  12.010000   ; qtot 0.077816
 2508         hc     86    bbb     H9   2508 0.06265900   1.008000   ; qtot 0.140475
 2509         hc     86    bbb    H10   2509 0.06265900   1.008000   ; qtot 0.203134
 2510         c3     86    bbb     C6   2510 0.11363000  12.010000   ; qtot 0.316764
 2511         hc     86    bbb    H11   2511 0.06265900   1.008000   ; qtot 0.379423
 2512         hc     86    bbb    H12   2512 0.06265900   1.008000   ; qtot 0.442082
 2513         c3     86    bbb     C7   2513 0.05858200  12.010000   ; qtot 0.500664
 2514         h1     86    bbb    H13   2514 0.06123400   1.008000   ; qtot 0.561898
 2515         h1     86    bbb    H14   2515 0.06123400   1.008000   ; qtot 0.623132
 2516         c3     86    bbb     C8   2516 -0.72423400  12.010000   ; qtot -0.101102
 2517         h1     86    bbb    H15   2517 0.25637600   1.008000   ; qtot 0.155274
 2518         h1     86    bbb    H16   2518 0.25637600   1.008000   ; qtot 0.411650
 2519         c3     86    bbb     C9   2519 -0.72423400  12.010000   ; qtot -0.312584
 2520         h1     86    bbb    H17   2520 0.25637600   1.008000   ; qtot -0.056208
 2521         h1     86    bbb    H18   2521 0.25637600   1.008000   ; qtot 0.200168
 2522         os     86    bbb     O1   2522 -0.20025300  16.000000   ; qtot -0.000085
; residue   87 bbb rtp bbb q -0.0
 2523         n3     87    bbb     N1   2523 -0.59685800  14.010000   ; qtot -0.596943
 2524         c3     87    bbb     C1   2524 0.10137000  12.010000   ; qtot -0.495573
 2525         h1     87    bbb     H1   2525 0.04411300   1.008000   ; qtot -0.451460
 2526         h1     87    bbb     H2   2526 0.04411300   1.008000   ; qtot -0.407347
 2527         c3     87    bbb     C2   2527 0.10137000  12.010000   ; qtot -0.305977
 2528         h1     87    bbb     H3   2528 0.04411300   1.008000   ; qtot -0.261864
 2529         h1     87    bbb     H4   2529 0.04411300   1.008000   ; qtot -0.217751
 2530         c3     87    bbb     C3   2530 -0.00195300  12.010000   ; qtot -0.219704
 2531         h1     87    bbb     H5   2531 0.05064400   1.008000   ; qtot -0.169060
 2532         h1     87    bbb     H6   2532 0.05064400   1.008000   ; qtot -0.118416
 2533         c3     87    bbb     C4   2533 -0.01612100  12.010000   ; qtot -0.134537
 2534         hc     87    bbb     H7   2534 0.04936100   1.008000   ; qtot -0.085176
 2535         hc     87    bbb     H8   2535 0.04936100   1.008000   ; qtot -0.035815
 2536         c3     87    bbb     C5   2536 0.11363000  12.010000   ; qtot 0.077815
 2537         hc     87    bbb     H9   2537 0.06265900   1.008000   ; qtot 0.140474
 2538         hc     87    bbb    H10   2538 0.06265900   1.008000   ; qtot 0.203133
 2539         c3     87    bbb     C6   2539 0.11363000  12.010000   ; qtot 0.316763
 2540         hc     87    bbb    H11   2540 0.06265900   1.008000   ; qtot 0.379422
 2541         hc     87    bbb    H12   2541 0.06265900   1.008000   ; qtot 0.442081
 2542         c3     87    bbb     C7   2542 0.05858200  12.010000   ; qtot 0.500663
 2543         h1     87    bbb    H13   2543 0.06123400   1.008000   ; qtot 0.561897
 2544         h1     87    bbb    H14   2544 0.06123400   1.008000   ; qtot 0.623131
 2545         c3     87    bbb     C8   2545 -0.72423400  12.010000   ; qtot -0.101103
 2546         h1     87    bbb    H15   2546 0.25637600   1.008000   ; qtot 0.155273
 2547         h1     87    bbb    H16   2547 0.25637600   1.008000   ; qtot 0.411649
 2548         c3     87    bbb     C9   2548 -0.72423400  12.010000   ; qtot -0.312585
 2549         h1     87    bbb    H17   2549 0.25637600   1.008000   ; qtot -0.056209
 2550         h1     87    bbb    H18   2550 0.25637600   1.008000   ; qtot 0.200167
 2551         os     87    bbb     O1   2551 -0.20025300  16.000000   ; qtot -0.000086
; residue   88 bbb rtp bbb q -0.0
 2552         n3     88    bbb     N1   2552 -0.59685800  14.010000   ; qtot -0.596944
 2553         c3     88    bbb     C1   2553 0.10137000  12.010000   ; qtot -0.495574
 2554         h1     88    bbb     H1   2554 0.04411300   1.008000   ; qtot -0.451461
 2555         h1     88    bbb     H2   2555 0.04411300   1.008000   ; qtot -0.407348
 2556         c3     88    bbb     C2   2556 0.10137000  12.010000   ; qtot -0.305978
 2557         h1     88    bbb     H3   2557 0.04411300   1.008000   ; qtot -0.261865
 2558         h1     88    bbb     H4   2558 0.04411300   1.008000   ; qtot -0.217752
 2559         c3     88    bbb     C3   2559 -0.00195300  12.010000   ; qtot -0.219705
 2560         h1     88    bbb     H5   2560 0.05064400   1.008000   ; qtot -0.169061
 2561         h1     88    bbb     H6   2561 0.05064400   1.008000   ; qtot -0.118417
 2562         c3     88    bbb     C4   2562 -0.01612100  12.010000   ; qtot -0.134538
 2563         hc     88    bbb     H7   2563 0.04936100   1.008000   ; qtot -0.085177
 2564         hc     88    bbb     H8   2564 0.04936100   1.008000   ; qtot -0.035816
 2565         c3     88    bbb     C5   2565 0.11363000  12.010000   ; qtot 0.077814
 2566         hc     88    bbb     H9   2566 0.06265900   1.008000   ; qtot 0.140473
 2567         hc     88    bbb    H10   2567 0.06265900   1.008000   ; qtot 0.203132
 2568         c3     88    bbb     C6   2568 0.11363000  12.010000   ; qtot 0.316762
 2569         hc     88    bbb    H11   2569 0.06265900   1.008000   ; qtot 0.379421
 2570         hc     88    bbb    H12   2570 0.06265900   1.008000   ; qtot 0.442080
 2571         c3     88    bbb     C7   2571 0.05858200  12.010000   ; qtot 0.500662
 2572         h1     88    bbb    H13   2572 0.06123400   1.008000   ; qtot 0.561896
 2573         h1     88    bbb    H14   2573 0.06123400   1.008000   ; qtot 0.623130
 2574         c3     88    bbb     C8   2574 -0.72423400  12.010000   ; qtot -0.101104
 2575         h1     88    bbb    H15   2575 0.25637600   1.008000   ; qtot 0.155272
 2576         h1     88    bbb    H16   2576 0.25637600   1.008000   ; qtot 0.411648
 2577         c3     88    bbb     C9   2577 -0.72423400  12.010000   ; qtot -0.312586
 2578         h1     88    bbb    H17   2578 0.25637600   1.008000   ; qtot -0.056210
 2579         h1     88    bbb    H18   2579 0.25637600   1.008000   ; qtot 0.200166
 2580         os     88    bbb     O1   2580 -0.20025300  16.000000   ; qtot -0.000087
; residue   89 bbb rtp bbb q -0.0
 2581         n3     89    bbb     N1   2581 -0.59685800  14.010000   ; qtot -0.596945
 2582         c3     89    bbb     C1   2582 0.10137000  12.010000   ; qtot -0.495575
 2583         h1     89    bbb     H1   2583 0.04411300   1.008000   ; qtot -0.451462
 2584         h1     89    bbb     H2   2584 0.04411300   1.008000   ; qtot -0.407349
 2585         c3     89    bbb     C2   2585 0.10137000  12.010000   ; qtot -0.305979
 2586         h1     89    bbb     H3   2586 0.04411300   1.008000   ; qtot -0.261866
 2587         h1     89    bbb     H4   2587 0.04411300   1.008000   ; qtot -0.217753
 2588         c3     89    bbb     C3   2588 -0.00195300  12.010000   ; qtot -0.219706
 2589         h1     89    bbb     H5   2589 0.05064400   1.008000   ; qtot -0.169062
 2590         h1     89    bbb     H6   2590 0.05064400   1.008000   ; qtot -0.118418
 2591         c3     89    bbb     C4   2591 -0.01612100  12.010000   ; qtot -0.134539
 2592         hc     89    bbb     H7   2592 0.04936100   1.008000   ; qtot -0.085178
 2593         hc     89    bbb     H8   2593 0.04936100   1.008000   ; qtot -0.035817
 2594         c3     89    bbb     C5   2594 0.11363000  12.010000   ; qtot 0.077813
 2595         hc     89    bbb     H9   2595 0.06265900   1.008000   ; qtot 0.140472
 2596         hc     89    bbb    H10   2596 0.06265900   1.008000   ; qtot 0.203131
 2597         c3     89    bbb     C6   2597 0.11363000  12.010000   ; qtot 0.316761
 2598         hc     89    bbb    H11   2598 0.06265900   1.008000   ; qtot 0.379420
 2599         hc     89    bbb    H12   2599 0.06265900   1.008000   ; qtot 0.442079
 2600         c3     89    bbb     C7   2600 0.05858200  12.010000   ; qtot 0.500661
 2601         h1     89    bbb    H13   2601 0.06123400   1.008000   ; qtot 0.561895
 2602         h1     89    bbb    H14   2602 0.06123400   1.008000   ; qtot 0.623129
 2603         c3     89    bbb     C8   2603 -0.72423400  12.010000   ; qtot -0.101105
 2604         h1     89    bbb    H15   2604 0.25637600   1.008000   ; qtot 0.155271
 2605         h1     89    bbb    H16   2605 0.25637600   1.008000   ; qtot 0.411647
 2606         c3     89    bbb     C9   2606 -0.72423400  12.010000   ; qtot -0.312587
 2607         h1     89    bbb    H17   2607 0.25637600   1.008000   ; qtot -0.056211
 2608         h1     89    bbb    H18   2608 0.25637600   1.008000   ; qtot 0.200165
 2609         os     89    bbb     O1   2609 -0.20025300  16.000000   ; qtot -0.000088
; residue   90 bbb rtp bbb q -0.0
 2610         n3     90    bbb     N1   2610 -0.59685800  14.010000   ; qtot -0.596946
 2611         c3     90    bbb     C1   2611 0.10137000  12.010000   ; qtot -0.495576
 2612         h1     90    bbb     H1   2612 0.04411300   1.008000   ; qtot -0.451463
 2613         h1     90    bbb     H2   2613 0.04411300   1.008000   ; qtot -0.407350
 2614         c3     90    bbb     C2   2614 0.10137000  12.010000   ; qtot -0.305980
 2615         h1     90    bbb     H3   2615 0.04411300   1.008000   ; qtot -0.261867
 2616         h1     90    bbb     H4   2616 0.04411300   1.008000   ; qtot -0.217754
 2617         c3     90    bbb     C3   2617 -0.00195300  12.010000   ; qtot -0.219707
 2618         h1     90    bbb     H5   2618 0.05064400   1.008000   ; qtot -0.169063
 2619         h1     90    bbb     H6   2619 0.05064400   1.008000   ; qtot -0.118419
 2620         c3     90    bbb     C4   2620 -0.01612100  12.010000   ; qtot -0.134540
 2621         hc     90    bbb     H7   2621 0.04936100   1.008000   ; qtot -0.085179
 2622         hc     90    bbb     H8   2622 0.04936100   1.008000   ; qtot -0.035818
 2623         c3     90    bbb     C5   2623 0.11363000  12.010000   ; qtot 0.077812
 2624         hc     90    bbb     H9   2624 0.06265900   1.008000   ; qtot 0.140471
 2625         hc     90    bbb    H10   2625 0.06265900   1.008000   ; qtot 0.203130
 2626         c3     90    bbb     C6   2626 0.11363000  12.010000   ; qtot 0.316760
 2627         hc     90    bbb    H11   2627 0.06265900   1.008000   ; qtot 0.379419
 2628         hc     90    bbb    H12   2628 0.06265900   1.008000   ; qtot 0.442078
 2629         c3     90    bbb     C7   2629 0.05858200  12.010000   ; qtot 0.500660
 2630         h1     90    bbb    H13   2630 0.06123400   1.008000   ; qtot 0.561894
 2631         h1     90    bbb    H14   2631 0.06123400   1.008000   ; qtot 0.623128
 2632         c3     90    bbb     C8   2632 -0.72423400  12.010000   ; qtot -0.101106
 2633         h1     90    bbb    H15   2633 0.25637600   1.008000   ; qtot 0.155270
 2634         h1     90    bbb    H16   2634 0.25637600   1.008000   ; qtot 0.411646
 2635         c3     90    bbb     C9   2635 -0.72423400  12.010000   ; qtot -0.312588
 2636         h1     90    bbb    H17   2636 0.25637600   1.008000   ; qtot -0.056212
 2637         h1     90    bbb    H18   2637 0.25637600   1.008000   ; qtot 0.200164
 2638         os     90    bbb     O1   2638 -0.20025300  16.000000   ; qtot -0.000089
; residue   91 bbb rtp bbb q -0.0
 2639         n3     91    bbb     N1   2639 -0.59685800  14.010000   ; qtot -0.596947
 2640         c3     91    bbb     C1   2640 0.10137000  12.010000   ; qtot -0.495577
 2641         h1     91    bbb     H1   2641 0.04411300   1.008000   ; qtot -0.451464
 2642         h1     91    bbb     H2   2642 0.04411300   1.008000   ; qtot -0.407351
 2643         c3     91    bbb     C2   2643 0.10137000  12.010000   ; qtot -0.305981
 2644         h1     91    bbb     H3   2644 0.04411300   1.008000   ; qtot -0.261868
 2645         h1     91    bbb     H4   2645 0.04411300   1.008000   ; qtot -0.217755
 2646         c3     91    bbb     C3   2646 -0.00195300  12.010000   ; qtot -0.219708
 2647         h1     91    bbb     H5   2647 0.05064400   1.008000   ; qtot -0.169064
 2648         h1     91    bbb     H6   2648 0.05064400   1.008000   ; qtot -0.118420
 2649         c3     91    bbb     C4   2649 -0.01612100  12.010000   ; qtot -0.134541
 2650         hc     91    bbb     H7   2650 0.04936100   1.008000   ; qtot -0.085180
 2651         hc     91    bbb     H8   2651 0.04936100   1.008000   ; qtot -0.035819
 2652         c3     91    bbb     C5   2652 0.11363000  12.010000   ; qtot 0.077811
 2653         hc     91    bbb     H9   2653 0.06265900   1.008000   ; qtot 0.140470
 2654         hc     91    bbb    H10   2654 0.06265900   1.008000   ; qtot 0.203129
 2655         c3     91    bbb     C6   2655 0.11363000  12.010000   ; qtot 0.316759
 2656         hc     91    bbb    H11   2656 0.06265900   1.008000   ; qtot 0.379418
 2657         hc     91    bbb    H12   2657 0.06265900   1.008000   ; qtot 0.442077
 2658         c3     91    bbb     C7   2658 0.05858200  12.010000   ; qtot 0.500659
 2659         h1     91    bbb    H13   2659 0.06123400   1.008000   ; qtot 0.561893
 2660         h1     91    bbb    H14   2660 0.06123400   1.008000   ; qtot 0.623127
 2661         c3     91    bbb     C8   2661 -0.72423400  12.010000   ; qtot -0.101107
 2662         h1     91    bbb    H15   2662 0.25637600   1.008000   ; qtot 0.155269
 2663         h1     91    bbb    H16   2663 0.25637600   1.008000   ; qtot 0.411645
 2664         c3     91    bbb     C9   2664 -0.72423400  12.010000   ; qtot -0.312589
 2665         h1     91    bbb    H17   2665 0.25637600   1.008000   ; qtot -0.056213
 2666         h1     91    bbb    H18   2666 0.25637600   1.008000   ; qtot 0.200163
 2667         os     91    bbb     O1   2667 -0.20025300  16.000000   ; qtot -0.000090
; residue   92 bbb rtp bbb q -0.0
 2668         n3     92    bbb     N1   2668 -0.59685800  14.010000   ; qtot -0.596948
 2669         c3     92    bbb     C1   2669 0.10137000  12.010000   ; qtot -0.495578
 2670         h1     92    bbb     H1   2670 0.04411300   1.008000   ; qtot -0.451465
 2671         h1     92    bbb     H2   2671 0.04411300   1.008000   ; qtot -0.407352
 2672         c3     92    bbb     C2   2672 0.10137000  12.010000   ; qtot -0.305982
 2673         h1     92    bbb     H3   2673 0.04411300   1.008000   ; qtot -0.261869
 2674         h1     92    bbb     H4   2674 0.04411300   1.008000   ; qtot -0.217756
 2675         c3     92    bbb     C3   2675 -0.00195300  12.010000   ; qtot -0.219709
 2676         h1     92    bbb     H5   2676 0.05064400   1.008000   ; qtot -0.169065
 2677         h1     92    bbb     H6   2677 0.05064400   1.008000   ; qtot -0.118421
 2678         c3     92    bbb     C4   2678 -0.01612100  12.010000   ; qtot -0.134542
 2679         hc     92    bbb     H7   2679 0.04936100   1.008000   ; qtot -0.085181
 2680         hc     92    bbb     H8   2680 0.04936100   1.008000   ; qtot -0.035820
 2681         c3     92    bbb     C5   2681 0.11363000  12.010000   ; qtot 0.077810
 2682         hc     92    bbb     H9   2682 0.06265900   1.008000   ; qtot 0.140469
 2683         hc     92    bbb    H10   2683 0.06265900   1.008000   ; qtot 0.203128
 2684         c3     92    bbb     C6   2684 0.11363000  12.010000   ; qtot 0.316758
 2685         hc     92    bbb    H11   2685 0.06265900   1.008000   ; qtot 0.379417
 2686         hc     92    bbb    H12   2686 0.06265900   1.008000   ; qtot 0.442076
 2687         c3     92    bbb     C7   2687 0.05858200  12.010000   ; qtot 0.500658
 2688         h1     92    bbb    H13   2688 0.06123400   1.008000   ; qtot 0.561892
 2689         h1     92    bbb    H14   2689 0.06123400   1.008000   ; qtot 0.623126
 2690         c3     92    bbb     C8   2690 -0.72423400  12.010000   ; qtot -0.101108
 2691         h1     92    bbb    H15   2691 0.25637600   1.008000   ; qtot 0.155268
 2692         h1     92    bbb    H16   2692 0.25637600   1.008000   ; qtot 0.411644
 2693         c3     92    bbb     C9   2693 -0.72423400  12.010000   ; qtot -0.312590
 2694         h1     92    bbb    H17   2694 0.25637600   1.008000   ; qtot -0.056214
 2695         h1     92    bbb    H18   2695 0.25637600   1.008000   ; qtot 0.200162
 2696         os     92    bbb     O1   2696 -0.20025300  16.000000   ; qtot -0.000091
; residue   93 bbb rtp bbb q -0.0
 2697         n3     93    bbb     N1   2697 -0.59685800  14.010000   ; qtot -0.596949
 2698         c3     93    bbb     C1   2698 0.10137000  12.010000   ; qtot -0.495579
 2699         h1     93    bbb     H1   2699 0.04411300   1.008000   ; qtot -0.451466
 2700         h1     93    bbb     H2   2700 0.04411300   1.008000   ; qtot -0.407353
 2701         c3     93    bbb     C2   2701 0.10137000  12.010000   ; qtot -0.305983
 2702         h1     93    bbb     H3   2702 0.04411300   1.008000   ; qtot -0.261870
 2703         h1     93    bbb     H4   2703 0.04411300   1.008000   ; qtot -0.217757
 2704         c3     93    bbb     C3   2704 -0.00195300  12.010000   ; qtot -0.219710
 2705         h1     93    bbb     H5   2705 0.05064400   1.008000   ; qtot -0.169066
 2706         h1     93    bbb     H6   2706 0.05064400   1.008000   ; qtot -0.118422
 2707         c3     93    bbb     C4   2707 -0.01612100  12.010000   ; qtot -0.134543
 2708         hc     93    bbb     H7   2708 0.04936100   1.008000   ; qtot -0.085182
 2709         hc     93    bbb     H8   2709 0.04936100   1.008000   ; qtot -0.035821
 2710         c3     93    bbb     C5   2710 0.11363000  12.010000   ; qtot 0.077809
 2711         hc     93    bbb     H9   2711 0.06265900   1.008000   ; qtot 0.140468
 2712         hc     93    bbb    H10   2712 0.06265900   1.008000   ; qtot 0.203127
 2713         c3     93    bbb     C6   2713 0.11363000  12.010000   ; qtot 0.316757
 2714         hc     93    bbb    H11   2714 0.06265900   1.008000   ; qtot 0.379416
 2715         hc     93    bbb    H12   2715 0.06265900   1.008000   ; qtot 0.442075
 2716         c3     93    bbb     C7   2716 0.05858200  12.010000   ; qtot 0.500657
 2717         h1     93    bbb    H13   2717 0.06123400   1.008000   ; qtot 0.561891
 2718         h1     93    bbb    H14   2718 0.06123400   1.008000   ; qtot 0.623125
 2719         c3     93    bbb     C8   2719 -0.72423400  12.010000   ; qtot -0.101109
 2720         h1     93    bbb    H15   2720 0.25637600   1.008000   ; qtot 0.155267
 2721         h1     93    bbb    H16   2721 0.25637600   1.008000   ; qtot 0.411643
 2722         c3     93    bbb     C9   2722 -0.72423400  12.010000   ; qtot -0.312591
 2723         h1     93    bbb    H17   2723 0.25637600   1.008000   ; qtot -0.056215
 2724         h1     93    bbb    H18   2724 0.25637600   1.008000   ; qtot 0.200161
 2725         os     93    bbb     O1   2725 -0.20025300  16.000000   ; qtot -0.000092
; residue   94 bbb rtp bbb q -0.0
 2726         n3     94    bbb     N1   2726 -0.59685800  14.010000   ; qtot -0.596950
 2727         c3     94    bbb     C1   2727 0.10137000  12.010000   ; qtot -0.495580
 2728         h1     94    bbb     H1   2728 0.04411300   1.008000   ; qtot -0.451467
 2729         h1     94    bbb     H2   2729 0.04411300   1.008000   ; qtot -0.407354
 2730         c3     94    bbb     C2   2730 0.10137000  12.010000   ; qtot -0.305984
 2731         h1     94    bbb     H3   2731 0.04411300   1.008000   ; qtot -0.261871
 2732         h1     94    bbb     H4   2732 0.04411300   1.008000   ; qtot -0.217758
 2733         c3     94    bbb     C3   2733 -0.00195300  12.010000   ; qtot -0.219711
 2734         h1     94    bbb     H5   2734 0.05064400   1.008000   ; qtot -0.169067
 2735         h1     94    bbb     H6   2735 0.05064400   1.008000   ; qtot -0.118423
 2736         c3     94    bbb     C4   2736 -0.01612100  12.010000   ; qtot -0.134544
 2737         hc     94    bbb     H7   2737 0.04936100   1.008000   ; qtot -0.085183
 2738         hc     94    bbb     H8   2738 0.04936100   1.008000   ; qtot -0.035822
 2739         c3     94    bbb     C5   2739 0.11363000  12.010000   ; qtot 0.077808
 2740         hc     94    bbb     H9   2740 0.06265900   1.008000   ; qtot 0.140467
 2741         hc     94    bbb    H10   2741 0.06265900   1.008000   ; qtot 0.203126
 2742         c3     94    bbb     C6   2742 0.11363000  12.010000   ; qtot 0.316756
 2743         hc     94    bbb    H11   2743 0.06265900   1.008000   ; qtot 0.379415
 2744         hc     94    bbb    H12   2744 0.06265900   1.008000   ; qtot 0.442074
 2745         c3     94    bbb     C7   2745 0.05858200  12.010000   ; qtot 0.500656
 2746         h1     94    bbb    H13   2746 0.06123400   1.008000   ; qtot 0.561890
 2747         h1     94    bbb    H14   2747 0.06123400   1.008000   ; qtot 0.623124
 2748         c3     94    bbb     C8   2748 -0.72423400  12.010000   ; qtot -0.101110
 2749         h1     94    bbb    H15   2749 0.25637600   1.008000   ; qtot 0.155266
 2750         h1     94    bbb    H16   2750 0.25637600   1.008000   ; qtot 0.411642
 2751         c3     94    bbb     C9   2751 -0.72423400  12.010000   ; qtot -0.312592
 2752         h1     94    bbb    H17   2752 0.25637600   1.008000   ; qtot -0.056216
 2753         h1     94    bbb    H18   2753 0.25637600   1.008000   ; qtot 0.200160
 2754         os     94    bbb     O1   2754 -0.20025300  16.000000   ; qtot -0.000093
; residue   95 bbb rtp bbb q -0.0
 2755         n3     95    bbb     N1   2755 -0.59685800  14.010000   ; qtot -0.596951
 2756         c3     95    bbb     C1   2756 0.10137000  12.010000   ; qtot -0.495581
 2757         h1     95    bbb     H1   2757 0.04411300   1.008000   ; qtot -0.451468
 2758         h1     95    bbb     H2   2758 0.04411300   1.008000   ; qtot -0.407355
 2759         c3     95    bbb     C2   2759 0.10137000  12.010000   ; qtot -0.305985
 2760         h1     95    bbb     H3   2760 0.04411300   1.008000   ; qtot -0.261872
 2761         h1     95    bbb     H4   2761 0.04411300   1.008000   ; qtot -0.217759
 2762         c3     95    bbb     C3   2762 -0.00195300  12.010000   ; qtot -0.219712
 2763         h1     95    bbb     H5   2763 0.05064400   1.008000   ; qtot -0.169068
 2764         h1     95    bbb     H6   2764 0.05064400   1.008000   ; qtot -0.118424
 2765         c3     95    bbb     C4   2765 -0.01612100  12.010000   ; qtot -0.134545
 2766         hc     95    bbb     H7   2766 0.04936100   1.008000   ; qtot -0.085184
 2767         hc     95    bbb     H8   2767 0.04936100   1.008000   ; qtot -0.035823
 2768         c3     95    bbb     C5   2768 0.11363000  12.010000   ; qtot 0.077807
 2769         hc     95    bbb     H9   2769 0.06265900   1.008000   ; qtot 0.140466
 2770         hc     95    bbb    H10   2770 0.06265900   1.008000   ; qtot 0.203125
 2771         c3     95    bbb     C6   2771 0.11363000  12.010000   ; qtot 0.316755
 2772         hc     95    bbb    H11   2772 0.06265900   1.008000   ; qtot 0.379414
 2773         hc     95    bbb    H12   2773 0.06265900   1.008000   ; qtot 0.442073
 2774         c3     95    bbb     C7   2774 0.05858200  12.010000   ; qtot 0.500655
 2775         h1     95    bbb    H13   2775 0.06123400   1.008000   ; qtot 0.561889
 2776         h1     95    bbb    H14   2776 0.06123400   1.008000   ; qtot 0.623123
 2777         c3     95    bbb     C8   2777 -0.72423400  12.010000   ; qtot -0.101111
 2778         h1     95    bbb    H15   2778 0.25637600   1.008000   ; qtot 0.155265
 2779         h1     95    bbb    H16   2779 0.25637600   1.008000   ; qtot 0.411641
 2780         c3     95    bbb     C9   2780 -0.72423400  12.010000   ; qtot -0.312593
 2781         h1     95    bbb    H17   2781 0.25637600   1.008000   ; qtot -0.056217
 2782         h1     95    bbb    H18   2782 0.25637600   1.008000   ; qtot 0.200159
 2783         os     95    bbb     O1   2783 -0.20025300  16.000000   ; qtot -0.000094
; residue   96 bbb rtp bbb q -0.0
 2784         n3     96    bbb     N1   2784 -0.59685800  14.010000   ; qtot -0.596952
 2785         c3     96    bbb     C1   2785 0.10137000  12.010000   ; qtot -0.495582
 2786         h1     96    bbb     H1   2786 0.04411300   1.008000   ; qtot -0.451469
 2787         h1     96    bbb     H2   2787 0.04411300   1.008000   ; qtot -0.407356
 2788         c3     96    bbb     C2   2788 0.10137000  12.010000   ; qtot -0.305986
 2789         h1     96    bbb     H3   2789 0.04411300   1.008000   ; qtot -0.261873
 2790         h1     96    bbb     H4   2790 0.04411300   1.008000   ; qtot -0.217760
 2791         c3     96    bbb     C3   2791 -0.00195300  12.010000   ; qtot -0.219713
 2792         h1     96    bbb     H5   2792 0.05064400   1.008000   ; qtot -0.169069
 2793         h1     96    bbb     H6   2793 0.05064400   1.008000   ; qtot -0.118425
 2794         c3     96    bbb     C4   2794 -0.01612100  12.010000   ; qtot -0.134546
 2795         hc     96    bbb     H7   2795 0.04936100   1.008000   ; qtot -0.085185
 2796         hc     96    bbb     H8   2796 0.04936100   1.008000   ; qtot -0.035824
 2797         c3     96    bbb     C5   2797 0.11363000  12.010000   ; qtot 0.077806
 2798         hc     96    bbb     H9   2798 0.06265900   1.008000   ; qtot 0.140465
 2799         hc     96    bbb    H10   2799 0.06265900   1.008000   ; qtot 0.203124
 2800         c3     96    bbb     C6   2800 0.11363000  12.010000   ; qtot 0.316754
 2801         hc     96    bbb    H11   2801 0.06265900   1.008000   ; qtot 0.379413
 2802         hc     96    bbb    H12   2802 0.06265900   1.008000   ; qtot 0.442072
 2803         c3     96    bbb     C7   2803 0.05858200  12.010000   ; qtot 0.500654
 2804         h1     96    bbb    H13   2804 0.06123400   1.008000   ; qtot 0.561888
 2805         h1     96    bbb    H14   2805 0.06123400   1.008000   ; qtot 0.623122
 2806         c3     96    bbb     C8   2806 -0.72423400  12.010000   ; qtot -0.101112
 2807         h1     96    bbb    H15   2807 0.25637600   1.008000   ; qtot 0.155264
 2808         h1     96    bbb    H16   2808 0.25637600   1.008000   ; qtot 0.411640
 2809         c3     96    bbb     C9   2809 -0.72423400  12.010000   ; qtot -0.312594
 2810         h1     96    bbb    H17   2810 0.25637600   1.008000   ; qtot -0.056218
 2811         h1     96    bbb    H18   2811 0.25637600   1.008000   ; qtot 0.200158
 2812         os     96    bbb     O1   2812 -0.20025300  16.000000   ; qtot -0.000095
; residue   97 bbb rtp bbb q -0.0
 2813         n3     97    bbb     N1   2813 -0.59685800  14.010000   ; qtot -0.596953
 2814         c3     97    bbb     C1   2814 0.10137000  12.010000   ; qtot -0.495583
 2815         h1     97    bbb     H1   2815 0.04411300   1.008000   ; qtot -0.451470
 2816         h1     97    bbb     H2   2816 0.04411300   1.008000   ; qtot -0.407357
 2817         c3     97    bbb     C2   2817 0.10137000  12.010000   ; qtot -0.305987
 2818         h1     97    bbb     H3   2818 0.04411300   1.008000   ; qtot -0.261874
 2819         h1     97    bbb     H4   2819 0.04411300   1.008000   ; qtot -0.217761
 2820         c3     97    bbb     C3   2820 -0.00195300  12.010000   ; qtot -0.219714
 2821         h1     97    bbb     H5   2821 0.05064400   1.008000   ; qtot -0.169070
 2822         h1     97    bbb     H6   2822 0.05064400   1.008000   ; qtot -0.118426
 2823         c3     97    bbb     C4   2823 -0.01612100  12.010000   ; qtot -0.134547
 2824         hc     97    bbb     H7   2824 0.04936100   1.008000   ; qtot -0.085186
 2825         hc     97    bbb     H8   2825 0.04936100   1.008000   ; qtot -0.035825
 2826         c3     97    bbb     C5   2826 0.11363000  12.010000   ; qtot 0.077805
 2827         hc     97    bbb     H9   2827 0.06265900   1.008000   ; qtot 0.140464
 2828         hc     97    bbb    H10   2828 0.06265900   1.008000   ; qtot 0.203123
 2829         c3     97    bbb     C6   2829 0.11363000  12.010000   ; qtot 0.316753
 2830         hc     97    bbb    H11   2830 0.06265900   1.008000   ; qtot 0.379412
 2831         hc     97    bbb    H12   2831 0.06265900   1.008000   ; qtot 0.442071
 2832         c3     97    bbb     C7   2832 0.05858200  12.010000   ; qtot 0.500653
 2833         h1     97    bbb    H13   2833 0.06123400   1.008000   ; qtot 0.561887
 2834         h1     97    bbb    H14   2834 0.06123400   1.008000   ; qtot 0.623121
 2835         c3     97    bbb     C8   2835 -0.72423400  12.010000   ; qtot -0.101113
 2836         h1     97    bbb    H15   2836 0.25637600   1.008000   ; qtot 0.155263
 2837         h1     97    bbb    H16   2837 0.25637600   1.008000   ; qtot 0.411639
 2838         c3     97    bbb     C9   2838 -0.72423400  12.010000   ; qtot -0.312595
 2839         h1     97    bbb    H17   2839 0.25637600   1.008000   ; qtot -0.056219
 2840         h1     97    bbb    H18   2840 0.25637600   1.008000   ; qtot 0.200157
 2841         os     97    bbb     O1   2841 -0.20025300  16.000000   ; qtot -0.000096
; residue   98 bbb rtp bbb q -0.0
 2842         n3     98    bbb     N1   2842 -0.59685800  14.010000   ; qtot -0.596954
 2843         c3     98    bbb     C1   2843 0.10137000  12.010000   ; qtot -0.495584
 2844         h1     98    bbb     H1   2844 0.04411300   1.008000   ; qtot -0.451471
 2845         h1     98    bbb     H2   2845 0.04411300   1.008000   ; qtot -0.407358
 2846         c3     98    bbb     C2   2846 0.10137000  12.010000   ; qtot -0.305988
 2847         h1     98    bbb     H3   2847 0.04411300   1.008000   ; qtot -0.261875
 2848         h1     98    bbb     H4   2848 0.04411300   1.008000   ; qtot -0.217762
 2849         c3     98    bbb     C3   2849 -0.00195300  12.010000   ; qtot -0.219715
 2850         h1     98    bbb     H5   2850 0.05064400   1.008000   ; qtot -0.169071
 2851         h1     98    bbb     H6   2851 0.05064400   1.008000   ; qtot -0.118427
 2852         c3     98    bbb     C4   2852 -0.01612100  12.010000   ; qtot -0.134548
 2853         hc     98    bbb     H7   2853 0.04936100   1.008000   ; qtot -0.085187
 2854         hc     98    bbb     H8   2854 0.04936100   1.008000   ; qtot -0.035826
 2855         c3     98    bbb     C5   2855 0.11363000  12.010000   ; qtot 0.077804
 2856         hc     98    bbb     H9   2856 0.06265900   1.008000   ; qtot 0.140463
 2857         hc     98    bbb    H10   2857 0.06265900   1.008000   ; qtot 0.203122
 2858         c3     98    bbb     C6   2858 0.11363000  12.010000   ; qtot 0.316752
 2859         hc     98    bbb    H11   2859 0.06265900   1.008000   ; qtot 0.379411
 2860         hc     98    bbb    H12   2860 0.06265900   1.008000   ; qtot 0.442070
 2861         c3     98    bbb     C7   2861 0.05858200  12.010000   ; qtot 0.500652
 2862         h1     98    bbb    H13   2862 0.06123400   1.008000   ; qtot 0.561886
 2863         h1     98    bbb    H14   2863 0.06123400   1.008000   ; qtot 0.623120
 2864         c3     98    bbb     C8   2864 -0.72423400  12.010000   ; qtot -0.101114
 2865         h1     98    bbb    H15   2865 0.25637600   1.008000   ; qtot 0.155262
 2866         h1     98    bbb    H16   2866 0.25637600   1.008000   ; qtot 0.411638
 2867         c3     98    bbb     C9   2867 -0.72423400  12.010000   ; qtot -0.312596
 2868         h1     98    bbb    H17   2868 0.25637600   1.008000   ; qtot -0.056220
 2869         h1     98    bbb    H18   2869 0.25637600   1.008000   ; qtot 0.200156
 2870         os     98    bbb     O1   2870 -0.20025300  16.000000   ; qtot -0.000097
; residue   99 bbb rtp bbb q -0.0
 2871         n3     99    bbb     N1   2871 -0.59685800  14.010000   ; qtot -0.596955
 2872         c3     99    bbb     C1   2872 0.10137000  12.010000   ; qtot -0.495585
 2873         h1     99    bbb     H1   2873 0.04411300   1.008000   ; qtot -0.451472
 2874         h1     99    bbb     H2   2874 0.04411300   1.008000   ; qtot -0.407359
 2875         c3     99    bbb     C2   2875 0.10137000  12.010000   ; qtot -0.305989
 2876         h1     99    bbb     H3   2876 0.04411300   1.008000   ; qtot -0.261876
 2877         h1     99    bbb     H4   2877 0.04411300   1.008000   ; qtot -0.217763
 2878         c3     99    bbb     C3   2878 -0.00195300  12.010000   ; qtot -0.219716
 2879         h1     99    bbb     H5   2879 0.05064400   1.008000   ; qtot -0.169072
 2880         h1     99    bbb     H6   2880 0.05064400   1.008000   ; qtot -0.118428
 2881         c3     99    bbb     C4   2881 -0.01612100  12.010000   ; qtot -0.134549
 2882         hc     99    bbb     H7   2882 0.04936100   1.008000   ; qtot -0.085188
 2883         hc     99    bbb     H8   2883 0.04936100   1.008000   ; qtot -0.035827
 2884         c3     99    bbb     C5   2884 0.11363000  12.010000   ; qtot 0.077803
 2885         hc     99    bbb     H9   2885 0.06265900   1.008000   ; qtot 0.140462
 2886         hc     99    bbb    H10   2886 0.06265900   1.008000   ; qtot 0.203121
 2887         c3     99    bbb     C6   2887 0.11363000  12.010000   ; qtot 0.316751
 2888         hc     99    bbb    H11   2888 0.06265900   1.008000   ; qtot 0.379410
 2889         hc     99    bbb    H12   2889 0.06265900   1.008000   ; qtot 0.442069
 2890         c3     99    bbb     C7   2890 0.05858200  12.010000   ; qtot 0.500651
 2891         h1     99    bbb    H13   2891 0.06123400   1.008000   ; qtot 0.561885
 2892         h1     99    bbb    H14   2892 0.06123400   1.008000   ; qtot 0.623119
 2893         c3     99    bbb     C8   2893 -0.72423400  12.010000   ; qtot -0.101115
 2894         h1     99    bbb    H15   2894 0.25637600   1.008000   ; qtot 0.155261
 2895         h1     99    bbb    H16   2895 0.25637600   1.008000   ; qtot 0.411637
 2896         c3     99    bbb     C9   2896 -0.72423400  12.010000   ; qtot -0.312597
 2897         h1     99    bbb    H17   2897 0.25637600   1.008000   ; qtot -0.056221
 2898         h1     99    bbb    H18   2898 0.25637600   1.008000   ; qtot 0.200155
 2899         os     99    bbb     O1   2899 -0.20025300  16.000000   ; qtot -0.000098
; residue  100 bbb rtp bbb q -0.0
 2900         n3    100    bbb     N1   2900 -0.59685800  14.010000   ; qtot -0.596956
 2901         c3    100    bbb     C1   2901 0.10137000  12.010000   ; qtot -0.495586
 2902         h1    100    bbb     H1   2902 0.04411300   1.008000   ; qtot -0.451473
 2903         h1    100    bbb     H2   2903 0.04411300   1.008000   ; qtot -0.407360
 2904         c3    100    bbb     C2   2904 0.10137000  12.010000   ; qtot -0.305990
 2905         h1    100    bbb     H3   2905 0.04411300   1.008000   ; qtot -0.261877
 2906         h1    100    bbb     H4   2906 0.04411300   1.008000   ; qtot -0.217764
 2907         c3    100    bbb     C3   2907 -0.00195300  12.010000   ; qtot -0.219717
 2908         h1    100    bbb     H5   2908 0.05064400   1.008000   ; qtot -0.169073
 2909         h1    100    bbb     H6   2909 0.05064400   1.008000   ; qtot -0.118429
 2910         c3    100    bbb     C4   2910 -0.01612100  12.010000   ; qtot -0.134550
 2911         hc    100    bbb     H7   2911 0.04936100   1.008000   ; qtot -0.085189
 2912         hc    100    bbb     H8   2912 0.04936100   1.008000   ; qtot -0.035828
 2913         c3    100    bbb     C5   2913 0.11363000  12.010000   ; qtot 0.077802
 2914         hc    100    bbb     H9   2914 0.06265900   1.008000   ; qtot 0.140461
 2915         hc    100    bbb    H10   2915 0.06265900   1.008000   ; qtot 0.203120
 2916         c3    100    bbb     C6   2916 0.11363000  12.010000   ; qtot 0.316750
 2917         hc    100    bbb    H11   2917 0.06265900   1.008000   ; qtot 0.379409
 2918         hc    100    bbb    H12   2918 0.06265900   1.008000   ; qtot 0.442068
 2919         c3    100    bbb     C7   2919 0.05858200  12.010000   ; qtot 0.500650
 2920         h1    100    bbb    H13   2920 0.06123400   1.008000   ; qtot 0.561884
 2921         h1    100    bbb    H14   2921 0.06123400   1.008000   ; qtot 0.623118
 2922         c3    100    bbb     C8   2922 -0.72423400  12.010000   ; qtot -0.101116
 2923         h1    100    bbb    H15   2923 0.25637600   1.008000   ; qtot 0.155260
 2924         h1    100    bbb    H16   2924 0.25637600   1.008000   ; qtot 0.411636
 2925         c3    100    bbb     C9   2925 -0.72423400  12.010000   ; qtot -0.312598
 2926         h1    100    bbb    H17   2926 0.25637600   1.008000   ; qtot -0.056222
 2927         h1    100    bbb    H18   2927 0.25637600   1.008000   ; qtot 0.200154
 2928         os    100    bbb     O1   2928 -0.20025300  16.000000   ; qtot -0.000099
; residue  101 bbb rtp bbb q -0.0
 2929         n3    101    bbb     N1   2929 -0.59685800  14.010000   ; qtot -0.596957
 2930         c3    101    bbb     C1   2930 0.10137000  12.010000   ; qtot -0.495587
 2931         h1    101    bbb     H1   2931 0.04411300   1.008000   ; qtot -0.451474
 2932         h1    101    bbb     H2   2932 0.04411300   1.008000   ; qtot -0.407361
 2933         c3    101    bbb     C2   2933 0.10137000  12.010000   ; qtot -0.305991
 2934         h1    101    bbb     H3   2934 0.04411300   1.008000   ; qtot -0.261878
 2935         h1    101    bbb     H4   2935 0.04411300   1.008000   ; qtot -0.217765
 2936         c3    101    bbb     C3   2936 -0.00195300  12.010000   ; qtot -0.219718
 2937         h1    101    bbb     H5   2937 0.05064400   1.008000   ; qtot -0.169074
 2938         h1    101    bbb     H6   2938 0.05064400   1.008000   ; qtot -0.118430
 2939         c3    101    bbb     C4   2939 -0.01612100  12.010000   ; qtot -0.134551
 2940         hc    101    bbb     H7   2940 0.04936100   1.008000   ; qtot -0.085190
 2941         hc    101    bbb     H8   2941 0.04936100   1.008000   ; qtot -0.035829
 2942         c3    101    bbb     C5   2942 0.11363000  12.010000   ; qtot 0.077801
 2943         hc    101    bbb     H9   2943 0.06265900   1.008000   ; qtot 0.140460
 2944         hc    101    bbb    H10   2944 0.06265900   1.008000   ; qtot 0.203119
 2945         c3    101    bbb     C6   2945 0.11363000  12.010000   ; qtot 0.316749
 2946         hc    101    bbb    H11   2946 0.06265900   1.008000   ; qtot 0.379408
 2947         hc    101    bbb    H12   2947 0.06265900   1.008000   ; qtot 0.442067
 2948         c3    101    bbb     C7   2948 0.05858200  12.010000   ; qtot 0.500649
 2949         h1    101    bbb    H13   2949 0.06123400   1.008000   ; qtot 0.561883
 2950         h1    101    bbb    H14   2950 0.06123400   1.008000   ; qtot 0.623117
 2951         c3    101    bbb     C8   2951 -0.72423400  12.010000   ; qtot -0.101117
 2952         h1    101    bbb    H15   2952 0.25637600   1.008000   ; qtot 0.155259
 2953         h1    101    bbb    H16   2953 0.25637600   1.008000   ; qtot 0.411635
 2954         c3    101    bbb     C9   2954 -0.72423400  12.010000   ; qtot -0.312599
 2955         h1    101    bbb    H17   2955 0.25637600   1.008000   ; qtot -0.056223
 2956         h1    101    bbb    H18   2956 0.25637600   1.008000   ; qtot 0.200153
 2957         os    101    bbb     O1   2957 -0.20025300  16.000000   ; qtot -0.000100
; residue  102 bbb rtp bbb q -0.0
 2958         n3    102    bbb     N1   2958 -0.59685800  14.010000   ; qtot -0.596958
 2959         c3    102    bbb     C1   2959 0.10137000  12.010000   ; qtot -0.495588
 2960         h1    102    bbb     H1   2960 0.04411300   1.008000   ; qtot -0.451475
 2961         h1    102    bbb     H2   2961 0.04411300   1.008000   ; qtot -0.407362
 2962         c3    102    bbb     C2   2962 0.10137000  12.010000   ; qtot -0.305992
 2963         h1    102    bbb     H3   2963 0.04411300   1.008000   ; qtot -0.261879
 2964         h1    102    bbb     H4   2964 0.04411300   1.008000   ; qtot -0.217766
 2965         c3    102    bbb     C3   2965 -0.00195300  12.010000   ; qtot -0.219719
 2966         h1    102    bbb     H5   2966 0.05064400   1.008000   ; qtot -0.169075
 2967         h1    102    bbb     H6   2967 0.05064400   1.008000   ; qtot -0.118431
 2968         c3    102    bbb     C4   2968 -0.01612100  12.010000   ; qtot -0.134552
 2969         hc    102    bbb     H7   2969 0.04936100   1.008000   ; qtot -0.085191
 2970         hc    102    bbb     H8   2970 0.04936100   1.008000   ; qtot -0.035830
 2971         c3    102    bbb     C5   2971 0.11363000  12.010000   ; qtot 0.077800
 2972         hc    102    bbb     H9   2972 0.06265900   1.008000   ; qtot 0.140459
 2973         hc    102    bbb    H10   2973 0.06265900   1.008000   ; qtot 0.203118
 2974         c3    102    bbb     C6   2974 0.11363000  12.010000   ; qtot 0.316748
 2975         hc    102    bbb    H11   2975 0.06265900   1.008000   ; qtot 0.379407
 2976         hc    102    bbb    H12   2976 0.06265900   1.008000   ; qtot 0.442066
 2977         c3    102    bbb     C7   2977 0.05858200  12.010000   ; qtot 0.500648
 2978         h1    102    bbb    H13   2978 0.06123400   1.008000   ; qtot 0.561882
 2979         h1    102    bbb    H14   2979 0.06123400   1.008000   ; qtot 0.623116
 2980         c3    102    bbb     C8   2980 -0.72423400  12.010000   ; qtot -0.101118
 2981         h1    102    bbb    H15   2981 0.25637600   1.008000   ; qtot 0.155258
 2982         h1    102    bbb    H16   2982 0.25637600   1.008000   ; qtot 0.411634
 2983         c3    102    bbb     C9   2983 -0.72423400  12.010000   ; qtot -0.312600
 2984         h1    102    bbb    H17   2984 0.25637600   1.008000   ; qtot -0.056224
 2985         h1    102    bbb    H18   2985 0.25637600   1.008000   ; qtot 0.200152
 2986         os    102    bbb     O1   2986 -0.20025300  16.000000   ; qtot -0.000101
; residue  103 bbb rtp bbb q -0.0
 2987         n3    103    bbb     N1   2987 -0.59685800  14.010000   ; qtot -0.596959
 2988         c3    103    bbb     C1   2988 0.10137000  12.010000   ; qtot -0.495589
 2989         h1    103    bbb     H1   2989 0.04411300   1.008000   ; qtot -0.451476
 2990         h1    103    bbb     H2   2990 0.04411300   1.008000   ; qtot -0.407363
 2991         c3    103    bbb     C2   2991 0.10137000  12.010000   ; qtot -0.305993
 2992         h1    103    bbb     H3   2992 0.04411300   1.008000   ; qtot -0.261880
 2993         h1    103    bbb     H4   2993 0.04411300   1.008000   ; qtot -0.217767
 2994         c3    103    bbb     C3   2994 -0.00195300  12.010000   ; qtot -0.219720
 2995         h1    103    bbb     H5   2995 0.05064400   1.008000   ; qtot -0.169076
 2996         h1    103    bbb     H6   2996 0.05064400   1.008000   ; qtot -0.118432
 2997         c3    103    bbb     C4   2997 -0.01612100  12.010000   ; qtot -0.134553
 2998         hc    103    bbb     H7   2998 0.04936100   1.008000   ; qtot -0.085192
 2999         hc    103    bbb     H8   2999 0.04936100   1.008000   ; qtot -0.035831
 3000         c3    103    bbb     C5   3000 0.11363000  12.010000   ; qtot 0.077799
 3001         hc    103    bbb     H9   3001 0.06265900   1.008000   ; qtot 0.140458
 3002         hc    103    bbb    H10   3002 0.06265900   1.008000   ; qtot 0.203117
 3003         c3    103    bbb     C6   3003 0.11363000  12.010000   ; qtot 0.316747
 3004         hc    103    bbb    H11   3004 0.06265900   1.008000   ; qtot 0.379406
 3005         hc    103    bbb    H12   3005 0.06265900   1.008000   ; qtot 0.442065
 3006         c3    103    bbb     C7   3006 0.05858200  12.010000   ; qtot 0.500647
 3007         h1    103    bbb    H13   3007 0.06123400   1.008000   ; qtot 0.561881
 3008         h1    103    bbb    H14   3008 0.06123400   1.008000   ; qtot 0.623115
 3009         c3    103    bbb     C8   3009 -0.72423400  12.010000   ; qtot -0.101119
 3010         h1    103    bbb    H15   3010 0.25637600   1.008000   ; qtot 0.155257
 3011         h1    103    bbb    H16   3011 0.25637600   1.008000   ; qtot 0.411633
 3012         c3    103    bbb     C9   3012 -0.72423400  12.010000   ; qtot -0.312601
 3013         h1    103    bbb    H17   3013 0.25637600   1.008000   ; qtot -0.056225
 3014         h1    103    bbb    H18   3014 0.25637600   1.008000   ; qtot 0.200151
 3015         os    103    bbb     O1   3015 -0.20025300  16.000000   ; qtot -0.000102
; residue  104 bbb rtp bbb q -0.0
 3016         n3    104    bbb     N1   3016 -0.59685800  14.010000   ; qtot -0.596960
 3017         c3    104    bbb     C1   3017 0.10137000  12.010000   ; qtot -0.495590
 3018         h1    104    bbb     H1   3018 0.04411300   1.008000   ; qtot -0.451477
 3019         h1    104    bbb     H2   3019 0.04411300   1.008000   ; qtot -0.407364
 3020         c3    104    bbb     C2   3020 0.10137000  12.010000   ; qtot -0.305994
 3021         h1    104    bbb     H3   3021 0.04411300   1.008000   ; qtot -0.261881
 3022         h1    104    bbb     H4   3022 0.04411300   1.008000   ; qtot -0.217768
 3023         c3    104    bbb     C3   3023 -0.00195300  12.010000   ; qtot -0.219721
 3024         h1    104    bbb     H5   3024 0.05064400   1.008000   ; qtot -0.169077
 3025         h1    104    bbb     H6   3025 0.05064400   1.008000   ; qtot -0.118433
 3026         c3    104    bbb     C4   3026 -0.01612100  12.010000   ; qtot -0.134554
 3027         hc    104    bbb     H7   3027 0.04936100   1.008000   ; qtot -0.085193
 3028         hc    104    bbb     H8   3028 0.04936100   1.008000   ; qtot -0.035832
 3029         c3    104    bbb     C5   3029 0.11363000  12.010000   ; qtot 0.077798
 3030         hc    104    bbb     H9   3030 0.06265900   1.008000   ; qtot 0.140457
 3031         hc    104    bbb    H10   3031 0.06265900   1.008000   ; qtot 0.203116
 3032         c3    104    bbb     C6   3032 0.11363000  12.010000   ; qtot 0.316746
 3033         hc    104    bbb    H11   3033 0.06265900   1.008000   ; qtot 0.379405
 3034         hc    104    bbb    H12   3034 0.06265900   1.008000   ; qtot 0.442064
 3035         c3    104    bbb     C7   3035 0.05858200  12.010000   ; qtot 0.500646
 3036         h1    104    bbb    H13   3036 0.06123400   1.008000   ; qtot 0.561880
 3037         h1    104    bbb    H14   3037 0.06123400   1.008000   ; qtot 0.623114
 3038         c3    104    bbb     C8   3038 -0.72423400  12.010000   ; qtot -0.101120
 3039         h1    104    bbb    H15   3039 0.25637600   1.008000   ; qtot 0.155256
 3040         h1    104    bbb    H16   3040 0.25637600   1.008000   ; qtot 0.411632
 3041         c3    104    bbb     C9   3041 -0.72423400  12.010000   ; qtot -0.312602
 3042         h1    104    bbb    H17   3042 0.25637600   1.008000   ; qtot -0.056226
 3043         h1    104    bbb    H18   3043 0.25637600   1.008000   ; qtot 0.200150
 3044         os    104    bbb     O1   3044 -0.20025300  16.000000   ; qtot -0.000103
; residue  105 bbb rtp bbb q -0.0
 3045         n3    105    bbb     N1   3045 -0.59685800  14.010000   ; qtot -0.596961
 3046         c3    105    bbb     C1   3046 0.10137000  12.010000   ; qtot -0.495591
 3047         h1    105    bbb     H1   3047 0.04411300   1.008000   ; qtot -0.451478
 3048         h1    105    bbb     H2   3048 0.04411300   1.008000   ; qtot -0.407365
 3049         c3    105    bbb     C2   3049 0.10137000  12.010000   ; qtot -0.305995
 3050         h1    105    bbb     H3   3050 0.04411300   1.008000   ; qtot -0.261882
 3051         h1    105    bbb     H4   3051 0.04411300   1.008000   ; qtot -0.217769
 3052         c3    105    bbb     C3   3052 -0.00195300  12.010000   ; qtot -0.219722
 3053         h1    105    bbb     H5   3053 0.05064400   1.008000   ; qtot -0.169078
 3054         h1    105    bbb     H6   3054 0.05064400   1.008000   ; qtot -0.118434
 3055         c3    105    bbb     C4   3055 -0.01612100  12.010000   ; qtot -0.134555
 3056         hc    105    bbb     H7   3056 0.04936100   1.008000   ; qtot -0.085194
 3057         hc    105    bbb     H8   3057 0.04936100   1.008000   ; qtot -0.035833
 3058         c3    105    bbb     C5   3058 0.11363000  12.010000   ; qtot 0.077797
 3059         hc    105    bbb     H9   3059 0.06265900   1.008000   ; qtot 0.140456
 3060         hc    105    bbb    H10   3060 0.06265900   1.008000   ; qtot 0.203115
 3061         c3    105    bbb     C6   3061 0.11363000  12.010000   ; qtot 0.316745
 3062         hc    105    bbb    H11   3062 0.06265900   1.008000   ; qtot 0.379404
 3063         hc    105    bbb    H12   3063 0.06265900   1.008000   ; qtot 0.442063
 3064         c3    105    bbb     C7   3064 0.05858200  12.010000   ; qtot 0.500645
 3065         h1    105    bbb    H13   3065 0.06123400   1.008000   ; qtot 0.561879
 3066         h1    105    bbb    H14   3066 0.06123400   1.008000   ; qtot 0.623113
 3067         c3    105    bbb     C8   3067 -0.72423400  12.010000   ; qtot -0.101121
 3068         h1    105    bbb    H15   3068 0.25637600   1.008000   ; qtot 0.155255
 3069         h1    105    bbb    H16   3069 0.25637600   1.008000   ; qtot 0.411631
 3070         c3    105    bbb     C9   3070 -0.72423400  12.010000   ; qtot -0.312603
 3071         h1    105    bbb    H17   3071 0.25637600   1.008000   ; qtot -0.056227
 3072         h1    105    bbb    H18   3072 0.25637600   1.008000   ; qtot 0.200149
 3073         os    105    bbb     O1   3073 -0.20025300  16.000000   ; qtot -0.000104
; residue  106 bbb rtp bbb q -0.0
 3074         n3    106    bbb     N1   3074 -0.59685800  14.010000   ; qtot -0.596962
 3075         c3    106    bbb     C1   3075 0.10137000  12.010000   ; qtot -0.495592
 3076         h1    106    bbb     H1   3076 0.04411300   1.008000   ; qtot -0.451479
 3077         h1    106    bbb     H2   3077 0.04411300   1.008000   ; qtot -0.407366
 3078         c3    106    bbb     C2   3078 0.10137000  12.010000   ; qtot -0.305996
 3079         h1    106    bbb     H3   3079 0.04411300   1.008000   ; qtot -0.261883
 3080         h1    106    bbb     H4   3080 0.04411300   1.008000   ; qtot -0.217770
 3081         c3    106    bbb     C3   3081 -0.00195300  12.010000   ; qtot -0.219723
 3082         h1    106    bbb     H5   3082 0.05064400   1.008000   ; qtot -0.169079
 3083         h1    106    bbb     H6   3083 0.05064400   1.008000   ; qtot -0.118435
 3084         c3    106    bbb     C4   3084 -0.01612100  12.010000   ; qtot -0.134556
 3085         hc    106    bbb     H7   3085 0.04936100   1.008000   ; qtot -0.085195
 3086         hc    106    bbb     H8   3086 0.04936100   1.008000   ; qtot -0.035834
 3087         c3    106    bbb     C5   3087 0.11363000  12.010000   ; qtot 0.077796
 3088         hc    106    bbb     H9   3088 0.06265900   1.008000   ; qtot 0.140455
 3089         hc    106    bbb    H10   3089 0.06265900   1.008000   ; qtot 0.203114
 3090         c3    106    bbb     C6   3090 0.11363000  12.010000   ; qtot 0.316744
 3091         hc    106    bbb    H11   3091 0.06265900   1.008000   ; qtot 0.379403
 3092         hc    106    bbb    H12   3092 0.06265900   1.008000   ; qtot 0.442062
 3093         c3    106    bbb     C7   3093 0.05858200  12.010000   ; qtot 0.500644
 3094         h1    106    bbb    H13   3094 0.06123400   1.008000   ; qtot 0.561878
 3095         h1    106    bbb    H14   3095 0.06123400   1.008000   ; qtot 0.623112
 3096         c3    106    bbb     C8   3096 -0.72423400  12.010000   ; qtot -0.101122
 3097         h1    106    bbb    H15   3097 0.25637600   1.008000   ; qtot 0.155254
 3098         h1    106    bbb    H16   3098 0.25637600   1.008000   ; qtot 0.411630
 3099         c3    106    bbb     C9   3099 -0.72423400  12.010000   ; qtot -0.312604
 3100         h1    106    bbb    H17   3100 0.25637600   1.008000   ; qtot -0.056228
 3101         h1    106    bbb    H18   3101 0.25637600   1.008000   ; qtot 0.200148
 3102         os    106    bbb     O1   3102 -0.20025300  16.000000   ; qtot -0.000105
; residue  107 bbb rtp bbb q -0.0
 3103         n3    107    bbb     N1   3103 -0.59685800  14.010000   ; qtot -0.596963
 3104         c3    107    bbb     C1   3104 0.10137000  12.010000   ; qtot -0.495593
 3105         h1    107    bbb     H1   3105 0.04411300   1.008000   ; qtot -0.451480
 3106         h1    107    bbb     H2   3106 0.04411300   1.008000   ; qtot -0.407367
 3107         c3    107    bbb     C2   3107 0.10137000  12.010000   ; qtot -0.305997
 3108         h1    107    bbb     H3   3108 0.04411300   1.008000   ; qtot -0.261884
 3109         h1    107    bbb     H4   3109 0.04411300   1.008000   ; qtot -0.217771
 3110         c3    107    bbb     C3   3110 -0.00195300  12.010000   ; qtot -0.219724
 3111         h1    107    bbb     H5   3111 0.05064400   1.008000   ; qtot -0.169080
 3112         h1    107    bbb     H6   3112 0.05064400   1.008000   ; qtot -0.118436
 3113         c3    107    bbb     C4   3113 -0.01612100  12.010000   ; qtot -0.134557
 3114         hc    107    bbb     H7   3114 0.04936100   1.008000   ; qtot -0.085196
 3115         hc    107    bbb     H8   3115 0.04936100   1.008000   ; qtot -0.035835
 3116         c3    107    bbb     C5   3116 0.11363000  12.010000   ; qtot 0.077795
 3117         hc    107    bbb     H9   3117 0.06265900   1.008000   ; qtot 0.140454
 3118         hc    107    bbb    H10   3118 0.06265900   1.008000   ; qtot 0.203113
 3119         c3    107    bbb     C6   3119 0.11363000  12.010000   ; qtot 0.316743
 3120         hc    107    bbb    H11   3120 0.06265900   1.008000   ; qtot 0.379402
 3121         hc    107    bbb    H12   3121 0.06265900   1.008000   ; qtot 0.442061
 3122         c3    107    bbb     C7   3122 0.05858200  12.010000   ; qtot 0.500643
 3123         h1    107    bbb    H13   3123 0.06123400   1.008000   ; qtot 0.561877
 3124         h1    107    bbb    H14   3124 0.06123400   1.008000   ; qtot 0.623111
 3125         c3    107    bbb     C8   3125 -0.72423400  12.010000   ; qtot -0.101123
 3126         h1    107    bbb    H15   3126 0.25637600   1.008000   ; qtot 0.155253
 3127         h1    107    bbb    H16   3127 0.25637600   1.008000   ; qtot 0.411629
 3128         c3    107    bbb     C9   3128 -0.72423400  12.010000   ; qtot -0.312605
 3129         h1    107    bbb    H17   3129 0.25637600   1.008000   ; qtot -0.056229
 3130         h1    107    bbb    H18   3130 0.25637600   1.008000   ; qtot 0.200147
 3131         os    107    bbb     O1   3131 -0.20025300  16.000000   ; qtot -0.000106
; residue  108 bbb rtp bbb q -0.0
 3132         n3    108    bbb     N1   3132 -0.59685800  14.010000   ; qtot -0.596964
 3133         c3    108    bbb     C1   3133 0.10137000  12.010000   ; qtot -0.495594
 3134         h1    108    bbb     H1   3134 0.04411300   1.008000   ; qtot -0.451481
 3135         h1    108    bbb     H2   3135 0.04411300   1.008000   ; qtot -0.407368
 3136         c3    108    bbb     C2   3136 0.10137000  12.010000   ; qtot -0.305998
 3137         h1    108    bbb     H3   3137 0.04411300   1.008000   ; qtot -0.261885
 3138         h1    108    bbb     H4   3138 0.04411300   1.008000   ; qtot -0.217772
 3139         c3    108    bbb     C3   3139 -0.00195300  12.010000   ; qtot -0.219725
 3140         h1    108    bbb     H5   3140 0.05064400   1.008000   ; qtot -0.169081
 3141         h1    108    bbb     H6   3141 0.05064400   1.008000   ; qtot -0.118437
 3142         c3    108    bbb     C4   3142 -0.01612100  12.010000   ; qtot -0.134558
 3143         hc    108    bbb     H7   3143 0.04936100   1.008000   ; qtot -0.085197
 3144         hc    108    bbb     H8   3144 0.04936100   1.008000   ; qtot -0.035836
 3145         c3    108    bbb     C5   3145 0.11363000  12.010000   ; qtot 0.077794
 3146         hc    108    bbb     H9   3146 0.06265900   1.008000   ; qtot 0.140453
 3147         hc    108    bbb    H10   3147 0.06265900   1.008000   ; qtot 0.203112
 3148         c3    108    bbb     C6   3148 0.11363000  12.010000   ; qtot 0.316742
 3149         hc    108    bbb    H11   3149 0.06265900   1.008000   ; qtot 0.379401
 3150         hc    108    bbb    H12   3150 0.06265900   1.008000   ; qtot 0.442060
 3151         c3    108    bbb     C7   3151 0.05858200  12.010000   ; qtot 0.500642
 3152         h1    108    bbb    H13   3152 0.06123400   1.008000   ; qtot 0.561876
 3153         h1    108    bbb    H14   3153 0.06123400   1.008000   ; qtot 0.623110
 3154         c3    108    bbb     C8   3154 -0.72423400  12.010000   ; qtot -0.101124
 3155         h1    108    bbb    H15   3155 0.25637600   1.008000   ; qtot 0.155252
 3156         h1    108    bbb    H16   3156 0.25637600   1.008000   ; qtot 0.411628
 3157         c3    108    bbb     C9   3157 -0.72423400  12.010000   ; qtot -0.312606
 3158         h1    108    bbb    H17   3158 0.25637600   1.008000   ; qtot -0.056230
 3159         h1    108    bbb    H18   3159 0.25637600   1.008000   ; qtot 0.200146
 3160         os    108    bbb     O1   3160 -0.20025300  16.000000   ; qtot -0.000107
; residue  109 bbb rtp bbb q -0.0
 3161         n3    109    bbb     N1   3161 -0.59685800  14.010000   ; qtot -0.596965
 3162         c3    109    bbb     C1   3162 0.10137000  12.010000   ; qtot -0.495595
 3163         h1    109    bbb     H1   3163 0.04411300   1.008000   ; qtot -0.451482
 3164         h1    109    bbb     H2   3164 0.04411300   1.008000   ; qtot -0.407369
 3165         c3    109    bbb     C2   3165 0.10137000  12.010000   ; qtot -0.305999
 3166         h1    109    bbb     H3   3166 0.04411300   1.008000   ; qtot -0.261886
 3167         h1    109    bbb     H4   3167 0.04411300   1.008000   ; qtot -0.217773
 3168         c3    109    bbb     C3   3168 -0.00195300  12.010000   ; qtot -0.219726
 3169         h1    109    bbb     H5   3169 0.05064400   1.008000   ; qtot -0.169082
 3170         h1    109    bbb     H6   3170 0.05064400   1.008000   ; qtot -0.118438
 3171         c3    109    bbb     C4   3171 -0.01612100  12.010000   ; qtot -0.134559
 3172         hc    109    bbb     H7   3172 0.04936100   1.008000   ; qtot -0.085198
 3173         hc    109    bbb     H8   3173 0.04936100   1.008000   ; qtot -0.035837
 3174         c3    109    bbb     C5   3174 0.11363000  12.010000   ; qtot 0.077793
 3175         hc    109    bbb     H9   3175 0.06265900   1.008000   ; qtot 0.140452
 3176         hc    109    bbb    H10   3176 0.06265900   1.008000   ; qtot 0.203111
 3177         c3    109    bbb     C6   3177 0.11363000  12.010000   ; qtot 0.316741
 3178         hc    109    bbb    H11   3178 0.06265900   1.008000   ; qtot 0.379400
 3179         hc    109    bbb    H12   3179 0.06265900   1.008000   ; qtot 0.442059
 3180         c3    109    bbb     C7   3180 0.05858200  12.010000   ; qtot 0.500641
 3181         h1    109    bbb    H13   3181 0.06123400   1.008000   ; qtot 0.561875
 3182         h1    109    bbb    H14   3182 0.06123400   1.008000   ; qtot 0.623109
 3183         c3    109    bbb     C8   3183 -0.72423400  12.010000   ; qtot -0.101125
 3184         h1    109    bbb    H15   3184 0.25637600   1.008000   ; qtot 0.155251
 3185         h1    109    bbb    H16   3185 0.25637600   1.008000   ; qtot 0.411627
 3186         c3    109    bbb     C9   3186 -0.72423400  12.010000   ; qtot -0.312607
 3187         h1    109    bbb    H17   3187 0.25637600   1.008000   ; qtot -0.056231
 3188         h1    109    bbb    H18   3188 0.25637600   1.008000   ; qtot 0.200145
 3189         os    109    bbb     O1   3189 -0.20025300  16.000000   ; qtot -0.000108
; residue  110 bbb rtp bbb q -0.0
 3190         n3    110    bbb     N1   3190 -0.59685800  14.010000   ; qtot -0.596966
 3191         c3    110    bbb     C1   3191 0.10137000  12.010000   ; qtot -0.495596
 3192         h1    110    bbb     H1   3192 0.04411300   1.008000   ; qtot -0.451483
 3193         h1    110    bbb     H2   3193 0.04411300   1.008000   ; qtot -0.407370
 3194         c3    110    bbb     C2   3194 0.10137000  12.010000   ; qtot -0.306000
 3195         h1    110    bbb     H3   3195 0.04411300   1.008000   ; qtot -0.261887
 3196         h1    110    bbb     H4   3196 0.04411300   1.008000   ; qtot -0.217774
 3197         c3    110    bbb     C3   3197 -0.00195300  12.010000   ; qtot -0.219727
 3198         h1    110    bbb     H5   3198 0.05064400   1.008000   ; qtot -0.169083
 3199         h1    110    bbb     H6   3199 0.05064400   1.008000   ; qtot -0.118439
 3200         c3    110    bbb     C4   3200 -0.01612100  12.010000   ; qtot -0.134560
 3201         hc    110    bbb     H7   3201 0.04936100   1.008000   ; qtot -0.085199
 3202         hc    110    bbb     H8   3202 0.04936100   1.008000   ; qtot -0.035838
 3203         c3    110    bbb     C5   3203 0.11363000  12.010000   ; qtot 0.077792
 3204         hc    110    bbb     H9   3204 0.06265900   1.008000   ; qtot 0.140451
 3205         hc    110    bbb    H10   3205 0.06265900   1.008000   ; qtot 0.203110
 3206         c3    110    bbb     C6   3206 0.11363000  12.010000   ; qtot 0.316740
 3207         hc    110    bbb    H11   3207 0.06265900   1.008000   ; qtot 0.379399
 3208         hc    110    bbb    H12   3208 0.06265900   1.008000   ; qtot 0.442058
 3209         c3    110    bbb     C7   3209 0.05858200  12.010000   ; qtot 0.500640
 3210         h1    110    bbb    H13   3210 0.06123400   1.008000   ; qtot 0.561874
 3211         h1    110    bbb    H14   3211 0.06123400   1.008000   ; qtot 0.623108
 3212         c3    110    bbb     C8   3212 -0.72423400  12.010000   ; qtot -0.101126
 3213         h1    110    bbb    H15   3213 0.25637600   1.008000   ; qtot 0.155250
 3214         h1    110    bbb    H16   3214 0.25637600   1.008000   ; qtot 0.411626
 3215         c3    110    bbb     C9   3215 -0.72423400  12.010000   ; qtot -0.312608
 3216         h1    110    bbb    H17   3216 0.25637600   1.008000   ; qtot -0.056232
 3217         h1    110    bbb    H18   3217 0.25637600   1.008000   ; qtot 0.200144
 3218         os    110    bbb     O1   3218 -0.20025300  16.000000   ; qtot -0.000109
; residue  111 bbb rtp bbb q -0.0
 3219         n3    111    bbb     N1   3219 -0.59685800  14.010000   ; qtot -0.596967
 3220         c3    111    bbb     C1   3220 0.10137000  12.010000   ; qtot -0.495597
 3221         h1    111    bbb     H1   3221 0.04411300   1.008000   ; qtot -0.451484
 3222         h1    111    bbb     H2   3222 0.04411300   1.008000   ; qtot -0.407371
 3223         c3    111    bbb     C2   3223 0.10137000  12.010000   ; qtot -0.306001
 3224         h1    111    bbb     H3   3224 0.04411300   1.008000   ; qtot -0.261888
 3225         h1    111    bbb     H4   3225 0.04411300   1.008000   ; qtot -0.217775
 3226         c3    111    bbb     C3   3226 -0.00195300  12.010000   ; qtot -0.219728
 3227         h1    111    bbb     H5   3227 0.05064400   1.008000   ; qtot -0.169084
 3228         h1    111    bbb     H6   3228 0.05064400   1.008000   ; qtot -0.118440
 3229         c3    111    bbb     C4   3229 -0.01612100  12.010000   ; qtot -0.134561
 3230         hc    111    bbb     H7   3230 0.04936100   1.008000   ; qtot -0.085200
 3231         hc    111    bbb     H8   3231 0.04936100   1.008000   ; qtot -0.035839
 3232         c3    111    bbb     C5   3232 0.11363000  12.010000   ; qtot 0.077791
 3233         hc    111    bbb     H9   3233 0.06265900   1.008000   ; qtot 0.140450
 3234         hc    111    bbb    H10   3234 0.06265900   1.008000   ; qtot 0.203109
 3235         c3    111    bbb     C6   3235 0.11363000  12.010000   ; qtot 0.316739
 3236         hc    111    bbb    H11   3236 0.06265900   1.008000   ; qtot 0.379398
 3237         hc    111    bbb    H12   3237 0.06265900   1.008000   ; qtot 0.442057
 3238         c3    111    bbb     C7   3238 0.05858200  12.010000   ; qtot 0.500639
 3239         h1    111    bbb    H13   3239 0.06123400   1.008000   ; qtot 0.561873
 3240         h1    111    bbb    H14   3240 0.06123400   1.008000   ; qtot 0.623107
 3241         c3    111    bbb     C8   3241 -0.72423400  12.010000   ; qtot -0.101127
 3242         h1    111    bbb    H15   3242 0.25637600   1.008000   ; qtot 0.155249
 3243         h1    111    bbb    H16   3243 0.25637600   1.008000   ; qtot 0.411625
 3244         c3    111    bbb     C9   3244 -0.72423400  12.010000   ; qtot -0.312609
 3245         h1    111    bbb    H17   3245 0.25637600   1.008000   ; qtot -0.056233
 3246         h1    111    bbb    H18   3246 0.25637600   1.008000   ; qtot 0.200143
 3247         os    111    bbb     O1   3247 -0.20025300  16.000000   ; qtot -0.000110
; residue  112 bbb rtp bbb q -0.0
 3248         n3    112    bbb     N1   3248 -0.59685800  14.010000   ; qtot -0.596968
 3249         c3    112    bbb     C1   3249 0.10137000  12.010000   ; qtot -0.495598
 3250         h1    112    bbb     H1   3250 0.04411300   1.008000   ; qtot -0.451485
 3251         h1    112    bbb     H2   3251 0.04411300   1.008000   ; qtot -0.407372
 3252         c3    112    bbb     C2   3252 0.10137000  12.010000   ; qtot -0.306002
 3253         h1    112    bbb     H3   3253 0.04411300   1.008000   ; qtot -0.261889
 3254         h1    112    bbb     H4   3254 0.04411300   1.008000   ; qtot -0.217776
 3255         c3    112    bbb     C3   3255 -0.00195300  12.010000   ; qtot -0.219729
 3256         h1    112    bbb     H5   3256 0.05064400   1.008000   ; qtot -0.169085
 3257         h1    112    bbb     H6   3257 0.05064400   1.008000   ; qtot -0.118441
 3258         c3    112    bbb     C4   3258 -0.01612100  12.010000   ; qtot -0.134562
 3259         hc    112    bbb     H7   3259 0.04936100   1.008000   ; qtot -0.085201
 3260         hc    112    bbb     H8   3260 0.04936100   1.008000   ; qtot -0.035840
 3261         c3    112    bbb     C5   3261 0.11363000  12.010000   ; qtot 0.077790
 3262         hc    112    bbb     H9   3262 0.06265900   1.008000   ; qtot 0.140449
 3263         hc    112    bbb    H10   3263 0.06265900   1.008000   ; qtot 0.203108
 3264         c3    112    bbb     C6   3264 0.11363000  12.010000   ; qtot 0.316738
 3265         hc    112    bbb    H11   3265 0.06265900   1.008000   ; qtot 0.379397
 3266         hc    112    bbb    H12   3266 0.06265900   1.008000   ; qtot 0.442056
 3267         c3    112    bbb     C7   3267 0.05858200  12.010000   ; qtot 0.500638
 3268         h1    112    bbb    H13   3268 0.06123400   1.008000   ; qtot 0.561872
 3269         h1    112    bbb    H14   3269 0.06123400   1.008000   ; qtot 0.623106
 3270         c3    112    bbb     C8   3270 -0.72423400  12.010000   ; qtot -0.101128
 3271         h1    112    bbb    H15   3271 0.25637600   1.008000   ; qtot 0.155248
 3272         h1    112    bbb    H16   3272 0.25637600   1.008000   ; qtot 0.411624
 3273         c3    112    bbb     C9   3273 -0.72423400  12.010000   ; qtot -0.312610
 3274         h1    112    bbb    H17   3274 0.25637600   1.008000   ; qtot -0.056234
 3275         h1    112    bbb    H18   3275 0.25637600   1.008000   ; qtot 0.200142
 3276         os    112    bbb     O1   3276 -0.20025300  16.000000   ; qtot -0.000111
; residue  113 bbb rtp bbb q -0.0
 3277         n3    113    bbb     N1   3277 -0.59685800  14.010000   ; qtot -0.596969
 3278         c3    113    bbb     C1   3278 0.10137000  12.010000   ; qtot -0.495599
 3279         h1    113    bbb     H1   3279 0.04411300   1.008000   ; qtot -0.451486
 3280         h1    113    bbb     H2   3280 0.04411300   1.008000   ; qtot -0.407373
 3281         c3    113    bbb     C2   3281 0.10137000  12.010000   ; qtot -0.306003
 3282         h1    113    bbb     H3   3282 0.04411300   1.008000   ; qtot -0.261890
 3283         h1    113    bbb     H4   3283 0.04411300   1.008000   ; qtot -0.217777
 3284         c3    113    bbb     C3   3284 -0.00195300  12.010000   ; qtot -0.219730
 3285         h1    113    bbb     H5   3285 0.05064400   1.008000   ; qtot -0.169086
 3286         h1    113    bbb     H6   3286 0.05064400   1.008000   ; qtot -0.118442
 3287         c3    113    bbb     C4   3287 -0.01612100  12.010000   ; qtot -0.134563
 3288         hc    113    bbb     H7   3288 0.04936100   1.008000   ; qtot -0.085202
 3289         hc    113    bbb     H8   3289 0.04936100   1.008000   ; qtot -0.035841
 3290         c3    113    bbb     C5   3290 0.11363000  12.010000   ; qtot 0.077789
 3291         hc    113    bbb     H9   3291 0.06265900   1.008000   ; qtot 0.140448
 3292         hc    113    bbb    H10   3292 0.06265900   1.008000   ; qtot 0.203107
 3293         c3    113    bbb     C6   3293 0.11363000  12.010000   ; qtot 0.316737
 3294         hc    113    bbb    H11   3294 0.06265900   1.008000   ; qtot 0.379396
 3295         hc    113    bbb    H12   3295 0.06265900   1.008000   ; qtot 0.442055
 3296         c3    113    bbb     C7   3296 0.05858200  12.010000   ; qtot 0.500637
 3297         h1    113    bbb    H13   3297 0.06123400   1.008000   ; qtot 0.561871
 3298         h1    113    bbb    H14   3298 0.06123400   1.008000   ; qtot 0.623105
 3299         c3    113    bbb     C8   3299 -0.72423400  12.010000   ; qtot -0.101129
 3300         h1    113    bbb    H15   3300 0.25637600   1.008000   ; qtot 0.155247
 3301         h1    113    bbb    H16   3301 0.25637600   1.008000   ; qtot 0.411623
 3302         c3    113    bbb     C9   3302 -0.72423400  12.010000   ; qtot -0.312611
 3303         h1    113    bbb    H17   3303 0.25637600   1.008000   ; qtot -0.056235
 3304         h1    113    bbb    H18   3304 0.25637600   1.008000   ; qtot 0.200141
 3305         os    113    bbb     O1   3305 -0.20025300  16.000000   ; qtot -0.000112
; residue  114 bbb rtp bbb q -0.0
 3306         n3    114    bbb     N1   3306 -0.59685800  14.010000   ; qtot -0.596970
 3307         c3    114    bbb     C1   3307 0.10137000  12.010000   ; qtot -0.495600
 3308         h1    114    bbb     H1   3308 0.04411300   1.008000   ; qtot -0.451487
 3309         h1    114    bbb     H2   3309 0.04411300   1.008000   ; qtot -0.407374
 3310         c3    114    bbb     C2   3310 0.10137000  12.010000   ; qtot -0.306004
 3311         h1    114    bbb     H3   3311 0.04411300   1.008000   ; qtot -0.261891
 3312         h1    114    bbb     H4   3312 0.04411300   1.008000   ; qtot -0.217778
 3313         c3    114    bbb     C3   3313 -0.00195300  12.010000   ; qtot -0.219731
 3314         h1    114    bbb     H5   3314 0.05064400   1.008000   ; qtot -0.169087
 3315         h1    114    bbb     H6   3315 0.05064400   1.008000   ; qtot -0.118443
 3316         c3    114    bbb     C4   3316 -0.01612100  12.010000   ; qtot -0.134564
 3317         hc    114    bbb     H7   3317 0.04936100   1.008000   ; qtot -0.085203
 3318         hc    114    bbb     H8   3318 0.04936100   1.008000   ; qtot -0.035842
 3319         c3    114    bbb     C5   3319 0.11363000  12.010000   ; qtot 0.077788
 3320         hc    114    bbb     H9   3320 0.06265900   1.008000   ; qtot 0.140447
 3321         hc    114    bbb    H10   3321 0.06265900   1.008000   ; qtot 0.203106
 3322         c3    114    bbb     C6   3322 0.11363000  12.010000   ; qtot 0.316736
 3323         hc    114    bbb    H11   3323 0.06265900   1.008000   ; qtot 0.379395
 3324         hc    114    bbb    H12   3324 0.06265900   1.008000   ; qtot 0.442054
 3325         c3    114    bbb     C7   3325 0.05858200  12.010000   ; qtot 0.500636
 3326         h1    114    bbb    H13   3326 0.06123400   1.008000   ; qtot 0.561870
 3327         h1    114    bbb    H14   3327 0.06123400   1.008000   ; qtot 0.623104
 3328         c3    114    bbb     C8   3328 -0.72423400  12.010000   ; qtot -0.101130
 3329         h1    114    bbb    H15   3329 0.25637600   1.008000   ; qtot 0.155246
 3330         h1    114    bbb    H16   3330 0.25637600   1.008000   ; qtot 0.411622
 3331         c3    114    bbb     C9   3331 -0.72423400  12.010000   ; qtot -0.312612
 3332         h1    114    bbb    H17   3332 0.25637600   1.008000   ; qtot -0.056236
 3333         h1    114    bbb    H18   3333 0.25637600   1.008000   ; qtot 0.200140
 3334         os    114    bbb     O1   3334 -0.20025300  16.000000   ; qtot -0.000113
; residue  115 bbb rtp bbb q -0.0
 3335         n3    115    bbb     N1   3335 -0.59685800  14.010000   ; qtot -0.596971
 3336         c3    115    bbb     C1   3336 0.10137000  12.010000   ; qtot -0.495601
 3337         h1    115    bbb     H1   3337 0.04411300   1.008000   ; qtot -0.451488
 3338         h1    115    bbb     H2   3338 0.04411300   1.008000   ; qtot -0.407375
 3339         c3    115    bbb     C2   3339 0.10137000  12.010000   ; qtot -0.306005
 3340         h1    115    bbb     H3   3340 0.04411300   1.008000   ; qtot -0.261892
 3341         h1    115    bbb     H4   3341 0.04411300   1.008000   ; qtot -0.217779
 3342         c3    115    bbb     C3   3342 -0.00195300  12.010000   ; qtot -0.219732
 3343         h1    115    bbb     H5   3343 0.05064400   1.008000   ; qtot -0.169088
 3344         h1    115    bbb     H6   3344 0.05064400   1.008000   ; qtot -0.118444
 3345         c3    115    bbb     C4   3345 -0.01612100  12.010000   ; qtot -0.134565
 3346         hc    115    bbb     H7   3346 0.04936100   1.008000   ; qtot -0.085204
 3347         hc    115    bbb     H8   3347 0.04936100   1.008000   ; qtot -0.035843
 3348         c3    115    bbb     C5   3348 0.11363000  12.010000   ; qtot 0.077787
 3349         hc    115    bbb     H9   3349 0.06265900   1.008000   ; qtot 0.140446
 3350         hc    115    bbb    H10   3350 0.06265900   1.008000   ; qtot 0.203105
 3351         c3    115    bbb     C6   3351 0.11363000  12.010000   ; qtot 0.316735
 3352         hc    115    bbb    H11   3352 0.06265900   1.008000   ; qtot 0.379394
 3353         hc    115    bbb    H12   3353 0.06265900   1.008000   ; qtot 0.442053
 3354         c3    115    bbb     C7   3354 0.05858200  12.010000   ; qtot 0.500635
 3355         h1    115    bbb    H13   3355 0.06123400   1.008000   ; qtot 0.561869
 3356         h1    115    bbb    H14   3356 0.06123400   1.008000   ; qtot 0.623103
 3357         c3    115    bbb     C8   3357 -0.72423400  12.010000   ; qtot -0.101131
 3358         h1    115    bbb    H15   3358 0.25637600   1.008000   ; qtot 0.155245
 3359         h1    115    bbb    H16   3359 0.25637600   1.008000   ; qtot 0.411621
 3360         c3    115    bbb     C9   3360 -0.72423400  12.010000   ; qtot -0.312613
 3361         h1    115    bbb    H17   3361 0.25637600   1.008000   ; qtot -0.056237
 3362         h1    115    bbb    H18   3362 0.25637600   1.008000   ; qtot 0.200139
 3363         os    115    bbb     O1   3363 -0.20025300  16.000000   ; qtot -0.000114
; residue  116 bbb rtp bbb q -0.0
 3364         n3    116    bbb     N1   3364 -0.59685800  14.010000   ; qtot -0.596972
 3365         c3    116    bbb     C1   3365 0.10137000  12.010000   ; qtot -0.495602
 3366         h1    116    bbb     H1   3366 0.04411300   1.008000   ; qtot -0.451489
 3367         h1    116    bbb     H2   3367 0.04411300   1.008000   ; qtot -0.407376
 3368         c3    116    bbb     C2   3368 0.10137000  12.010000   ; qtot -0.306006
 3369         h1    116    bbb     H3   3369 0.04411300   1.008000   ; qtot -0.261893
 3370         h1    116    bbb     H4   3370 0.04411300   1.008000   ; qtot -0.217780
 3371         c3    116    bbb     C3   3371 -0.00195300  12.010000   ; qtot -0.219733
 3372         h1    116    bbb     H5   3372 0.05064400   1.008000   ; qtot -0.169089
 3373         h1    116    bbb     H6   3373 0.05064400   1.008000   ; qtot -0.118445
 3374         c3    116    bbb     C4   3374 -0.01612100  12.010000   ; qtot -0.134566
 3375         hc    116    bbb     H7   3375 0.04936100   1.008000   ; qtot -0.085205
 3376         hc    116    bbb     H8   3376 0.04936100   1.008000   ; qtot -0.035844
 3377         c3    116    bbb     C5   3377 0.11363000  12.010000   ; qtot 0.077786
 3378         hc    116    bbb     H9   3378 0.06265900   1.008000   ; qtot 0.140445
 3379         hc    116    bbb    H10   3379 0.06265900   1.008000   ; qtot 0.203104
 3380         c3    116    bbb     C6   3380 0.11363000  12.010000   ; qtot 0.316734
 3381         hc    116    bbb    H11   3381 0.06265900   1.008000   ; qtot 0.379393
 3382         hc    116    bbb    H12   3382 0.06265900   1.008000   ; qtot 0.442052
 3383         c3    116    bbb     C7   3383 0.05858200  12.010000   ; qtot 0.500634
 3384         h1    116    bbb    H13   3384 0.06123400   1.008000   ; qtot 0.561868
 3385         h1    116    bbb    H14   3385 0.06123400   1.008000   ; qtot 0.623102
 3386         c3    116    bbb     C8   3386 -0.72423400  12.010000   ; qtot -0.101132
 3387         h1    116    bbb    H15   3387 0.25637600   1.008000   ; qtot 0.155244
 3388         h1    116    bbb    H16   3388 0.25637600   1.008000   ; qtot 0.411620
 3389         c3    116    bbb     C9   3389 -0.72423400  12.010000   ; qtot -0.312614
 3390         h1    116    bbb    H17   3390 0.25637600   1.008000   ; qtot -0.056238
 3391         h1    116    bbb    H18   3391 0.25637600   1.008000   ; qtot 0.200138
 3392         os    116    bbb     O1   3392 -0.20025300  16.000000   ; qtot -0.000115
; residue  117 bbb rtp bbb q -0.0
 3393         n3    117    bbb     N1   3393 -0.59685800  14.010000   ; qtot -0.596973
 3394         c3    117    bbb     C1   3394 0.10137000  12.010000   ; qtot -0.495603
 3395         h1    117    bbb     H1   3395 0.04411300   1.008000   ; qtot -0.451490
 3396         h1    117    bbb     H2   3396 0.04411300   1.008000   ; qtot -0.407377
 3397         c3    117    bbb     C2   3397 0.10137000  12.010000   ; qtot -0.306007
 3398         h1    117    bbb     H3   3398 0.04411300   1.008000   ; qtot -0.261894
 3399         h1    117    bbb     H4   3399 0.04411300   1.008000   ; qtot -0.217781
 3400         c3    117    bbb     C3   3400 -0.00195300  12.010000   ; qtot -0.219734
 3401         h1    117    bbb     H5   3401 0.05064400   1.008000   ; qtot -0.169090
 3402         h1    117    bbb     H6   3402 0.05064400   1.008000   ; qtot -0.118446
 3403         c3    117    bbb     C4   3403 -0.01612100  12.010000   ; qtot -0.134567
 3404         hc    117    bbb     H7   3404 0.04936100   1.008000   ; qtot -0.085206
 3405         hc    117    bbb     H8   3405 0.04936100   1.008000   ; qtot -0.035845
 3406         c3    117    bbb     C5   3406 0.11363000  12.010000   ; qtot 0.077785
 3407         hc    117    bbb     H9   3407 0.06265900   1.008000   ; qtot 0.140444
 3408         hc    117    bbb    H10   3408 0.06265900   1.008000   ; qtot 0.203103
 3409         c3    117    bbb     C6   3409 0.11363000  12.010000   ; qtot 0.316733
 3410         hc    117    bbb    H11   3410 0.06265900   1.008000   ; qtot 0.379392
 3411         hc    117    bbb    H12   3411 0.06265900   1.008000   ; qtot 0.442051
 3412         c3    117    bbb     C7   3412 0.05858200  12.010000   ; qtot 0.500633
 3413         h1    117    bbb    H13   3413 0.06123400   1.008000   ; qtot 0.561867
 3414         h1    117    bbb    H14   3414 0.06123400   1.008000   ; qtot 0.623101
 3415         c3    117    bbb     C8   3415 -0.72423400  12.010000   ; qtot -0.101133
 3416         h1    117    bbb    H15   3416 0.25637600   1.008000   ; qtot 0.155243
 3417         h1    117    bbb    H16   3417 0.25637600   1.008000   ; qtot 0.411619
 3418         c3    117    bbb     C9   3418 -0.72423400  12.010000   ; qtot -0.312615
 3419         h1    117    bbb    H17   3419 0.25637600   1.008000   ; qtot -0.056239
 3420         h1    117    bbb    H18   3420 0.25637600   1.008000   ; qtot 0.200137
 3421         os    117    bbb     O1   3421 -0.20025300  16.000000   ; qtot -0.000116
; residue  118 bbb rtp bbb q -0.0
 3422         n3    118    bbb     N1   3422 -0.59685800  14.010000   ; qtot -0.596974
 3423         c3    118    bbb     C1   3423 0.10137000  12.010000   ; qtot -0.495604
 3424         h1    118    bbb     H1   3424 0.04411300   1.008000   ; qtot -0.451491
 3425         h1    118    bbb     H2   3425 0.04411300   1.008000   ; qtot -0.407378
 3426         c3    118    bbb     C2   3426 0.10137000  12.010000   ; qtot -0.306008
 3427         h1    118    bbb     H3   3427 0.04411300   1.008000   ; qtot -0.261895
 3428         h1    118    bbb     H4   3428 0.04411300   1.008000   ; qtot -0.217782
 3429         c3    118    bbb     C3   3429 -0.00195300  12.010000   ; qtot -0.219735
 3430         h1    118    bbb     H5   3430 0.05064400   1.008000   ; qtot -0.169091
 3431         h1    118    bbb     H6   3431 0.05064400   1.008000   ; qtot -0.118447
 3432         c3    118    bbb     C4   3432 -0.01612100  12.010000   ; qtot -0.134568
 3433         hc    118    bbb     H7   3433 0.04936100   1.008000   ; qtot -0.085207
 3434         hc    118    bbb     H8   3434 0.04936100   1.008000   ; qtot -0.035846
 3435         c3    118    bbb     C5   3435 0.11363000  12.010000   ; qtot 0.077784
 3436         hc    118    bbb     H9   3436 0.06265900   1.008000   ; qtot 0.140443
 3437         hc    118    bbb    H10   3437 0.06265900   1.008000   ; qtot 0.203102
 3438         c3    118    bbb     C6   3438 0.11363000  12.010000   ; qtot 0.316732
 3439         hc    118    bbb    H11   3439 0.06265900   1.008000   ; qtot 0.379391
 3440         hc    118    bbb    H12   3440 0.06265900   1.008000   ; qtot 0.442050
 3441         c3    118    bbb     C7   3441 0.05858200  12.010000   ; qtot 0.500632
 3442         h1    118    bbb    H13   3442 0.06123400   1.008000   ; qtot 0.561866
 3443         h1    118    bbb    H14   3443 0.06123400   1.008000   ; qtot 0.623100
 3444         c3    118    bbb     C8   3444 -0.72423400  12.010000   ; qtot -0.101134
 3445         h1    118    bbb    H15   3445 0.25637600   1.008000   ; qtot 0.155242
 3446         h1    118    bbb    H16   3446 0.25637600   1.008000   ; qtot 0.411618
 3447         c3    118    bbb     C9   3447 -0.72423400  12.010000   ; qtot -0.312616
 3448         h1    118    bbb    H17   3448 0.25637600   1.008000   ; qtot -0.056240
 3449         h1    118    bbb    H18   3449 0.25637600   1.008000   ; qtot 0.200136
 3450         os    118    bbb     O1   3450 -0.20025300  16.000000   ; qtot -0.000117
; residue  119 bbb rtp bbb q -0.0
 3451         n3    119    bbb     N1   3451 -0.59685800  14.010000   ; qtot -0.596975
 3452         c3    119    bbb     C1   3452 0.10137000  12.010000   ; qtot -0.495605
 3453         h1    119    bbb     H1   3453 0.04411300   1.008000   ; qtot -0.451492
 3454         h1    119    bbb     H2   3454 0.04411300   1.008000   ; qtot -0.407379
 3455         c3    119    bbb     C2   3455 0.10137000  12.010000   ; qtot -0.306009
 3456         h1    119    bbb     H3   3456 0.04411300   1.008000   ; qtot -0.261896
 3457         h1    119    bbb     H4   3457 0.04411300   1.008000   ; qtot -0.217783
 3458         c3    119    bbb     C3   3458 -0.00195300  12.010000   ; qtot -0.219736
 3459         h1    119    bbb     H5   3459 0.05064400   1.008000   ; qtot -0.169092
 3460         h1    119    bbb     H6   3460 0.05064400   1.008000   ; qtot -0.118448
 3461         c3    119    bbb     C4   3461 -0.01612100  12.010000   ; qtot -0.134569
 3462         hc    119    bbb     H7   3462 0.04936100   1.008000   ; qtot -0.085208
 3463         hc    119    bbb     H8   3463 0.04936100   1.008000   ; qtot -0.035847
 3464         c3    119    bbb     C5   3464 0.11363000  12.010000   ; qtot 0.077783
 3465         hc    119    bbb     H9   3465 0.06265900   1.008000   ; qtot 0.140442
 3466         hc    119    bbb    H10   3466 0.06265900   1.008000   ; qtot 0.203101
 3467         c3    119    bbb     C6   3467 0.11363000  12.010000   ; qtot 0.316731
 3468         hc    119    bbb    H11   3468 0.06265900   1.008000   ; qtot 0.379390
 3469         hc    119    bbb    H12   3469 0.06265900   1.008000   ; qtot 0.442049
 3470         c3    119    bbb     C7   3470 0.05858200  12.010000   ; qtot 0.500631
 3471         h1    119    bbb    H13   3471 0.06123400   1.008000   ; qtot 0.561865
 3472         h1    119    bbb    H14   3472 0.06123400   1.008000   ; qtot 0.623099
 3473         c3    119    bbb     C8   3473 -0.72423400  12.010000   ; qtot -0.101135
 3474         h1    119    bbb    H15   3474 0.25637600   1.008000   ; qtot 0.155241
 3475         h1    119    bbb    H16   3475 0.25637600   1.008000   ; qtot 0.411617
 3476         c3    119    bbb     C9   3476 -0.72423400  12.010000   ; qtot -0.312617
 3477         h1    119    bbb    H17   3477 0.25637600   1.008000   ; qtot -0.056241
 3478         h1    119    bbb    H18   3478 0.25637600   1.008000   ; qtot 0.200135
 3479         os    119    bbb     O1   3479 -0.20025300  16.000000   ; qtot -0.000118
; residue  120 bbb rtp bbb q -0.0
 3480         n3    120    bbb     N1   3480 -0.59685800  14.010000   ; qtot -0.596976
 3481         c3    120    bbb     C1   3481 0.10137000  12.010000   ; qtot -0.495606
 3482         h1    120    bbb     H1   3482 0.04411300   1.008000   ; qtot -0.451493
 3483         h1    120    bbb     H2   3483 0.04411300   1.008000   ; qtot -0.407380
 3484         c3    120    bbb     C2   3484 0.10137000  12.010000   ; qtot -0.306010
 3485         h1    120    bbb     H3   3485 0.04411300   1.008000   ; qtot -0.261897
 3486         h1    120    bbb     H4   3486 0.04411300   1.008000   ; qtot -0.217784
 3487         c3    120    bbb     C3   3487 -0.00195300  12.010000   ; qtot -0.219737
 3488         h1    120    bbb     H5   3488 0.05064400   1.008000   ; qtot -0.169093
 3489         h1    120    bbb     H6   3489 0.05064400   1.008000   ; qtot -0.118449
 3490         c3    120    bbb     C4   3490 -0.01612100  12.010000   ; qtot -0.134570
 3491         hc    120    bbb     H7   3491 0.04936100   1.008000   ; qtot -0.085209
 3492         hc    120    bbb     H8   3492 0.04936100   1.008000   ; qtot -0.035848
 3493         c3    120    bbb     C5   3493 0.11363000  12.010000   ; qtot 0.077782
 3494         hc    120    bbb     H9   3494 0.06265900   1.008000   ; qtot 0.140441
 3495         hc    120    bbb    H10   3495 0.06265900   1.008000   ; qtot 0.203100
 3496         c3    120    bbb     C6   3496 0.11363000  12.010000   ; qtot 0.316730
 3497         hc    120    bbb    H11   3497 0.06265900   1.008000   ; qtot 0.379389
 3498         hc    120    bbb    H12   3498 0.06265900   1.008000   ; qtot 0.442048
 3499         c3    120    bbb     C7   3499 0.05858200  12.010000   ; qtot 0.500630
 3500         h1    120    bbb    H13   3500 0.06123400   1.008000   ; qtot 0.561864
 3501         h1    120    bbb    H14   3501 0.06123400   1.008000   ; qtot 0.623098
 3502         c3    120    bbb     C8   3502 -0.72423400  12.010000   ; qtot -0.101136
 3503         h1    120    bbb    H15   3503 0.25637600   1.008000   ; qtot 0.155240
 3504         h1    120    bbb    H16   3504 0.25637600   1.008000   ; qtot 0.411616
 3505         c3    120    bbb     C9   3505 -0.72423400  12.010000   ; qtot -0.312618
 3506         h1    120    bbb    H17   3506 0.25637600   1.008000   ; qtot -0.056242
 3507         h1    120    bbb    H18   3507 0.25637600   1.008000   ; qtot 0.200134
 3508         os    120    bbb     O1   3508 -0.20025300  16.000000   ; qtot -0.000119
; residue  121 bbb rtp bbb q -0.0
 3509         n3    121    bbb     N1   3509 -0.59685800  14.010000   ; qtot -0.596977
 3510         c3    121    bbb     C1   3510 0.10137000  12.010000   ; qtot -0.495607
 3511         h1    121    bbb     H1   3511 0.04411300   1.008000   ; qtot -0.451494
 3512         h1    121    bbb     H2   3512 0.04411300   1.008000   ; qtot -0.407381
 3513         c3    121    bbb     C2   3513 0.10137000  12.010000   ; qtot -0.306011
 3514         h1    121    bbb     H3   3514 0.04411300   1.008000   ; qtot -0.261898
 3515         h1    121    bbb     H4   3515 0.04411300   1.008000   ; qtot -0.217785
 3516         c3    121    bbb     C3   3516 -0.00195300  12.010000   ; qtot -0.219738
 3517         h1    121    bbb     H5   3517 0.05064400   1.008000   ; qtot -0.169094
 3518         h1    121    bbb     H6   3518 0.05064400   1.008000   ; qtot -0.118450
 3519         c3    121    bbb     C4   3519 -0.01612100  12.010000   ; qtot -0.134571
 3520         hc    121    bbb     H7   3520 0.04936100   1.008000   ; qtot -0.085210
 3521         hc    121    bbb     H8   3521 0.04936100   1.008000   ; qtot -0.035849
 3522         c3    121    bbb     C5   3522 0.11363000  12.010000   ; qtot 0.077781
 3523         hc    121    bbb     H9   3523 0.06265900   1.008000   ; qtot 0.140440
 3524         hc    121    bbb    H10   3524 0.06265900   1.008000   ; qtot 0.203099
 3525         c3    121    bbb     C6   3525 0.11363000  12.010000   ; qtot 0.316729
 3526         hc    121    bbb    H11   3526 0.06265900   1.008000   ; qtot 0.379388
 3527         hc    121    bbb    H12   3527 0.06265900   1.008000   ; qtot 0.442047
 3528         c3    121    bbb     C7   3528 0.05858200  12.010000   ; qtot 0.500629
 3529         h1    121    bbb    H13   3529 0.06123400   1.008000   ; qtot 0.561863
 3530         h1    121    bbb    H14   3530 0.06123400   1.008000   ; qtot 0.623097
 3531         c3    121    bbb     C8   3531 -0.72423400  12.010000   ; qtot -0.101137
 3532         h1    121    bbb    H15   3532 0.25637600   1.008000   ; qtot 0.155239
 3533         h1    121    bbb    H16   3533 0.25637600   1.008000   ; qtot 0.411615
 3534         c3    121    bbb     C9   3534 -0.72423400  12.010000   ; qtot -0.312619
 3535         h1    121    bbb    H17   3535 0.25637600   1.008000   ; qtot -0.056243
 3536         h1    121    bbb    H18   3536 0.25637600   1.008000   ; qtot 0.200133
 3537         os    121    bbb     O1   3537 -0.20025300  16.000000   ; qtot -0.000120
; residue  122 bbb rtp bbb q -0.0
 3538         n3    122    bbb     N1   3538 -0.59685800  14.010000   ; qtot -0.596978
 3539         c3    122    bbb     C1   3539 0.10137000  12.010000   ; qtot -0.495608
 3540         h1    122    bbb     H1   3540 0.04411300   1.008000   ; qtot -0.451495
 3541         h1    122    bbb     H2   3541 0.04411300   1.008000   ; qtot -0.407382
 3542         c3    122    bbb     C2   3542 0.10137000  12.010000   ; qtot -0.306012
 3543         h1    122    bbb     H3   3543 0.04411300   1.008000   ; qtot -0.261899
 3544         h1    122    bbb     H4   3544 0.04411300   1.008000   ; qtot -0.217786
 3545         c3    122    bbb     C3   3545 -0.00195300  12.010000   ; qtot -0.219739
 3546         h1    122    bbb     H5   3546 0.05064400   1.008000   ; qtot -0.169095
 3547         h1    122    bbb     H6   3547 0.05064400   1.008000   ; qtot -0.118451
 3548         c3    122    bbb     C4   3548 -0.01612100  12.010000   ; qtot -0.134572
 3549         hc    122    bbb     H7   3549 0.04936100   1.008000   ; qtot -0.085211
 3550         hc    122    bbb     H8   3550 0.04936100   1.008000   ; qtot -0.035850
 3551         c3    122    bbb     C5   3551 0.11363000  12.010000   ; qtot 0.077780
 3552         hc    122    bbb     H9   3552 0.06265900   1.008000   ; qtot 0.140439
 3553         hc    122    bbb    H10   3553 0.06265900   1.008000   ; qtot 0.203098
 3554         c3    122    bbb     C6   3554 0.11363000  12.010000   ; qtot 0.316728
 3555         hc    122    bbb    H11   3555 0.06265900   1.008000   ; qtot 0.379387
 3556         hc    122    bbb    H12   3556 0.06265900   1.008000   ; qtot 0.442046
 3557         c3    122    bbb     C7   3557 0.05858200  12.010000   ; qtot 0.500628
 3558         h1    122    bbb    H13   3558 0.06123400   1.008000   ; qtot 0.561862
 3559         h1    122    bbb    H14   3559 0.06123400   1.008000   ; qtot 0.623096
 3560         c3    122    bbb     C8   3560 -0.72423400  12.010000   ; qtot -0.101138
 3561         h1    122    bbb    H15   3561 0.25637600   1.008000   ; qtot 0.155238
 3562         h1    122    bbb    H16   3562 0.25637600   1.008000   ; qtot 0.411614
 3563         c3    122    bbb     C9   3563 -0.72423400  12.010000   ; qtot -0.312620
 3564         h1    122    bbb    H17   3564 0.25637600   1.008000   ; qtot -0.056244
 3565         h1    122    bbb    H18   3565 0.25637600   1.008000   ; qtot 0.200132
 3566         os    122    bbb     O1   3566 -0.20025300  16.000000   ; qtot -0.000121
; residue  123 bbb rtp bbb q -0.0
 3567         n3    123    bbb     N1   3567 -0.59685800  14.010000   ; qtot -0.596979
 3568         c3    123    bbb     C1   3568 0.10137000  12.010000   ; qtot -0.495609
 3569         h1    123    bbb     H1   3569 0.04411300   1.008000   ; qtot -0.451496
 3570         h1    123    bbb     H2   3570 0.04411300   1.008000   ; qtot -0.407383
 3571         c3    123    bbb     C2   3571 0.10137000  12.010000   ; qtot -0.306013
 3572         h1    123    bbb     H3   3572 0.04411300   1.008000   ; qtot -0.261900
 3573         h1    123    bbb     H4   3573 0.04411300   1.008000   ; qtot -0.217787
 3574         c3    123    bbb     C3   3574 -0.00195300  12.010000   ; qtot -0.219740
 3575         h1    123    bbb     H5   3575 0.05064400   1.008000   ; qtot -0.169096
 3576         h1    123    bbb     H6   3576 0.05064400   1.008000   ; qtot -0.118452
 3577         c3    123    bbb     C4   3577 -0.01612100  12.010000   ; qtot -0.134573
 3578         hc    123    bbb     H7   3578 0.04936100   1.008000   ; qtot -0.085212
 3579         hc    123    bbb     H8   3579 0.04936100   1.008000   ; qtot -0.035851
 3580         c3    123    bbb     C5   3580 0.11363000  12.010000   ; qtot 0.077779
 3581         hc    123    bbb     H9   3581 0.06265900   1.008000   ; qtot 0.140438
 3582         hc    123    bbb    H10   3582 0.06265900   1.008000   ; qtot 0.203097
 3583         c3    123    bbb     C6   3583 0.11363000  12.010000   ; qtot 0.316727
 3584         hc    123    bbb    H11   3584 0.06265900   1.008000   ; qtot 0.379386
 3585         hc    123    bbb    H12   3585 0.06265900   1.008000   ; qtot 0.442045
 3586         c3    123    bbb     C7   3586 0.05858200  12.010000   ; qtot 0.500627
 3587         h1    123    bbb    H13   3587 0.06123400   1.008000   ; qtot 0.561861
 3588         h1    123    bbb    H14   3588 0.06123400   1.008000   ; qtot 0.623095
 3589         c3    123    bbb     C8   3589 -0.72423400  12.010000   ; qtot -0.101139
 3590         h1    123    bbb    H15   3590 0.25637600   1.008000   ; qtot 0.155237
 3591         h1    123    bbb    H16   3591 0.25637600   1.008000   ; qtot 0.411613
 3592         c3    123    bbb     C9   3592 -0.72423400  12.010000   ; qtot -0.312621
 3593         h1    123    bbb    H17   3593 0.25637600   1.008000   ; qtot -0.056245
 3594         h1    123    bbb    H18   3594 0.25637600   1.008000   ; qtot 0.200131
 3595         os    123    bbb     O1   3595 -0.20025300  16.000000   ; qtot -0.000122
; residue  124 bbb rtp bbb q -0.0
 3596         n3    124    bbb     N1   3596 -0.59685800  14.010000   ; qtot -0.596980
 3597         c3    124    bbb     C1   3597 0.10137000  12.010000   ; qtot -0.495610
 3598         h1    124    bbb     H1   3598 0.04411300   1.008000   ; qtot -0.451497
 3599         h1    124    bbb     H2   3599 0.04411300   1.008000   ; qtot -0.407384
 3600         c3    124    bbb     C2   3600 0.10137000  12.010000   ; qtot -0.306014
 3601         h1    124    bbb     H3   3601 0.04411300   1.008000   ; qtot -0.261901
 3602         h1    124    bbb     H4   3602 0.04411300   1.008000   ; qtot -0.217788
 3603         c3    124    bbb     C3   3603 -0.00195300  12.010000   ; qtot -0.219741
 3604         h1    124    bbb     H5   3604 0.05064400   1.008000   ; qtot -0.169097
 3605         h1    124    bbb     H6   3605 0.05064400   1.008000   ; qtot -0.118453
 3606         c3    124    bbb     C4   3606 -0.01612100  12.010000   ; qtot -0.134574
 3607         hc    124    bbb     H7   3607 0.04936100   1.008000   ; qtot -0.085213
 3608         hc    124    bbb     H8   3608 0.04936100   1.008000   ; qtot -0.035852
 3609         c3    124    bbb     C5   3609 0.11363000  12.010000   ; qtot 0.077778
 3610         hc    124    bbb     H9   3610 0.06265900   1.008000   ; qtot 0.140437
 3611         hc    124    bbb    H10   3611 0.06265900   1.008000   ; qtot 0.203096
 3612         c3    124    bbb     C6   3612 0.11363000  12.010000   ; qtot 0.316726
 3613         hc    124    bbb    H11   3613 0.06265900   1.008000   ; qtot 0.379385
 3614         hc    124    bbb    H12   3614 0.06265900   1.008000   ; qtot 0.442044
 3615         c3    124    bbb     C7   3615 0.05858200  12.010000   ; qtot 0.500626
 3616         h1    124    bbb    H13   3616 0.06123400   1.008000   ; qtot 0.561860
 3617         h1    124    bbb    H14   3617 0.06123400   1.008000   ; qtot 0.623094
 3618         c3    124    bbb     C8   3618 -0.72423400  12.010000   ; qtot -0.101139
 3619         h1    124    bbb    H15   3619 0.25637600   1.008000   ; qtot 0.155237
 3620         h1    124    bbb    H16   3620 0.25637600   1.008000   ; qtot 0.411613
 3621         c3    124    bbb     C9   3621 -0.72423400  12.010000   ; qtot -0.312621
 3622         h1    124    bbb    H17   3622 0.25637600   1.008000   ; qtot -0.056245
 3623         h1    124    bbb    H18   3623 0.25637600   1.008000   ; qtot 0.200131
 3624         os    124    bbb     O1   3624 -0.20025300  16.000000   ; qtot -0.000122
; residue  125 bbb rtp bbb q -0.0
 3625         n3    125    bbb     N1   3625 -0.59685800  14.010000   ; qtot -0.596980
 3626         c3    125    bbb     C1   3626 0.10137000  12.010000   ; qtot -0.495610
 3627         h1    125    bbb     H1   3627 0.04411300   1.008000   ; qtot -0.451497
 3628         h1    125    bbb     H2   3628 0.04411300   1.008000   ; qtot -0.407384
 3629         c3    125    bbb     C2   3629 0.10137000  12.010000   ; qtot -0.306014
 3630         h1    125    bbb     H3   3630 0.04411300   1.008000   ; qtot -0.261901
 3631         h1    125    bbb     H4   3631 0.04411300   1.008000   ; qtot -0.217788
 3632         c3    125    bbb     C3   3632 -0.00195300  12.010000   ; qtot -0.219741
 3633         h1    125    bbb     H5   3633 0.05064400   1.008000   ; qtot -0.169097
 3634         h1    125    bbb     H6   3634 0.05064400   1.008000   ; qtot -0.118453
 3635         c3    125    bbb     C4   3635 -0.01612100  12.010000   ; qtot -0.134574
 3636         hc    125    bbb     H7   3636 0.04936100   1.008000   ; qtot -0.085213
 3637         hc    125    bbb     H8   3637 0.04936100   1.008000   ; qtot -0.035852
 3638         c3    125    bbb     C5   3638 0.11363000  12.010000   ; qtot 0.077778
 3639         hc    125    bbb     H9   3639 0.06265900   1.008000   ; qtot 0.140437
 3640         hc    125    bbb    H10   3640 0.06265900   1.008000   ; qtot 0.203096
 3641         c3    125    bbb     C6   3641 0.11363000  12.010000   ; qtot 0.316726
 3642         hc    125    bbb    H11   3642 0.06265900   1.008000   ; qtot 0.379385
 3643         hc    125    bbb    H12   3643 0.06265900   1.008000   ; qtot 0.442044
 3644         c3    125    bbb     C7   3644 0.05858200  12.010000   ; qtot 0.500626
 3645         h1    125    bbb    H13   3645 0.06123400   1.008000   ; qtot 0.561860
 3646         h1    125    bbb    H14   3646 0.06123400   1.008000   ; qtot 0.623094
 3647         c3    125    bbb     C8   3647 -0.72423400  12.010000   ; qtot -0.101140
 3648         h1    125    bbb    H15   3648 0.25637600   1.008000   ; qtot 0.155236
 3649         h1    125    bbb    H16   3649 0.25637600   1.008000   ; qtot 0.411612
 3650         c3    125    bbb     C9   3650 -0.72423400  12.010000   ; qtot -0.312622
 3651         h1    125    bbb    H17   3651 0.25637600   1.008000   ; qtot -0.056246
 3652         h1    125    bbb    H18   3652 0.25637600   1.008000   ; qtot 0.200130
 3653         os    125    bbb     O1   3653 -0.20025300  16.000000   ; qtot -0.000123
; residue  126 bbb rtp bbb q -0.0
 3654         n3    126    bbb     N1   3654 -0.59685800  14.010000   ; qtot -0.596981
 3655         c3    126    bbb     C1   3655 0.10137000  12.010000   ; qtot -0.495611
 3656         h1    126    bbb     H1   3656 0.04411300   1.008000   ; qtot -0.451498
 3657         h1    126    bbb     H2   3657 0.04411300   1.008000   ; qtot -0.407385
 3658         c3    126    bbb     C2   3658 0.10137000  12.010000   ; qtot -0.306015
 3659         h1    126    bbb     H3   3659 0.04411300   1.008000   ; qtot -0.261902
 3660         h1    126    bbb     H4   3660 0.04411300   1.008000   ; qtot -0.217789
 3661         c3    126    bbb     C3   3661 -0.00195300  12.010000   ; qtot -0.219742
 3662         h1    126    bbb     H5   3662 0.05064400   1.008000   ; qtot -0.169098
 3663         h1    126    bbb     H6   3663 0.05064400   1.008000   ; qtot -0.118454
 3664         c3    126    bbb     C4   3664 -0.01612100  12.010000   ; qtot -0.134575
 3665         hc    126    bbb     H7   3665 0.04936100   1.008000   ; qtot -0.085214
 3666         hc    126    bbb     H8   3666 0.04936100   1.008000   ; qtot -0.035853
 3667         c3    126    bbb     C5   3667 0.11363000  12.010000   ; qtot 0.077777
 3668         hc    126    bbb     H9   3668 0.06265900   1.008000   ; qtot 0.140436
 3669         hc    126    bbb    H10   3669 0.06265900   1.008000   ; qtot 0.203095
 3670         c3    126    bbb     C6   3670 0.11363000  12.010000   ; qtot 0.316725
 3671         hc    126    bbb    H11   3671 0.06265900   1.008000   ; qtot 0.379384
 3672         hc    126    bbb    H12   3672 0.06265900   1.008000   ; qtot 0.442043
 3673         c3    126    bbb     C7   3673 0.05858200  12.010000   ; qtot 0.500625
 3674         h1    126    bbb    H13   3674 0.06123400   1.008000   ; qtot 0.561859
 3675         h1    126    bbb    H14   3675 0.06123400   1.008000   ; qtot 0.623093
 3676         c3    126    bbb     C8   3676 -0.72423400  12.010000   ; qtot -0.101141
 3677         h1    126    bbb    H15   3677 0.25637600   1.008000   ; qtot 0.155235
 3678         h1    126    bbb    H16   3678 0.25637600   1.008000   ; qtot 0.411611
 3679         c3    126    bbb     C9   3679 -0.72423400  12.010000   ; qtot -0.312623
 3680         h1    126    bbb    H17   3680 0.25637600   1.008000   ; qtot -0.056247
 3681         h1    126    bbb    H18   3681 0.25637600   1.008000   ; qtot 0.200129
 3682         os    126    bbb     O1   3682 -0.20025300  16.000000   ; qtot -0.000124
; residue  127 bbb rtp bbb q -0.0
 3683         n3    127    bbb     N1   3683 -0.59685800  14.010000   ; qtot -0.596982
 3684         c3    127    bbb     C1   3684 0.10137000  12.010000   ; qtot -0.495612
 3685         h1    127    bbb     H1   3685 0.04411300   1.008000   ; qtot -0.451499
 3686         h1    127    bbb     H2   3686 0.04411300   1.008000   ; qtot -0.407386
 3687         c3    127    bbb     C2   3687 0.10137000  12.010000   ; qtot -0.306016
 3688         h1    127    bbb     H3   3688 0.04411300   1.008000   ; qtot -0.261903
 3689         h1    127    bbb     H4   3689 0.04411300   1.008000   ; qtot -0.217790
 3690         c3    127    bbb     C3   3690 -0.00195300  12.010000   ; qtot -0.219743
 3691         h1    127    bbb     H5   3691 0.05064400   1.008000   ; qtot -0.169099
 3692         h1    127    bbb     H6   3692 0.05064400   1.008000   ; qtot -0.118455
 3693         c3    127    bbb     C4   3693 -0.01612100  12.010000   ; qtot -0.134576
 3694         hc    127    bbb     H7   3694 0.04936100   1.008000   ; qtot -0.085215
 3695         hc    127    bbb     H8   3695 0.04936100   1.008000   ; qtot -0.035854
 3696         c3    127    bbb     C5   3696 0.11363000  12.010000   ; qtot 0.077776
 3697         hc    127    bbb     H9   3697 0.06265900   1.008000   ; qtot 0.140435
 3698         hc    127    bbb    H10   3698 0.06265900   1.008000   ; qtot 0.203094
 3699         c3    127    bbb     C6   3699 0.11363000  12.010000   ; qtot 0.316724
 3700         hc    127    bbb    H11   3700 0.06265900   1.008000   ; qtot 0.379383
 3701         hc    127    bbb    H12   3701 0.06265900   1.008000   ; qtot 0.442042
 3702         c3    127    bbb     C7   3702 0.05858200  12.010000   ; qtot 0.500624
 3703         h1    127    bbb    H13   3703 0.06123400   1.008000   ; qtot 0.561858
 3704         h1    127    bbb    H14   3704 0.06123400   1.008000   ; qtot 0.623092
 3705         c3    127    bbb     C8   3705 -0.72423400  12.010000   ; qtot -0.101142
 3706         h1    127    bbb    H15   3706 0.25637600   1.008000   ; qtot 0.155234
 3707         h1    127    bbb    H16   3707 0.25637600   1.008000   ; qtot 0.411610
 3708         c3    127    bbb     C9   3708 -0.72423400  12.010000   ; qtot -0.312624
 3709         h1    127    bbb    H17   3709 0.25637600   1.008000   ; qtot -0.056248
 3710         h1    127    bbb    H18   3710 0.25637600   1.008000   ; qtot 0.200128
 3711         os    127    bbb     O1   3711 -0.20025300  16.000000   ; qtot -0.000125
; residue  128 bbb rtp bbb q -0.0
 3712         n3    128    bbb     N1   3712 -0.59685800  14.010000   ; qtot -0.596983
 3713         c3    128    bbb     C1   3713 0.10137000  12.010000   ; qtot -0.495613
 3714         h1    128    bbb     H1   3714 0.04411300   1.008000   ; qtot -0.451500
 3715         h1    128    bbb     H2   3715 0.04411300   1.008000   ; qtot -0.407387
 3716         c3    128    bbb     C2   3716 0.10137000  12.010000   ; qtot -0.306017
 3717         h1    128    bbb     H3   3717 0.04411300   1.008000   ; qtot -0.261904
 3718         h1    128    bbb     H4   3718 0.04411300   1.008000   ; qtot -0.217791
 3719         c3    128    bbb     C3   3719 -0.00195300  12.010000   ; qtot -0.219744
 3720         h1    128    bbb     H5   3720 0.05064400   1.008000   ; qtot -0.169100
 3721         h1    128    bbb     H6   3721 0.05064400   1.008000   ; qtot -0.118456
 3722         c3    128    bbb     C4   3722 -0.01612100  12.010000   ; qtot -0.134577
 3723         hc    128    bbb     H7   3723 0.04936100   1.008000   ; qtot -0.085216
 3724         hc    128    bbb     H8   3724 0.04936100   1.008000   ; qtot -0.035855
 3725         c3    128    bbb     C5   3725 0.11363000  12.010000   ; qtot 0.077775
 3726         hc    128    bbb     H9   3726 0.06265900   1.008000   ; qtot 0.140434
 3727         hc    128    bbb    H10   3727 0.06265900   1.008000   ; qtot 0.203093
 3728         c3    128    bbb     C6   3728 0.11363000  12.010000   ; qtot 0.316723
 3729         hc    128    bbb    H11   3729 0.06265900   1.008000   ; qtot 0.379382
 3730         hc    128    bbb    H12   3730 0.06265900   1.008000   ; qtot 0.442041
 3731         c3    128    bbb     C7   3731 0.05858200  12.010000   ; qtot 0.500623
 3732         h1    128    bbb    H13   3732 0.06123400   1.008000   ; qtot 0.561857
 3733         h1    128    bbb    H14   3733 0.06123400   1.008000   ; qtot 0.623091
 3734         c3    128    bbb     C8   3734 -0.72423400  12.010000   ; qtot -0.101143
 3735         h1    128    bbb    H15   3735 0.25637600   1.008000   ; qtot 0.155233
 3736         h1    128    bbb    H16   3736 0.25637600   1.008000   ; qtot 0.411609
 3737         c3    128    bbb     C9   3737 -0.72423400  12.010000   ; qtot -0.312625
 3738         h1    128    bbb    H17   3738 0.25637600   1.008000   ; qtot -0.056249
 3739         h1    128    bbb    H18   3739 0.25637600   1.008000   ; qtot 0.200127
 3740         os    128    bbb     O1   3740 -0.20025300  16.000000   ; qtot -0.000126
; residue  129 bbb rtp bbb q -0.0
 3741         n3    129    bbb     N1   3741 -0.59685800  14.010000   ; qtot -0.596984
 3742         c3    129    bbb     C1   3742 0.10137000  12.010000   ; qtot -0.495614
 3743         h1    129    bbb     H1   3743 0.04411300   1.008000   ; qtot -0.451501
 3744         h1    129    bbb     H2   3744 0.04411300   1.008000   ; qtot -0.407388
 3745         c3    129    bbb     C2   3745 0.10137000  12.010000   ; qtot -0.306018
 3746         h1    129    bbb     H3   3746 0.04411300   1.008000   ; qtot -0.261905
 3747         h1    129    bbb     H4   3747 0.04411300   1.008000   ; qtot -0.217792
 3748         c3    129    bbb     C3   3748 -0.00195300  12.010000   ; qtot -0.219745
 3749         h1    129    bbb     H5   3749 0.05064400   1.008000   ; qtot -0.169101
 3750         h1    129    bbb     H6   3750 0.05064400   1.008000   ; qtot -0.118457
 3751         c3    129    bbb     C4   3751 -0.01612100  12.010000   ; qtot -0.134578
 3752         hc    129    bbb     H7   3752 0.04936100   1.008000   ; qtot -0.085217
 3753         hc    129    bbb     H8   3753 0.04936100   1.008000   ; qtot -0.035856
 3754         c3    129    bbb     C5   3754 0.11363000  12.010000   ; qtot 0.077774
 3755         hc    129    bbb     H9   3755 0.06265900   1.008000   ; qtot 0.140433
 3756         hc    129    bbb    H10   3756 0.06265900   1.008000   ; qtot 0.203092
 3757         c3    129    bbb     C6   3757 0.11363000  12.010000   ; qtot 0.316722
 3758         hc    129    bbb    H11   3758 0.06265900   1.008000   ; qtot 0.379381
 3759         hc    129    bbb    H12   3759 0.06265900   1.008000   ; qtot 0.442040
 3760         c3    129    bbb     C7   3760 0.05858200  12.010000   ; qtot 0.500622
 3761         h1    129    bbb    H13   3761 0.06123400   1.008000   ; qtot 0.561856
 3762         h1    129    bbb    H14   3762 0.06123400   1.008000   ; qtot 0.623090
 3763         c3    129    bbb     C8   3763 -0.72423400  12.010000   ; qtot -0.101144
 3764         h1    129    bbb    H15   3764 0.25637600   1.008000   ; qtot 0.155232
 3765         h1    129    bbb    H16   3765 0.25637600   1.008000   ; qtot 0.411608
 3766         c3    129    bbb     C9   3766 -0.72423400  12.010000   ; qtot -0.312626
 3767         h1    129    bbb    H17   3767 0.25637600   1.008000   ; qtot -0.056250
 3768         h1    129    bbb    H18   3768 0.25637600   1.008000   ; qtot 0.200126
 3769         os    129    bbb     O1   3769 -0.20025300  16.000000   ; qtot -0.000127
; residue  130 bbb rtp bbb q -0.0
 3770         n3    130    bbb     N1   3770 -0.59685800  14.010000   ; qtot -0.596985
 3771         c3    130    bbb     C1   3771 0.10137000  12.010000   ; qtot -0.495615
 3772         h1    130    bbb     H1   3772 0.04411300   1.008000   ; qtot -0.451502
 3773         h1    130    bbb     H2   3773 0.04411300   1.008000   ; qtot -0.407389
 3774         c3    130    bbb     C2   3774 0.10137000  12.010000   ; qtot -0.306019
 3775         h1    130    bbb     H3   3775 0.04411300   1.008000   ; qtot -0.261906
 3776         h1    130    bbb     H4   3776 0.04411300   1.008000   ; qtot -0.217793
 3777         c3    130    bbb     C3   3777 -0.00195300  12.010000   ; qtot -0.219746
 3778         h1    130    bbb     H5   3778 0.05064400   1.008000   ; qtot -0.169102
 3779         h1    130    bbb     H6   3779 0.05064400   1.008000   ; qtot -0.118458
 3780         c3    130    bbb     C4   3780 -0.01612100  12.010000   ; qtot -0.134579
 3781         hc    130    bbb     H7   3781 0.04936100   1.008000   ; qtot -0.085218
 3782         hc    130    bbb     H8   3782 0.04936100   1.008000   ; qtot -0.035857
 3783         c3    130    bbb     C5   3783 0.11363000  12.010000   ; qtot 0.077773
 3784         hc    130    bbb     H9   3784 0.06265900   1.008000   ; qtot 0.140432
 3785         hc    130    bbb    H10   3785 0.06265900   1.008000   ; qtot 0.203091
 3786         c3    130    bbb     C6   3786 0.11363000  12.010000   ; qtot 0.316721
 3787         hc    130    bbb    H11   3787 0.06265900   1.008000   ; qtot 0.379380
 3788         hc    130    bbb    H12   3788 0.06265900   1.008000   ; qtot 0.442039
 3789         c3    130    bbb     C7   3789 0.05858200  12.010000   ; qtot 0.500621
 3790         h1    130    bbb    H13   3790 0.06123400   1.008000   ; qtot 0.561855
 3791         h1    130    bbb    H14   3791 0.06123400   1.008000   ; qtot 0.623089
 3792         c3    130    bbb     C8   3792 -0.72423400  12.010000   ; qtot -0.101145
 3793         h1    130    bbb    H15   3793 0.25637600   1.008000   ; qtot 0.155231
 3794         h1    130    bbb    H16   3794 0.25637600   1.008000   ; qtot 0.411607
 3795         c3    130    bbb     C9   3795 -0.72423400  12.010000   ; qtot -0.312627
 3796         h1    130    bbb    H17   3796 0.25637600   1.008000   ; qtot -0.056251
 3797         h1    130    bbb    H18   3797 0.25637600   1.008000   ; qtot 0.200125
 3798         os    130    bbb     O1   3798 -0.20025300  16.000000   ; qtot -0.000128
; residue  131 bbb rtp bbb q -0.0
 3799         n3    131    bbb     N1   3799 -0.59685800  14.010000   ; qtot -0.596986
 3800         c3    131    bbb     C1   3800 0.10137000  12.010000   ; qtot -0.495616
 3801         h1    131    bbb     H1   3801 0.04411300   1.008000   ; qtot -0.451503
 3802         h1    131    bbb     H2   3802 0.04411300   1.008000   ; qtot -0.407390
 3803         c3    131    bbb     C2   3803 0.10137000  12.010000   ; qtot -0.306020
 3804         h1    131    bbb     H3   3804 0.04411300   1.008000   ; qtot -0.261907
 3805         h1    131    bbb     H4   3805 0.04411300   1.008000   ; qtot -0.217794
 3806         c3    131    bbb     C3   3806 -0.00195300  12.010000   ; qtot -0.219747
 3807         h1    131    bbb     H5   3807 0.05064400   1.008000   ; qtot -0.169103
 3808         h1    131    bbb     H6   3808 0.05064400   1.008000   ; qtot -0.118459
 3809         c3    131    bbb     C4   3809 -0.01612100  12.010000   ; qtot -0.134580
 3810         hc    131    bbb     H7   3810 0.04936100   1.008000   ; qtot -0.085219
 3811         hc    131    bbb     H8   3811 0.04936100   1.008000   ; qtot -0.035858
 3812         c3    131    bbb     C5   3812 0.11363000  12.010000   ; qtot 0.077772
 3813         hc    131    bbb     H9   3813 0.06265900   1.008000   ; qtot 0.140431
 3814         hc    131    bbb    H10   3814 0.06265900   1.008000   ; qtot 0.203090
 3815         c3    131    bbb     C6   3815 0.11363000  12.010000   ; qtot 0.316720
 3816         hc    131    bbb    H11   3816 0.06265900   1.008000   ; qtot 0.379379
 3817         hc    131    bbb    H12   3817 0.06265900   1.008000   ; qtot 0.442038
 3818         c3    131    bbb     C7   3818 0.05858200  12.010000   ; qtot 0.500620
 3819         h1    131    bbb    H13   3819 0.06123400   1.008000   ; qtot 0.561854
 3820         h1    131    bbb    H14   3820 0.06123400   1.008000   ; qtot 0.623088
 3821         c3    131    bbb     C8   3821 -0.72423400  12.010000   ; qtot -0.101146
 3822         h1    131    bbb    H15   3822 0.25637600   1.008000   ; qtot 0.155230
 3823         h1    131    bbb    H16   3823 0.25637600   1.008000   ; qtot 0.411606
 3824         c3    131    bbb     C9   3824 -0.72423400  12.010000   ; qtot -0.312628
 3825         h1    131    bbb    H17   3825 0.25637600   1.008000   ; qtot -0.056252
 3826         h1    131    bbb    H18   3826 0.25637600   1.008000   ; qtot 0.200124
 3827         os    131    bbb     O1   3827 -0.20025300  16.000000   ; qtot -0.000129
; residue  132 bbb rtp bbb q -0.0
 3828         n3    132    bbb     N1   3828 -0.59685800  14.010000   ; qtot -0.596987
 3829         c3    132    bbb     C1   3829 0.10137000  12.010000   ; qtot -0.495617
 3830         h1    132    bbb     H1   3830 0.04411300   1.008000   ; qtot -0.451504
 3831         h1    132    bbb     H2   3831 0.04411300   1.008000   ; qtot -0.407391
 3832         c3    132    bbb     C2   3832 0.10137000  12.010000   ; qtot -0.306021
 3833         h1    132    bbb     H3   3833 0.04411300   1.008000   ; qtot -0.261908
 3834         h1    132    bbb     H4   3834 0.04411300   1.008000   ; qtot -0.217795
 3835         c3    132    bbb     C3   3835 -0.00195300  12.010000   ; qtot -0.219748
 3836         h1    132    bbb     H5   3836 0.05064400   1.008000   ; qtot -0.169104
 3837         h1    132    bbb     H6   3837 0.05064400   1.008000   ; qtot -0.118460
 3838         c3    132    bbb     C4   3838 -0.01612100  12.010000   ; qtot -0.134581
 3839         hc    132    bbb     H7   3839 0.04936100   1.008000   ; qtot -0.085220
 3840         hc    132    bbb     H8   3840 0.04936100   1.008000   ; qtot -0.035859
 3841         c3    132    bbb     C5   3841 0.11363000  12.010000   ; qtot 0.077771
 3842         hc    132    bbb     H9   3842 0.06265900   1.008000   ; qtot 0.140430
 3843         hc    132    bbb    H10   3843 0.06265900   1.008000   ; qtot 0.203089
 3844         c3    132    bbb     C6   3844 0.11363000  12.010000   ; qtot 0.316719
 3845         hc    132    bbb    H11   3845 0.06265900   1.008000   ; qtot 0.379378
 3846         hc    132    bbb    H12   3846 0.06265900   1.008000   ; qtot 0.442037
 3847         c3    132    bbb     C7   3847 0.05858200  12.010000   ; qtot 0.500619
 3848         h1    132    bbb    H13   3848 0.06123400   1.008000   ; qtot 0.561853
 3849         h1    132    bbb    H14   3849 0.06123400   1.008000   ; qtot 0.623087
 3850         c3    132    bbb     C8   3850 -0.72423400  12.010000   ; qtot -0.101147
 3851         h1    132    bbb    H15   3851 0.25637600   1.008000   ; qtot 0.155229
 3852         h1    132    bbb    H16   3852 0.25637600   1.008000   ; qtot 0.411605
 3853         c3    132    bbb     C9   3853 -0.72423400  12.010000   ; qtot -0.312629
 3854         h1    132    bbb    H17   3854 0.25637600   1.008000   ; qtot -0.056253
 3855         h1    132    bbb    H18   3855 0.25637600   1.008000   ; qtot 0.200123
 3856         os    132    bbb     O1   3856 -0.20025300  16.000000   ; qtot -0.000130
; residue  133 bbb rtp bbb q -0.0
 3857         n3    133    bbb     N1   3857 -0.59685800  14.010000   ; qtot -0.596988
 3858         c3    133    bbb     C1   3858 0.10137000  12.010000   ; qtot -0.495618
 3859         h1    133    bbb     H1   3859 0.04411300   1.008000   ; qtot -0.451505
 3860         h1    133    bbb     H2   3860 0.04411300   1.008000   ; qtot -0.407392
 3861         c3    133    bbb     C2   3861 0.10137000  12.010000   ; qtot -0.306022
 3862         h1    133    bbb     H3   3862 0.04411300   1.008000   ; qtot -0.261909
 3863         h1    133    bbb     H4   3863 0.04411300   1.008000   ; qtot -0.217796
 3864         c3    133    bbb     C3   3864 -0.00195300  12.010000   ; qtot -0.219749
 3865         h1    133    bbb     H5   3865 0.05064400   1.008000   ; qtot -0.169105
 3866         h1    133    bbb     H6   3866 0.05064400   1.008000   ; qtot -0.118461
 3867         c3    133    bbb     C4   3867 -0.01612100  12.010000   ; qtot -0.134582
 3868         hc    133    bbb     H7   3868 0.04936100   1.008000   ; qtot -0.085221
 3869         hc    133    bbb     H8   3869 0.04936100   1.008000   ; qtot -0.035860
 3870         c3    133    bbb     C5   3870 0.11363000  12.010000   ; qtot 0.077770
 3871         hc    133    bbb     H9   3871 0.06265900   1.008000   ; qtot 0.140429
 3872         hc    133    bbb    H10   3872 0.06265900   1.008000   ; qtot 0.203088
 3873         c3    133    bbb     C6   3873 0.11363000  12.010000   ; qtot 0.316718
 3874         hc    133    bbb    H11   3874 0.06265900   1.008000   ; qtot 0.379377
 3875         hc    133    bbb    H12   3875 0.06265900   1.008000   ; qtot 0.442036
 3876         c3    133    bbb     C7   3876 0.05858200  12.010000   ; qtot 0.500618
 3877         h1    133    bbb    H13   3877 0.06123400   1.008000   ; qtot 0.561852
 3878         h1    133    bbb    H14   3878 0.06123400   1.008000   ; qtot 0.623086
 3879         c3    133    bbb     C8   3879 -0.72423400  12.010000   ; qtot -0.101148
 3880         h1    133    bbb    H15   3880 0.25637600   1.008000   ; qtot 0.155228
 3881         h1    133    bbb    H16   3881 0.25637600   1.008000   ; qtot 0.411604
 3882         c3    133    bbb     C9   3882 -0.72423400  12.010000   ; qtot -0.312630
 3883         h1    133    bbb    H17   3883 0.25637600   1.008000   ; qtot -0.056254
 3884         h1    133    bbb    H18   3884 0.25637600   1.008000   ; qtot 0.200122
 3885         os    133    bbb     O1   3885 -0.20025300  16.000000   ; qtot -0.000131
; residue  134 bbb rtp bbb q -0.0
 3886         n3    134    bbb     N1   3886 -0.59685800  14.010000   ; qtot -0.596989
 3887         c3    134    bbb     C1   3887 0.10137000  12.010000   ; qtot -0.495619
 3888         h1    134    bbb     H1   3888 0.04411300   1.008000   ; qtot -0.451506
 3889         h1    134    bbb     H2   3889 0.04411300   1.008000   ; qtot -0.407393
 3890         c3    134    bbb     C2   3890 0.10137000  12.010000   ; qtot -0.306023
 3891         h1    134    bbb     H3   3891 0.04411300   1.008000   ; qtot -0.261910
 3892         h1    134    bbb     H4   3892 0.04411300   1.008000   ; qtot -0.217797
 3893         c3    134    bbb     C3   3893 -0.00195300  12.010000   ; qtot -0.219750
 3894         h1    134    bbb     H5   3894 0.05064400   1.008000   ; qtot -0.169106
 3895         h1    134    bbb     H6   3895 0.05064400   1.008000   ; qtot -0.118462
 3896         c3    134    bbb     C4   3896 -0.01612100  12.010000   ; qtot -0.134583
 3897         hc    134    bbb     H7   3897 0.04936100   1.008000   ; qtot -0.085222
 3898         hc    134    bbb     H8   3898 0.04936100   1.008000   ; qtot -0.035861
 3899         c3    134    bbb     C5   3899 0.11363000  12.010000   ; qtot 0.077769
 3900         hc    134    bbb     H9   3900 0.06265900   1.008000   ; qtot 0.140428
 3901         hc    134    bbb    H10   3901 0.06265900   1.008000   ; qtot 0.203087
 3902         c3    134    bbb     C6   3902 0.11363000  12.010000   ; qtot 0.316717
 3903         hc    134    bbb    H11   3903 0.06265900   1.008000   ; qtot 0.379376
 3904         hc    134    bbb    H12   3904 0.06265900   1.008000   ; qtot 0.442035
 3905         c3    134    bbb     C7   3905 0.05858200  12.010000   ; qtot 0.500617
 3906         h1    134    bbb    H13   3906 0.06123400   1.008000   ; qtot 0.561851
 3907         h1    134    bbb    H14   3907 0.06123400   1.008000   ; qtot 0.623085
 3908         c3    134    bbb     C8   3908 -0.72423400  12.010000   ; qtot -0.101149
 3909         h1    134    bbb    H15   3909 0.25637600   1.008000   ; qtot 0.155227
 3910         h1    134    bbb    H16   3910 0.25637600   1.008000   ; qtot 0.411603
 3911         c3    134    bbb     C9   3911 -0.72423400  12.010000   ; qtot -0.312631
 3912         h1    134    bbb    H17   3912 0.25637600   1.008000   ; qtot -0.056255
 3913         h1    134    bbb    H18   3913 0.25637600   1.008000   ; qtot 0.200121
 3914         os    134    bbb     O1   3914 -0.20025300  16.000000   ; qtot -0.000132
; residue  135 bbb rtp bbb q -0.0
 3915         n3    135    bbb     N1   3915 -0.59685800  14.010000   ; qtot -0.596990
 3916         c3    135    bbb     C1   3916 0.10137000  12.010000   ; qtot -0.495620
 3917         h1    135    bbb     H1   3917 0.04411300   1.008000   ; qtot -0.451507
 3918         h1    135    bbb     H2   3918 0.04411300   1.008000   ; qtot -0.407394
 3919         c3    135    bbb     C2   3919 0.10137000  12.010000   ; qtot -0.306024
 3920         h1    135    bbb     H3   3920 0.04411300   1.008000   ; qtot -0.261911
 3921         h1    135    bbb     H4   3921 0.04411300   1.008000   ; qtot -0.217798
 3922         c3    135    bbb     C3   3922 -0.00195300  12.010000   ; qtot -0.219751
 3923         h1    135    bbb     H5   3923 0.05064400   1.008000   ; qtot -0.169107
 3924         h1    135    bbb     H6   3924 0.05064400   1.008000   ; qtot -0.118463
 3925         c3    135    bbb     C4   3925 -0.01612100  12.010000   ; qtot -0.134584
 3926         hc    135    bbb     H7   3926 0.04936100   1.008000   ; qtot -0.085223
 3927         hc    135    bbb     H8   3927 0.04936100   1.008000   ; qtot -0.035862
 3928         c3    135    bbb     C5   3928 0.11363000  12.010000   ; qtot 0.077768
 3929         hc    135    bbb     H9   3929 0.06265900   1.008000   ; qtot 0.140427
 3930         hc    135    bbb    H10   3930 0.06265900   1.008000   ; qtot 0.203086
 3931         c3    135    bbb     C6   3931 0.11363000  12.010000   ; qtot 0.316716
 3932         hc    135    bbb    H11   3932 0.06265900   1.008000   ; qtot 0.379375
 3933         hc    135    bbb    H12   3933 0.06265900   1.008000   ; qtot 0.442034
 3934         c3    135    bbb     C7   3934 0.05858200  12.010000   ; qtot 0.500616
 3935         h1    135    bbb    H13   3935 0.06123400   1.008000   ; qtot 0.561850
 3936         h1    135    bbb    H14   3936 0.06123400   1.008000   ; qtot 0.623084
 3937         c3    135    bbb     C8   3937 -0.72423400  12.010000   ; qtot -0.101150
 3938         h1    135    bbb    H15   3938 0.25637600   1.008000   ; qtot 0.155226
 3939         h1    135    bbb    H16   3939 0.25637600   1.008000   ; qtot 0.411602
 3940         c3    135    bbb     C9   3940 -0.72423400  12.010000   ; qtot -0.312632
 3941         h1    135    bbb    H17   3941 0.25637600   1.008000   ; qtot -0.056256
 3942         h1    135    bbb    H18   3942 0.25637600   1.008000   ; qtot 0.200120
 3943         os    135    bbb     O1   3943 -0.20025300  16.000000   ; qtot -0.000133
; residue  136 bbb rtp bbb q -0.0
 3944         n3    136    bbb     N1   3944 -0.59685800  14.010000   ; qtot -0.596991
 3945         c3    136    bbb     C1   3945 0.10137000  12.010000   ; qtot -0.495621
 3946         h1    136    bbb     H1   3946 0.04411300   1.008000   ; qtot -0.451508
 3947         h1    136    bbb     H2   3947 0.04411300   1.008000   ; qtot -0.407395
 3948         c3    136    bbb     C2   3948 0.10137000  12.010000   ; qtot -0.306025
 3949         h1    136    bbb     H3   3949 0.04411300   1.008000   ; qtot -0.261912
 3950         h1    136    bbb     H4   3950 0.04411300   1.008000   ; qtot -0.217799
 3951         c3    136    bbb     C3   3951 -0.00195300  12.010000   ; qtot -0.219752
 3952         h1    136    bbb     H5   3952 0.05064400   1.008000   ; qtot -0.169108
 3953         h1    136    bbb     H6   3953 0.05064400   1.008000   ; qtot -0.118464
 3954         c3    136    bbb     C4   3954 -0.01612100  12.010000   ; qtot -0.134585
 3955         hc    136    bbb     H7   3955 0.04936100   1.008000   ; qtot -0.085224
 3956         hc    136    bbb     H8   3956 0.04936100   1.008000   ; qtot -0.035863
 3957         c3    136    bbb     C5   3957 0.11363000  12.010000   ; qtot 0.077767
 3958         hc    136    bbb     H9   3958 0.06265900   1.008000   ; qtot 0.140426
 3959         hc    136    bbb    H10   3959 0.06265900   1.008000   ; qtot 0.203085
 3960         c3    136    bbb     C6   3960 0.11363000  12.010000   ; qtot 0.316715
 3961         hc    136    bbb    H11   3961 0.06265900   1.008000   ; qtot 0.379374
 3962         hc    136    bbb    H12   3962 0.06265900   1.008000   ; qtot 0.442033
 3963         c3    136    bbb     C7   3963 0.05858200  12.010000   ; qtot 0.500615
 3964         h1    136    bbb    H13   3964 0.06123400   1.008000   ; qtot 0.561849
 3965         h1    136    bbb    H14   3965 0.06123400   1.008000   ; qtot 0.623083
 3966         c3    136    bbb     C8   3966 -0.72423400  12.010000   ; qtot -0.101151
 3967         h1    136    bbb    H15   3967 0.25637600   1.008000   ; qtot 0.155225
 3968         h1    136    bbb    H16   3968 0.25637600   1.008000   ; qtot 0.411601
 3969         c3    136    bbb     C9   3969 -0.72423400  12.010000   ; qtot -0.312633
 3970         h1    136    bbb    H17   3970 0.25637600   1.008000   ; qtot -0.056257
 3971         h1    136    bbb    H18   3971 0.25637600   1.008000   ; qtot 0.200119
 3972         os    136    bbb     O1   3972 -0.20025300  16.000000   ; qtot -0.000134
; residue  137 bbb rtp bbb q -0.0
 3973         n3    137    bbb     N1   3973 -0.59685800  14.010000   ; qtot -0.596992
 3974         c3    137    bbb     C1   3974 0.10137000  12.010000   ; qtot -0.495622
 3975         h1    137    bbb     H1   3975 0.04411300   1.008000   ; qtot -0.451509
 3976         h1    137    bbb     H2   3976 0.04411300   1.008000   ; qtot -0.407396
 3977         c3    137    bbb     C2   3977 0.10137000  12.010000   ; qtot -0.306026
 3978         h1    137    bbb     H3   3978 0.04411300   1.008000   ; qtot -0.261913
 3979         h1    137    bbb     H4   3979 0.04411300   1.008000   ; qtot -0.217800
 3980         c3    137    bbb     C3   3980 -0.00195300  12.010000   ; qtot -0.219753
 3981         h1    137    bbb     H5   3981 0.05064400   1.008000   ; qtot -0.169109
 3982         h1    137    bbb     H6   3982 0.05064400   1.008000   ; qtot -0.118465
 3983         c3    137    bbb     C4   3983 -0.01612100  12.010000   ; qtot -0.134586
 3984         hc    137    bbb     H7   3984 0.04936100   1.008000   ; qtot -0.085225
 3985         hc    137    bbb     H8   3985 0.04936100   1.008000   ; qtot -0.035864
 3986         c3    137    bbb     C5   3986 0.11363000  12.010000   ; qtot 0.077766
 3987         hc    137    bbb     H9   3987 0.06265900   1.008000   ; qtot 0.140425
 3988         hc    137    bbb    H10   3988 0.06265900   1.008000   ; qtot 0.203084
 3989         c3    137    bbb     C6   3989 0.11363000  12.010000   ; qtot 0.316714
 3990         hc    137    bbb    H11   3990 0.06265900   1.008000   ; qtot 0.379373
 3991         hc    137    bbb    H12   3991 0.06265900   1.008000   ; qtot 0.442032
 3992         c3    137    bbb     C7   3992 0.05858200  12.010000   ; qtot 0.500614
 3993         h1    137    bbb    H13   3993 0.06123400   1.008000   ; qtot 0.561848
 3994         h1    137    bbb    H14   3994 0.06123400   1.008000   ; qtot 0.623082
 3995         c3    137    bbb     C8   3995 -0.72423400  12.010000   ; qtot -0.101152
 3996         h1    137    bbb    H15   3996 0.25637600   1.008000   ; qtot 0.155224
 3997         h1    137    bbb    H16   3997 0.25637600   1.008000   ; qtot 0.411600
 3998         c3    137    bbb     C9   3998 -0.72423400  12.010000   ; qtot -0.312634
 3999         h1    137    bbb    H17   3999 0.25637600   1.008000   ; qtot -0.056258
 4000         h1    137    bbb    H18   4000 0.25637600   1.008000   ; qtot 0.200118
 4001         os    137    bbb     O1   4001 -0.20025300  16.000000   ; qtot -0.000135
; residue  138 bbb rtp bbb q -0.0
 4002         n3    138    bbb     N1   4002 -0.59685800  14.010000   ; qtot -0.596993
 4003         c3    138    bbb     C1   4003 0.10137000  12.010000   ; qtot -0.495623
 4004         h1    138    bbb     H1   4004 0.04411300   1.008000   ; qtot -0.451510
 4005         h1    138    bbb     H2   4005 0.04411300   1.008000   ; qtot -0.407397
 4006         c3    138    bbb     C2   4006 0.10137000  12.010000   ; qtot -0.306027
 4007         h1    138    bbb     H3   4007 0.04411300   1.008000   ; qtot -0.261914
 4008         h1    138    bbb     H4   4008 0.04411300   1.008000   ; qtot -0.217801
 4009         c3    138    bbb     C3   4009 -0.00195300  12.010000   ; qtot -0.219754
 4010         h1    138    bbb     H5   4010 0.05064400   1.008000   ; qtot -0.169110
 4011         h1    138    bbb     H6   4011 0.05064400   1.008000   ; qtot -0.118466
 4012         c3    138    bbb     C4   4012 -0.01612100  12.010000   ; qtot -0.134587
 4013         hc    138    bbb     H7   4013 0.04936100   1.008000   ; qtot -0.085226
 4014         hc    138    bbb     H8   4014 0.04936100   1.008000   ; qtot -0.035865
 4015         c3    138    bbb     C5   4015 0.11363000  12.010000   ; qtot 0.077765
 4016         hc    138    bbb     H9   4016 0.06265900   1.008000   ; qtot 0.140424
 4017         hc    138    bbb    H10   4017 0.06265900   1.008000   ; qtot 0.203083
 4018         c3    138    bbb     C6   4018 0.11363000  12.010000   ; qtot 0.316713
 4019         hc    138    bbb    H11   4019 0.06265900   1.008000   ; qtot 0.379372
 4020         hc    138    bbb    H12   4020 0.06265900   1.008000   ; qtot 0.442031
 4021         c3    138    bbb     C7   4021 0.05858200  12.010000   ; qtot 0.500613
 4022         h1    138    bbb    H13   4022 0.06123400   1.008000   ; qtot 0.561847
 4023         h1    138    bbb    H14   4023 0.06123400   1.008000   ; qtot 0.623081
 4024         c3    138    bbb     C8   4024 -0.72423400  12.010000   ; qtot -0.101153
 4025         h1    138    bbb    H15   4025 0.25637600   1.008000   ; qtot 0.155223
 4026         h1    138    bbb    H16   4026 0.25637600   1.008000   ; qtot 0.411599
 4027         c3    138    bbb     C9   4027 -0.72423400  12.010000   ; qtot -0.312635
 4028         h1    138    bbb    H17   4028 0.25637600   1.008000   ; qtot -0.056259
 4029         h1    138    bbb    H18   4029 0.25637600   1.008000   ; qtot 0.200117
 4030         os    138    bbb     O1   4030 -0.20025300  16.000000   ; qtot -0.000136
; residue  139 bbb rtp bbb q -0.0
 4031         n3    139    bbb     N1   4031 -0.59685800  14.010000   ; qtot -0.596994
 4032         c3    139    bbb     C1   4032 0.10137000  12.010000   ; qtot -0.495624
 4033         h1    139    bbb     H1   4033 0.04411300   1.008000   ; qtot -0.451511
 4034         h1    139    bbb     H2   4034 0.04411300   1.008000   ; qtot -0.407398
 4035         c3    139    bbb     C2   4035 0.10137000  12.010000   ; qtot -0.306028
 4036         h1    139    bbb     H3   4036 0.04411300   1.008000   ; qtot -0.261915
 4037         h1    139    bbb     H4   4037 0.04411300   1.008000   ; qtot -0.217802
 4038         c3    139    bbb     C3   4038 -0.00195300  12.010000   ; qtot -0.219755
 4039         h1    139    bbb     H5   4039 0.05064400   1.008000   ; qtot -0.169111
 4040         h1    139    bbb     H6   4040 0.05064400   1.008000   ; qtot -0.118467
 4041         c3    139    bbb     C4   4041 -0.01612100  12.010000   ; qtot -0.134588
 4042         hc    139    bbb     H7   4042 0.04936100   1.008000   ; qtot -0.085227
 4043         hc    139    bbb     H8   4043 0.04936100   1.008000   ; qtot -0.035866
 4044         c3    139    bbb     C5   4044 0.11363000  12.010000   ; qtot 0.077764
 4045         hc    139    bbb     H9   4045 0.06265900   1.008000   ; qtot 0.140423
 4046         hc    139    bbb    H10   4046 0.06265900   1.008000   ; qtot 0.203082
 4047         c3    139    bbb     C6   4047 0.11363000  12.010000   ; qtot 0.316712
 4048         hc    139    bbb    H11   4048 0.06265900   1.008000   ; qtot 0.379371
 4049         hc    139    bbb    H12   4049 0.06265900   1.008000   ; qtot 0.442030
 4050         c3    139    bbb     C7   4050 0.05858200  12.010000   ; qtot 0.500612
 4051         h1    139    bbb    H13   4051 0.06123400   1.008000   ; qtot 0.561846
 4052         h1    139    bbb    H14   4052 0.06123400   1.008000   ; qtot 0.623080
 4053         c3    139    bbb     C8   4053 -0.72423400  12.010000   ; qtot -0.101154
 4054         h1    139    bbb    H15   4054 0.25637600   1.008000   ; qtot 0.155222
 4055         h1    139    bbb    H16   4055 0.25637600   1.008000   ; qtot 0.411598
 4056         c3    139    bbb     C9   4056 -0.72423400  12.010000   ; qtot -0.312636
 4057         h1    139    bbb    H17   4057 0.25637600   1.008000   ; qtot -0.056260
 4058         h1    139    bbb    H18   4058 0.25637600   1.008000   ; qtot 0.200116
 4059         os    139    bbb     O1   4059 -0.20025300  16.000000   ; qtot -0.000137
; residue  140 bbb rtp bbb q -0.0
 4060         n3    140    bbb     N1   4060 -0.59685800  14.010000   ; qtot -0.596995
 4061         c3    140    bbb     C1   4061 0.10137000  12.010000   ; qtot -0.495625
 4062         h1    140    bbb     H1   4062 0.04411300   1.008000   ; qtot -0.451512
 4063         h1    140    bbb     H2   4063 0.04411300   1.008000   ; qtot -0.407399
 4064         c3    140    bbb     C2   4064 0.10137000  12.010000   ; qtot -0.306029
 4065         h1    140    bbb     H3   4065 0.04411300   1.008000   ; qtot -0.261916
 4066         h1    140    bbb     H4   4066 0.04411300   1.008000   ; qtot -0.217803
 4067         c3    140    bbb     C3   4067 -0.00195300  12.010000   ; qtot -0.219756
 4068         h1    140    bbb     H5   4068 0.05064400   1.008000   ; qtot -0.169112
 4069         h1    140    bbb     H6   4069 0.05064400   1.008000   ; qtot -0.118468
 4070         c3    140    bbb     C4   4070 -0.01612100  12.010000   ; qtot -0.134589
 4071         hc    140    bbb     H7   4071 0.04936100   1.008000   ; qtot -0.085228
 4072         hc    140    bbb     H8   4072 0.04936100   1.008000   ; qtot -0.035867
 4073         c3    140    bbb     C5   4073 0.11363000  12.010000   ; qtot 0.077763
 4074         hc    140    bbb     H9   4074 0.06265900   1.008000   ; qtot 0.140422
 4075         hc    140    bbb    H10   4075 0.06265900   1.008000   ; qtot 0.203081
 4076         c3    140    bbb     C6   4076 0.11363000  12.010000   ; qtot 0.316711
 4077         hc    140    bbb    H11   4077 0.06265900   1.008000   ; qtot 0.379370
 4078         hc    140    bbb    H12   4078 0.06265900   1.008000   ; qtot 0.442029
 4079         c3    140    bbb     C7   4079 0.05858200  12.010000   ; qtot 0.500611
 4080         h1    140    bbb    H13   4080 0.06123400   1.008000   ; qtot 0.561845
 4081         h1    140    bbb    H14   4081 0.06123400   1.008000   ; qtot 0.623079
 4082         c3    140    bbb     C8   4082 -0.72423400  12.010000   ; qtot -0.101155
 4083         h1    140    bbb    H15   4083 0.25637600   1.008000   ; qtot 0.155221
 4084         h1    140    bbb    H16   4084 0.25637600   1.008000   ; qtot 0.411597
 4085         c3    140    bbb     C9   4085 -0.72423400  12.010000   ; qtot -0.312637
 4086         h1    140    bbb    H17   4086 0.25637600   1.008000   ; qtot -0.056261
 4087         h1    140    bbb    H18   4087 0.25637600   1.008000   ; qtot 0.200115
 4088         os    140    bbb     O1   4088 -0.20025300  16.000000   ; qtot -0.000138
; residue  141 bbb rtp bbb q -0.0
 4089         n3    141    bbb     N1   4089 -0.59685800  14.010000   ; qtot -0.596996
 4090         c3    141    bbb     C1   4090 0.10137000  12.010000   ; qtot -0.495626
 4091         h1    141    bbb     H1   4091 0.04411300   1.008000   ; qtot -0.451513
 4092         h1    141    bbb     H2   4092 0.04411300   1.008000   ; qtot -0.407400
 4093         c3    141    bbb     C2   4093 0.10137000  12.010000   ; qtot -0.306030
 4094         h1    141    bbb     H3   4094 0.04411300   1.008000   ; qtot -0.261917
 4095         h1    141    bbb     H4   4095 0.04411300   1.008000   ; qtot -0.217804
 4096         c3    141    bbb     C3   4096 -0.00195300  12.010000   ; qtot -0.219757
 4097         h1    141    bbb     H5   4097 0.05064400   1.008000   ; qtot -0.169113
 4098         h1    141    bbb     H6   4098 0.05064400   1.008000   ; qtot -0.118469
 4099         c3    141    bbb     C4   4099 -0.01612100  12.010000   ; qtot -0.134590
 4100         hc    141    bbb     H7   4100 0.04936100   1.008000   ; qtot -0.085229
 4101         hc    141    bbb     H8   4101 0.04936100   1.008000   ; qtot -0.035868
 4102         c3    141    bbb     C5   4102 0.11363000  12.010000   ; qtot 0.077762
 4103         hc    141    bbb     H9   4103 0.06265900   1.008000   ; qtot 0.140421
 4104         hc    141    bbb    H10   4104 0.06265900   1.008000   ; qtot 0.203080
 4105         c3    141    bbb     C6   4105 0.11363000  12.010000   ; qtot 0.316710
 4106         hc    141    bbb    H11   4106 0.06265900   1.008000   ; qtot 0.379369
 4107         hc    141    bbb    H12   4107 0.06265900   1.008000   ; qtot 0.442028
 4108         c3    141    bbb     C7   4108 0.05858200  12.010000   ; qtot 0.500610
 4109         h1    141    bbb    H13   4109 0.06123400   1.008000   ; qtot 0.561844
 4110         h1    141    bbb    H14   4110 0.06123400   1.008000   ; qtot 0.623078
 4111         c3    141    bbb     C8   4111 -0.72423400  12.010000   ; qtot -0.101156
 4112         h1    141    bbb    H15   4112 0.25637600   1.008000   ; qtot 0.155220
 4113         h1    141    bbb    H16   4113 0.25637600   1.008000   ; qtot 0.411596
 4114         c3    141    bbb     C9   4114 -0.72423400  12.010000   ; qtot -0.312638
 4115         h1    141    bbb    H17   4115 0.25637600   1.008000   ; qtot -0.056262
 4116         h1    141    bbb    H18   4116 0.25637600   1.008000   ; qtot 0.200114
 4117         os    141    bbb     O1   4117 -0.20025300  16.000000   ; qtot -0.000139
; residue  142 bbb rtp bbb q -0.0
 4118         n3    142    bbb     N1   4118 -0.59685800  14.010000   ; qtot -0.596997
 4119         c3    142    bbb     C1   4119 0.10137000  12.010000   ; qtot -0.495627
 4120         h1    142    bbb     H1   4120 0.04411300   1.008000   ; qtot -0.451514
 4121         h1    142    bbb     H2   4121 0.04411300   1.008000   ; qtot -0.407401
 4122         c3    142    bbb     C2   4122 0.10137000  12.010000   ; qtot -0.306031
 4123         h1    142    bbb     H3   4123 0.04411300   1.008000   ; qtot -0.261918
 4124         h1    142    bbb     H4   4124 0.04411300   1.008000   ; qtot -0.217805
 4125         c3    142    bbb     C3   4125 -0.00195300  12.010000   ; qtot -0.219758
 4126         h1    142    bbb     H5   4126 0.05064400   1.008000   ; qtot -0.169114
 4127         h1    142    bbb     H6   4127 0.05064400   1.008000   ; qtot -0.118470
 4128         c3    142    bbb     C4   4128 -0.01612100  12.010000   ; qtot -0.134591
 4129         hc    142    bbb     H7   4129 0.04936100   1.008000   ; qtot -0.085230
 4130         hc    142    bbb     H8   4130 0.04936100   1.008000   ; qtot -0.035869
 4131         c3    142    bbb     C5   4131 0.11363000  12.010000   ; qtot 0.077761
 4132         hc    142    bbb     H9   4132 0.06265900   1.008000   ; qtot 0.140420
 4133         hc    142    bbb    H10   4133 0.06265900   1.008000   ; qtot 0.203079
 4134         c3    142    bbb     C6   4134 0.11363000  12.010000   ; qtot 0.316709
 4135         hc    142    bbb    H11   4135 0.06265900   1.008000   ; qtot 0.379368
 4136         hc    142    bbb    H12   4136 0.06265900   1.008000   ; qtot 0.442027
 4137         c3    142    bbb     C7   4137 0.05858200  12.010000   ; qtot 0.500609
 4138         h1    142    bbb    H13   4138 0.06123400   1.008000   ; qtot 0.561843
 4139         h1    142    bbb    H14   4139 0.06123400   1.008000   ; qtot 0.623077
 4140         c3    142    bbb     C8   4140 -0.72423400  12.010000   ; qtot -0.101157
 4141         h1    142    bbb    H15   4141 0.25637600   1.008000   ; qtot 0.155219
 4142         h1    142    bbb    H16   4142 0.25637600   1.008000   ; qtot 0.411595
 4143         c3    142    bbb     C9   4143 -0.72423400  12.010000   ; qtot -0.312639
 4144         h1    142    bbb    H17   4144 0.25637600   1.008000   ; qtot -0.056263
 4145         h1    142    bbb    H18   4145 0.25637600   1.008000   ; qtot 0.200113
 4146         os    142    bbb     O1   4146 -0.20025300  16.000000   ; qtot -0.000140
; residue  143 bbb rtp bbb q -0.0
 4147         n3    143    bbb     N1   4147 -0.59685800  14.010000   ; qtot -0.596998
 4148         c3    143    bbb     C1   4148 0.10137000  12.010000   ; qtot -0.495628
 4149         h1    143    bbb     H1   4149 0.04411300   1.008000   ; qtot -0.451515
 4150         h1    143    bbb     H2   4150 0.04411300   1.008000   ; qtot -0.407402
 4151         c3    143    bbb     C2   4151 0.10137000  12.010000   ; qtot -0.306032
 4152         h1    143    bbb     H3   4152 0.04411300   1.008000   ; qtot -0.261919
 4153         h1    143    bbb     H4   4153 0.04411300   1.008000   ; qtot -0.217806
 4154         c3    143    bbb     C3   4154 -0.00195300  12.010000   ; qtot -0.219759
 4155         h1    143    bbb     H5   4155 0.05064400   1.008000   ; qtot -0.169115
 4156         h1    143    bbb     H6   4156 0.05064400   1.008000   ; qtot -0.118471
 4157         c3    143    bbb     C4   4157 -0.01612100  12.010000   ; qtot -0.134592
 4158         hc    143    bbb     H7   4158 0.04936100   1.008000   ; qtot -0.085231
 4159         hc    143    bbb     H8   4159 0.04936100   1.008000   ; qtot -0.035870
 4160         c3    143    bbb     C5   4160 0.11363000  12.010000   ; qtot 0.077760
 4161         hc    143    bbb     H9   4161 0.06265900   1.008000   ; qtot 0.140419
 4162         hc    143    bbb    H10   4162 0.06265900   1.008000   ; qtot 0.203078
 4163         c3    143    bbb     C6   4163 0.11363000  12.010000   ; qtot 0.316708
 4164         hc    143    bbb    H11   4164 0.06265900   1.008000   ; qtot 0.379367
 4165         hc    143    bbb    H12   4165 0.06265900   1.008000   ; qtot 0.442026
 4166         c3    143    bbb     C7   4166 0.05858200  12.010000   ; qtot 0.500608
 4167         h1    143    bbb    H13   4167 0.06123400   1.008000   ; qtot 0.561842
 4168         h1    143    bbb    H14   4168 0.06123400   1.008000   ; qtot 0.623076
 4169         c3    143    bbb     C8   4169 -0.72423400  12.010000   ; qtot -0.101158
 4170         h1    143    bbb    H15   4170 0.25637600   1.008000   ; qtot 0.155218
 4171         h1    143    bbb    H16   4171 0.25637600   1.008000   ; qtot 0.411594
 4172         c3    143    bbb     C9   4172 -0.72423400  12.010000   ; qtot -0.312640
 4173         h1    143    bbb    H17   4173 0.25637600   1.008000   ; qtot -0.056264
 4174         h1    143    bbb    H18   4174 0.25637600   1.008000   ; qtot 0.200112
 4175         os    143    bbb     O1   4175 -0.20025300  16.000000   ; qtot -0.000141
; residue  144 bbb rtp bbb q -0.0
 4176         n3    144    bbb     N1   4176 -0.59685800  14.010000   ; qtot -0.596999
 4177         c3    144    bbb     C1   4177 0.10137000  12.010000   ; qtot -0.495629
 4178         h1    144    bbb     H1   4178 0.04411300   1.008000   ; qtot -0.451516
 4179         h1    144    bbb     H2   4179 0.04411300   1.008000   ; qtot -0.407403
 4180         c3    144    bbb     C2   4180 0.10137000  12.010000   ; qtot -0.306033
 4181         h1    144    bbb     H3   4181 0.04411300   1.008000   ; qtot -0.261920
 4182         h1    144    bbb     H4   4182 0.04411300   1.008000   ; qtot -0.217807
 4183         c3    144    bbb     C3   4183 -0.00195300  12.010000   ; qtot -0.219760
 4184         h1    144    bbb     H5   4184 0.05064400   1.008000   ; qtot -0.169116
 4185         h1    144    bbb     H6   4185 0.05064400   1.008000   ; qtot -0.118472
 4186         c3    144    bbb     C4   4186 -0.01612100  12.010000   ; qtot -0.134593
 4187         hc    144    bbb     H7   4187 0.04936100   1.008000   ; qtot -0.085232
 4188         hc    144    bbb     H8   4188 0.04936100   1.008000   ; qtot -0.035871
 4189         c3    144    bbb     C5   4189 0.11363000  12.010000   ; qtot 0.077759
 4190         hc    144    bbb     H9   4190 0.06265900   1.008000   ; qtot 0.140418
 4191         hc    144    bbb    H10   4191 0.06265900   1.008000   ; qtot 0.203077
 4192         c3    144    bbb     C6   4192 0.11363000  12.010000   ; qtot 0.316707
 4193         hc    144    bbb    H11   4193 0.06265900   1.008000   ; qtot 0.379366
 4194         hc    144    bbb    H12   4194 0.06265900   1.008000   ; qtot 0.442025
 4195         c3    144    bbb     C7   4195 0.05858200  12.010000   ; qtot 0.500607
 4196         h1    144    bbb    H13   4196 0.06123400   1.008000   ; qtot 0.561841
 4197         h1    144    bbb    H14   4197 0.06123400   1.008000   ; qtot 0.623075
 4198         c3    144    bbb     C8   4198 -0.72423400  12.010000   ; qtot -0.101159
 4199         h1    144    bbb    H15   4199 0.25637600   1.008000   ; qtot 0.155217
 4200         h1    144    bbb    H16   4200 0.25637600   1.008000   ; qtot 0.411593
 4201         c3    144    bbb     C9   4201 -0.72423400  12.010000   ; qtot -0.312641
 4202         h1    144    bbb    H17   4202 0.25637600   1.008000   ; qtot -0.056265
 4203         h1    144    bbb    H18   4203 0.25637600   1.008000   ; qtot 0.200111
 4204         os    144    bbb     O1   4204 -0.20025300  16.000000   ; qtot -0.000142
; residue  145 bbb rtp bbb q -0.0
 4205         n3    145    bbb     N1   4205 -0.59685800  14.010000   ; qtot -0.597000
 4206         c3    145    bbb     C1   4206 0.10137000  12.010000   ; qtot -0.495630
 4207         h1    145    bbb     H1   4207 0.04411300   1.008000   ; qtot -0.451517
 4208         h1    145    bbb     H2   4208 0.04411300   1.008000   ; qtot -0.407404
 4209         c3    145    bbb     C2   4209 0.10137000  12.010000   ; qtot -0.306034
 4210         h1    145    bbb     H3   4210 0.04411300   1.008000   ; qtot -0.261921
 4211         h1    145    bbb     H4   4211 0.04411300   1.008000   ; qtot -0.217808
 4212         c3    145    bbb     C3   4212 -0.00195300  12.010000   ; qtot -0.219761
 4213         h1    145    bbb     H5   4213 0.05064400   1.008000   ; qtot -0.169117
 4214         h1    145    bbb     H6   4214 0.05064400   1.008000   ; qtot -0.118473
 4215         c3    145    bbb     C4   4215 -0.01612100  12.010000   ; qtot -0.134594
 4216         hc    145    bbb     H7   4216 0.04936100   1.008000   ; qtot -0.085233
 4217         hc    145    bbb     H8   4217 0.04936100   1.008000   ; qtot -0.035872
 4218         c3    145    bbb     C5   4218 0.11363000  12.010000   ; qtot 0.077758
 4219         hc    145    bbb     H9   4219 0.06265900   1.008000   ; qtot 0.140417
 4220         hc    145    bbb    H10   4220 0.06265900   1.008000   ; qtot 0.203076
 4221         c3    145    bbb     C6   4221 0.11363000  12.010000   ; qtot 0.316706
 4222         hc    145    bbb    H11   4222 0.06265900   1.008000   ; qtot 0.379365
 4223         hc    145    bbb    H12   4223 0.06265900   1.008000   ; qtot 0.442024
 4224         c3    145    bbb     C7   4224 0.05858200  12.010000   ; qtot 0.500606
 4225         h1    145    bbb    H13   4225 0.06123400   1.008000   ; qtot 0.561840
 4226         h1    145    bbb    H14   4226 0.06123400   1.008000   ; qtot 0.623074
 4227         c3    145    bbb     C8   4227 -0.72423400  12.010000   ; qtot -0.101160
 4228         h1    145    bbb    H15   4228 0.25637600   1.008000   ; qtot 0.155216
 4229         h1    145    bbb    H16   4229 0.25637600   1.008000   ; qtot 0.411592
 4230         c3    145    bbb     C9   4230 -0.72423400  12.010000   ; qtot -0.312642
 4231         h1    145    bbb    H17   4231 0.25637600   1.008000   ; qtot -0.056266
 4232         h1    145    bbb    H18   4232 0.25637600   1.008000   ; qtot 0.200110
 4233         os    145    bbb     O1   4233 -0.20025300  16.000000   ; qtot -0.000143
; residue  146 bbb rtp bbb q -0.0
 4234         n3    146    bbb     N1   4234 -0.59685800  14.010000   ; qtot -0.597001
 4235         c3    146    bbb     C1   4235 0.10137000  12.010000   ; qtot -0.495631
 4236         h1    146    bbb     H1   4236 0.04411300   1.008000   ; qtot -0.451518
 4237         h1    146    bbb     H2   4237 0.04411300   1.008000   ; qtot -0.407405
 4238         c3    146    bbb     C2   4238 0.10137000  12.010000   ; qtot -0.306035
 4239         h1    146    bbb     H3   4239 0.04411300   1.008000   ; qtot -0.261922
 4240         h1    146    bbb     H4   4240 0.04411300   1.008000   ; qtot -0.217809
 4241         c3    146    bbb     C3   4241 -0.00195300  12.010000   ; qtot -0.219762
 4242         h1    146    bbb     H5   4242 0.05064400   1.008000   ; qtot -0.169118
 4243         h1    146    bbb     H6   4243 0.05064400   1.008000   ; qtot -0.118474
 4244         c3    146    bbb     C4   4244 -0.01612100  12.010000   ; qtot -0.134595
 4245         hc    146    bbb     H7   4245 0.04936100   1.008000   ; qtot -0.085234
 4246         hc    146    bbb     H8   4246 0.04936100   1.008000   ; qtot -0.035873
 4247         c3    146    bbb     C5   4247 0.11363000  12.010000   ; qtot 0.077757
 4248         hc    146    bbb     H9   4248 0.06265900   1.008000   ; qtot 0.140416
 4249         hc    146    bbb    H10   4249 0.06265900   1.008000   ; qtot 0.203075
 4250         c3    146    bbb     C6   4250 0.11363000  12.010000   ; qtot 0.316705
 4251         hc    146    bbb    H11   4251 0.06265900   1.008000   ; qtot 0.379364
 4252         hc    146    bbb    H12   4252 0.06265900   1.008000   ; qtot 0.442023
 4253         c3    146    bbb     C7   4253 0.05858200  12.010000   ; qtot 0.500605
 4254         h1    146    bbb    H13   4254 0.06123400   1.008000   ; qtot 0.561839
 4255         h1    146    bbb    H14   4255 0.06123400   1.008000   ; qtot 0.623073
 4256         c3    146    bbb     C8   4256 -0.72423400  12.010000   ; qtot -0.101161
 4257         h1    146    bbb    H15   4257 0.25637600   1.008000   ; qtot 0.155215
 4258         h1    146    bbb    H16   4258 0.25637600   1.008000   ; qtot 0.411591
 4259         c3    146    bbb     C9   4259 -0.72423400  12.010000   ; qtot -0.312643
 4260         h1    146    bbb    H17   4260 0.25637600   1.008000   ; qtot -0.056267
 4261         h1    146    bbb    H18   4261 0.25637600   1.008000   ; qtot 0.200109
 4262         os    146    bbb     O1   4262 -0.20025300  16.000000   ; qtot -0.000144
; residue  147 bbb rtp bbb q -0.0
 4263         n3    147    bbb     N1   4263 -0.59685800  14.010000   ; qtot -0.597002
 4264         c3    147    bbb     C1   4264 0.10137000  12.010000   ; qtot -0.495632
 4265         h1    147    bbb     H1   4265 0.04411300   1.008000   ; qtot -0.451519
 4266         h1    147    bbb     H2   4266 0.04411300   1.008000   ; qtot -0.407406
 4267         c3    147    bbb     C2   4267 0.10137000  12.010000   ; qtot -0.306036
 4268         h1    147    bbb     H3   4268 0.04411300   1.008000   ; qtot -0.261923
 4269         h1    147    bbb     H4   4269 0.04411300   1.008000   ; qtot -0.217810
 4270         c3    147    bbb     C3   4270 -0.00195300  12.010000   ; qtot -0.219763
 4271         h1    147    bbb     H5   4271 0.05064400   1.008000   ; qtot -0.169119
 4272         h1    147    bbb     H6   4272 0.05064400   1.008000   ; qtot -0.118475
 4273         c3    147    bbb     C4   4273 -0.01612100  12.010000   ; qtot -0.134596
 4274         hc    147    bbb     H7   4274 0.04936100   1.008000   ; qtot -0.085235
 4275         hc    147    bbb     H8   4275 0.04936100   1.008000   ; qtot -0.035874
 4276         c3    147    bbb     C5   4276 0.11363000  12.010000   ; qtot 0.077756
 4277         hc    147    bbb     H9   4277 0.06265900   1.008000   ; qtot 0.140415
 4278         hc    147    bbb    H10   4278 0.06265900   1.008000   ; qtot 0.203074
 4279         c3    147    bbb     C6   4279 0.11363000  12.010000   ; qtot 0.316704
 4280         hc    147    bbb    H11   4280 0.06265900   1.008000   ; qtot 0.379363
 4281         hc    147    bbb    H12   4281 0.06265900   1.008000   ; qtot 0.442022
 4282         c3    147    bbb     C7   4282 0.05858200  12.010000   ; qtot 0.500604
 4283         h1    147    bbb    H13   4283 0.06123400   1.008000   ; qtot 0.561838
 4284         h1    147    bbb    H14   4284 0.06123400   1.008000   ; qtot 0.623072
 4285         c3    147    bbb     C8   4285 -0.72423400  12.010000   ; qtot -0.101162
 4286         h1    147    bbb    H15   4286 0.25637600   1.008000   ; qtot 0.155214
 4287         h1    147    bbb    H16   4287 0.25637600   1.008000   ; qtot 0.411590
 4288         c3    147    bbb     C9   4288 -0.72423400  12.010000   ; qtot -0.312644
 4289         h1    147    bbb    H17   4289 0.25637600   1.008000   ; qtot -0.056268
 4290         h1    147    bbb    H18   4290 0.25637600   1.008000   ; qtot 0.200108
 4291         os    147    bbb     O1   4291 -0.20025300  16.000000   ; qtot -0.000145
; residue  148 bbb rtp bbb q -0.0
 4292         n3    148    bbb     N1   4292 -0.59685800  14.010000   ; qtot -0.597003
 4293         c3    148    bbb     C1   4293 0.10137000  12.010000   ; qtot -0.495633
 4294         h1    148    bbb     H1   4294 0.04411300   1.008000   ; qtot -0.451520
 4295         h1    148    bbb     H2   4295 0.04411300   1.008000   ; qtot -0.407407
 4296         c3    148    bbb     C2   4296 0.10137000  12.010000   ; qtot -0.306037
 4297         h1    148    bbb     H3   4297 0.04411300   1.008000   ; qtot -0.261924
 4298         h1    148    bbb     H4   4298 0.04411300   1.008000   ; qtot -0.217811
 4299         c3    148    bbb     C3   4299 -0.00195300  12.010000   ; qtot -0.219764
 4300         h1    148    bbb     H5   4300 0.05064400   1.008000   ; qtot -0.169120
 4301         h1    148    bbb     H6   4301 0.05064400   1.008000   ; qtot -0.118476
 4302         c3    148    bbb     C4   4302 -0.01612100  12.010000   ; qtot -0.134597
 4303         hc    148    bbb     H7   4303 0.04936100   1.008000   ; qtot -0.085236
 4304         hc    148    bbb     H8   4304 0.04936100   1.008000   ; qtot -0.035875
 4305         c3    148    bbb     C5   4305 0.11363000  12.010000   ; qtot 0.077755
 4306         hc    148    bbb     H9   4306 0.06265900   1.008000   ; qtot 0.140414
 4307         hc    148    bbb    H10   4307 0.06265900   1.008000   ; qtot 0.203073
 4308         c3    148    bbb     C6   4308 0.11363000  12.010000   ; qtot 0.316703
 4309         hc    148    bbb    H11   4309 0.06265900   1.008000   ; qtot 0.379362
 4310         hc    148    bbb    H12   4310 0.06265900   1.008000   ; qtot 0.442021
 4311         c3    148    bbb     C7   4311 0.05858200  12.010000   ; qtot 0.500603
 4312         h1    148    bbb    H13   4312 0.06123400   1.008000   ; qtot 0.561837
 4313         h1    148    bbb    H14   4313 0.06123400   1.008000   ; qtot 0.623071
 4314         c3    148    bbb     C8   4314 -0.72423400  12.010000   ; qtot -0.101163
 4315         h1    148    bbb    H15   4315 0.25637600   1.008000   ; qtot 0.155213
 4316         h1    148    bbb    H16   4316 0.25637600   1.008000   ; qtot 0.411589
 4317         c3    148    bbb     C9   4317 -0.72423400  12.010000   ; qtot -0.312645
 4318         h1    148    bbb    H17   4318 0.25637600   1.008000   ; qtot -0.056269
 4319         h1    148    bbb    H18   4319 0.25637600   1.008000   ; qtot 0.200107
 4320         os    148    bbb     O1   4320 -0.20025300  16.000000   ; qtot -0.000146
; residue  149 bbb rtp bbb q -0.0
 4321         n3    149    bbb     N1   4321 -0.59685800  14.010000   ; qtot -0.597004
 4322         c3    149    bbb     C1   4322 0.10137000  12.010000   ; qtot -0.495634
 4323         h1    149    bbb     H1   4323 0.04411300   1.008000   ; qtot -0.451521
 4324         h1    149    bbb     H2   4324 0.04411300   1.008000   ; qtot -0.407408
 4325         c3    149    bbb     C2   4325 0.10137000  12.010000   ; qtot -0.306038
 4326         h1    149    bbb     H3   4326 0.04411300   1.008000   ; qtot -0.261925
 4327         h1    149    bbb     H4   4327 0.04411300   1.008000   ; qtot -0.217812
 4328         c3    149    bbb     C3   4328 -0.00195300  12.010000   ; qtot -0.219765
 4329         h1    149    bbb     H5   4329 0.05064400   1.008000   ; qtot -0.169121
 4330         h1    149    bbb     H6   4330 0.05064400   1.008000   ; qtot -0.118477
 4331         c3    149    bbb     C4   4331 -0.01612100  12.010000   ; qtot -0.134598
 4332         hc    149    bbb     H7   4332 0.04936100   1.008000   ; qtot -0.085237
 4333         hc    149    bbb     H8   4333 0.04936100   1.008000   ; qtot -0.035876
 4334         c3    149    bbb     C5   4334 0.11363000  12.010000   ; qtot 0.077754
 4335         hc    149    bbb     H9   4335 0.06265900   1.008000   ; qtot 0.140413
 4336         hc    149    bbb    H10   4336 0.06265900   1.008000   ; qtot 0.203072
 4337         c3    149    bbb     C6   4337 0.11363000  12.010000   ; qtot 0.316702
 4338         hc    149    bbb    H11   4338 0.06265900   1.008000   ; qtot 0.379361
 4339         hc    149    bbb    H12   4339 0.06265900   1.008000   ; qtot 0.442020
 4340         c3    149    bbb     C7   4340 0.05858200  12.010000   ; qtot 0.500602
 4341         h1    149    bbb    H13   4341 0.06123400   1.008000   ; qtot 0.561836
 4342         h1    149    bbb    H14   4342 0.06123400   1.008000   ; qtot 0.623070
 4343         c3    149    bbb     C8   4343 -0.72423400  12.010000   ; qtot -0.101164
 4344         h1    149    bbb    H15   4344 0.25637600   1.008000   ; qtot 0.155212
 4345         h1    149    bbb    H16   4345 0.25637600   1.008000   ; qtot 0.411588
 4346         c3    149    bbb     C9   4346 -0.72423400  12.010000   ; qtot -0.312646
 4347         h1    149    bbb    H17   4347 0.25637600   1.008000   ; qtot -0.056270
 4348         h1    149    bbb    H18   4348 0.25637600   1.008000   ; qtot 0.200106
 4349         os    149    bbb     O1   4349 -0.20025300  16.000000   ; qtot -0.000147
; residue  150 bbb rtp bbb q -0.0
 4350         n3    150    bbb     N1   4350 -0.59685800  14.010000   ; qtot -0.597005
 4351         c3    150    bbb     C1   4351 0.10137000  12.010000   ; qtot -0.495635
 4352         h1    150    bbb     H1   4352 0.04411300   1.008000   ; qtot -0.451522
 4353         h1    150    bbb     H2   4353 0.04411300   1.008000   ; qtot -0.407409
 4354         c3    150    bbb     C2   4354 0.10137000  12.010000   ; qtot -0.306039
 4355         h1    150    bbb     H3   4355 0.04411300   1.008000   ; qtot -0.261926
 4356         h1    150    bbb     H4   4356 0.04411300   1.008000   ; qtot -0.217813
 4357         c3    150    bbb     C3   4357 -0.00195300  12.010000   ; qtot -0.219766
 4358         h1    150    bbb     H5   4358 0.05064400   1.008000   ; qtot -0.169122
 4359         h1    150    bbb     H6   4359 0.05064400   1.008000   ; qtot -0.118478
 4360         c3    150    bbb     C4   4360 -0.01612100  12.010000   ; qtot -0.134599
 4361         hc    150    bbb     H7   4361 0.04936100   1.008000   ; qtot -0.085238
 4362         hc    150    bbb     H8   4362 0.04936100   1.008000   ; qtot -0.035877
 4363         c3    150    bbb     C5   4363 0.11363000  12.010000   ; qtot 0.077753
 4364         hc    150    bbb     H9   4364 0.06265900   1.008000   ; qtot 0.140412
 4365         hc    150    bbb    H10   4365 0.06265900   1.008000   ; qtot 0.203071
 4366         c3    150    bbb     C6   4366 0.11363000  12.010000   ; qtot 0.316701
 4367         hc    150    bbb    H11   4367 0.06265900   1.008000   ; qtot 0.379360
 4368         hc    150    bbb    H12   4368 0.06265900   1.008000   ; qtot 0.442019
 4369         c3    150    bbb     C7   4369 0.05858200  12.010000   ; qtot 0.500601
 4370         h1    150    bbb    H13   4370 0.06123400   1.008000   ; qtot 0.561835
 4371         h1    150    bbb    H14   4371 0.06123400   1.008000   ; qtot 0.623069
 4372         c3    150    bbb     C8   4372 -0.72423400  12.010000   ; qtot -0.101165
 4373         h1    150    bbb    H15   4373 0.25637600   1.008000   ; qtot 0.155211
 4374         h1    150    bbb    H16   4374 0.25637600   1.008000   ; qtot 0.411587
 4375         c3    150    bbb     C9   4375 -0.72423400  12.010000   ; qtot -0.312647
 4376         h1    150    bbb    H17   4376 0.25637600   1.008000   ; qtot -0.056271
 4377         h1    150    bbb    H18   4377 0.25637600   1.008000   ; qtot 0.200105
 4378         os    150    bbb     O1   4378 -0.20025300  16.000000   ; qtot -0.000148
; residue  151 bbb rtp bbb q -0.0
 4379         n3    151    bbb     N1   4379 -0.59685800  14.010000   ; qtot -0.597006
 4380         c3    151    bbb     C1   4380 0.10137000  12.010000   ; qtot -0.495636
 4381         h1    151    bbb     H1   4381 0.04411300   1.008000   ; qtot -0.451523
 4382         h1    151    bbb     H2   4382 0.04411300   1.008000   ; qtot -0.407410
 4383         c3    151    bbb     C2   4383 0.10137000  12.010000   ; qtot -0.306040
 4384         h1    151    bbb     H3   4384 0.04411300   1.008000   ; qtot -0.261927
 4385         h1    151    bbb     H4   4385 0.04411300   1.008000   ; qtot -0.217814
 4386         c3    151    bbb     C3   4386 -0.00195300  12.010000   ; qtot -0.219767
 4387         h1    151    bbb     H5   4387 0.05064400   1.008000   ; qtot -0.169123
 4388         h1    151    bbb     H6   4388 0.05064400   1.008000   ; qtot -0.118479
 4389         c3    151    bbb     C4   4389 -0.01612100  12.010000   ; qtot -0.134600
 4390         hc    151    bbb     H7   4390 0.04936100   1.008000   ; qtot -0.085239
 4391         hc    151    bbb     H8   4391 0.04936100   1.008000   ; qtot -0.035878
 4392         c3    151    bbb     C5   4392 0.11363000  12.010000   ; qtot 0.077752
 4393         hc    151    bbb     H9   4393 0.06265900   1.008000   ; qtot 0.140411
 4394         hc    151    bbb    H10   4394 0.06265900   1.008000   ; qtot 0.203070
 4395         c3    151    bbb     C6   4395 0.11363000  12.010000   ; qtot 0.316700
 4396         hc    151    bbb    H11   4396 0.06265900   1.008000   ; qtot 0.379359
 4397         hc    151    bbb    H12   4397 0.06265900   1.008000   ; qtot 0.442018
 4398         c3    151    bbb     C7   4398 0.05858200  12.010000   ; qtot 0.500600
 4399         h1    151    bbb    H13   4399 0.06123400   1.008000   ; qtot 0.561834
 4400         h1    151    bbb    H14   4400 0.06123400   1.008000   ; qtot 0.623068
 4401         c3    151    bbb     C8   4401 -0.72423400  12.010000   ; qtot -0.101166
 4402         h1    151    bbb    H15   4402 0.25637600   1.008000   ; qtot 0.155210
 4403         h1    151    bbb    H16   4403 0.25637600   1.008000   ; qtot 0.411586
 4404         c3    151    bbb     C9   4404 -0.72423400  12.010000   ; qtot -0.312648
 4405         h1    151    bbb    H17   4405 0.25637600   1.008000   ; qtot -0.056272
 4406         h1    151    bbb    H18   4406 0.25637600   1.008000   ; qtot 0.200104
 4407         os    151    bbb     O1   4407 -0.20025300  16.000000   ; qtot -0.000149
; residue  152 bbb rtp bbb q -0.0
 4408         n3    152    bbb     N1   4408 -0.59685800  14.010000   ; qtot -0.597007
 4409         c3    152    bbb     C1   4409 0.10137000  12.010000   ; qtot -0.495637
 4410         h1    152    bbb     H1   4410 0.04411300   1.008000   ; qtot -0.451524
 4411         h1    152    bbb     H2   4411 0.04411300   1.008000   ; qtot -0.407411
 4412         c3    152    bbb     C2   4412 0.10137000  12.010000   ; qtot -0.306041
 4413         h1    152    bbb     H3   4413 0.04411300   1.008000   ; qtot -0.261928
 4414         h1    152    bbb     H4   4414 0.04411300   1.008000   ; qtot -0.217815
 4415         c3    152    bbb     C3   4415 -0.00195300  12.010000   ; qtot -0.219768
 4416         h1    152    bbb     H5   4416 0.05064400   1.008000   ; qtot -0.169124
 4417         h1    152    bbb     H6   4417 0.05064400   1.008000   ; qtot -0.118480
 4418         c3    152    bbb     C4   4418 -0.01612100  12.010000   ; qtot -0.134601
 4419         hc    152    bbb     H7   4419 0.04936100   1.008000   ; qtot -0.085240
 4420         hc    152    bbb     H8   4420 0.04936100   1.008000   ; qtot -0.035879
 4421         c3    152    bbb     C5   4421 0.11363000  12.010000   ; qtot 0.077751
 4422         hc    152    bbb     H9   4422 0.06265900   1.008000   ; qtot 0.140410
 4423         hc    152    bbb    H10   4423 0.06265900   1.008000   ; qtot 0.203069
 4424         c3    152    bbb     C6   4424 0.11363000  12.010000   ; qtot 0.316699
 4425         hc    152    bbb    H11   4425 0.06265900   1.008000   ; qtot 0.379358
 4426         hc    152    bbb    H12   4426 0.06265900   1.008000   ; qtot 0.442017
 4427         c3    152    bbb     C7   4427 0.05858200  12.010000   ; qtot 0.500599
 4428         h1    152    bbb    H13   4428 0.06123400   1.008000   ; qtot 0.561833
 4429         h1    152    bbb    H14   4429 0.06123400   1.008000   ; qtot 0.623067
 4430         c3    152    bbb     C8   4430 -0.72423400  12.010000   ; qtot -0.101167
 4431         h1    152    bbb    H15   4431 0.25637600   1.008000   ; qtot 0.155209
 4432         h1    152    bbb    H16   4432 0.25637600   1.008000   ; qtot 0.411585
 4433         c3    152    bbb     C9   4433 -0.72423400  12.010000   ; qtot -0.312649
 4434         h1    152    bbb    H17   4434 0.25637600   1.008000   ; qtot -0.056273
 4435         h1    152    bbb    H18   4435 0.25637600   1.008000   ; qtot 0.200103
 4436         os    152    bbb     O1   4436 -0.20025300  16.000000   ; qtot -0.000150
; residue  153 bbb rtp bbb q -0.0
 4437         n3    153    bbb     N1   4437 -0.59685800  14.010000   ; qtot -0.597008
 4438         c3    153    bbb     C1   4438 0.10137000  12.010000   ; qtot -0.495638
 4439         h1    153    bbb     H1   4439 0.04411300   1.008000   ; qtot -0.451525
 4440         h1    153    bbb     H2   4440 0.04411300   1.008000   ; qtot -0.407412
 4441         c3    153    bbb     C2   4441 0.10137000  12.010000   ; qtot -0.306042
 4442         h1    153    bbb     H3   4442 0.04411300   1.008000   ; qtot -0.261929
 4443         h1    153    bbb     H4   4443 0.04411300   1.008000   ; qtot -0.217816
 4444         c3    153    bbb     C3   4444 -0.00195300  12.010000   ; qtot -0.219769
 4445         h1    153    bbb     H5   4445 0.05064400   1.008000   ; qtot -0.169125
 4446         h1    153    bbb     H6   4446 0.05064400   1.008000   ; qtot -0.118481
 4447         c3    153    bbb     C4   4447 -0.01612100  12.010000   ; qtot -0.134602
 4448         hc    153    bbb     H7   4448 0.04936100   1.008000   ; qtot -0.085241
 4449         hc    153    bbb     H8   4449 0.04936100   1.008000   ; qtot -0.035880
 4450         c3    153    bbb     C5   4450 0.11363000  12.010000   ; qtot 0.077750
 4451         hc    153    bbb     H9   4451 0.06265900   1.008000   ; qtot 0.140409
 4452         hc    153    bbb    H10   4452 0.06265900   1.008000   ; qtot 0.203068
 4453         c3    153    bbb     C6   4453 0.11363000  12.010000   ; qtot 0.316698
 4454         hc    153    bbb    H11   4454 0.06265900   1.008000   ; qtot 0.379357
 4455         hc    153    bbb    H12   4455 0.06265900   1.008000   ; qtot 0.442016
 4456         c3    153    bbb     C7   4456 0.05858200  12.010000   ; qtot 0.500598
 4457         h1    153    bbb    H13   4457 0.06123400   1.008000   ; qtot 0.561832
 4458         h1    153    bbb    H14   4458 0.06123400   1.008000   ; qtot 0.623066
 4459         c3    153    bbb     C8   4459 -0.72423400  12.010000   ; qtot -0.101168
 4460         h1    153    bbb    H15   4460 0.25637600   1.008000   ; qtot 0.155208
 4461         h1    153    bbb    H16   4461 0.25637600   1.008000   ; qtot 0.411584
 4462         c3    153    bbb     C9   4462 -0.72423400  12.010000   ; qtot -0.312650
 4463         h1    153    bbb    H17   4463 0.25637600   1.008000   ; qtot -0.056274
 4464         h1    153    bbb    H18   4464 0.25637600   1.008000   ; qtot 0.200102
 4465         os    153    bbb     O1   4465 -0.20025300  16.000000   ; qtot -0.000151
; residue  154 bbb rtp bbb q -0.0
 4466         n3    154    bbb     N1   4466 -0.59685800  14.010000   ; qtot -0.597009
 4467         c3    154    bbb     C1   4467 0.10137000  12.010000   ; qtot -0.495639
 4468         h1    154    bbb     H1   4468 0.04411300   1.008000   ; qtot -0.451526
 4469         h1    154    bbb     H2   4469 0.04411300   1.008000   ; qtot -0.407413
 4470         c3    154    bbb     C2   4470 0.10137000  12.010000   ; qtot -0.306043
 4471         h1    154    bbb     H3   4471 0.04411300   1.008000   ; qtot -0.261930
 4472         h1    154    bbb     H4   4472 0.04411300   1.008000   ; qtot -0.217817
 4473         c3    154    bbb     C3   4473 -0.00195300  12.010000   ; qtot -0.219770
 4474         h1    154    bbb     H5   4474 0.05064400   1.008000   ; qtot -0.169126
 4475         h1    154    bbb     H6   4475 0.05064400   1.008000   ; qtot -0.118482
 4476         c3    154    bbb     C4   4476 -0.01612100  12.010000   ; qtot -0.134603
 4477         hc    154    bbb     H7   4477 0.04936100   1.008000   ; qtot -0.085242
 4478         hc    154    bbb     H8   4478 0.04936100   1.008000   ; qtot -0.035881
 4479         c3    154    bbb     C5   4479 0.11363000  12.010000   ; qtot 0.077749
 4480         hc    154    bbb     H9   4480 0.06265900   1.008000   ; qtot 0.140408
 4481         hc    154    bbb    H10   4481 0.06265900   1.008000   ; qtot 0.203067
 4482         c3    154    bbb     C6   4482 0.11363000  12.010000   ; qtot 0.316697
 4483         hc    154    bbb    H11   4483 0.06265900   1.008000   ; qtot 0.379356
 4484         hc    154    bbb    H12   4484 0.06265900   1.008000   ; qtot 0.442015
 4485         c3    154    bbb     C7   4485 0.05858200  12.010000   ; qtot 0.500597
 4486         h1    154    bbb    H13   4486 0.06123400   1.008000   ; qtot 0.561831
 4487         h1    154    bbb    H14   4487 0.06123400   1.008000   ; qtot 0.623065
 4488         c3    154    bbb     C8   4488 -0.72423400  12.010000   ; qtot -0.101169
 4489         h1    154    bbb    H15   4489 0.25637600   1.008000   ; qtot 0.155207
 4490         h1    154    bbb    H16   4490 0.25637600   1.008000   ; qtot 0.411583
 4491         c3    154    bbb     C9   4491 -0.72423400  12.010000   ; qtot -0.312651
 4492         h1    154    bbb    H17   4492 0.25637600   1.008000   ; qtot -0.056275
 4493         h1    154    bbb    H18   4493 0.25637600   1.008000   ; qtot 0.200101
 4494         os    154    bbb     O1   4494 -0.20025300  16.000000   ; qtot -0.000152
; residue  155 bbb rtp bbb q -0.0
 4495         n3    155    bbb     N1   4495 -0.59685800  14.010000   ; qtot -0.597010
 4496         c3    155    bbb     C1   4496 0.10137000  12.010000   ; qtot -0.495640
 4497         h1    155    bbb     H1   4497 0.04411300   1.008000   ; qtot -0.451527
 4498         h1    155    bbb     H2   4498 0.04411300   1.008000   ; qtot -0.407414
 4499         c3    155    bbb     C2   4499 0.10137000  12.010000   ; qtot -0.306044
 4500         h1    155    bbb     H3   4500 0.04411300   1.008000   ; qtot -0.261931
 4501         h1    155    bbb     H4   4501 0.04411300   1.008000   ; qtot -0.217818
 4502         c3    155    bbb     C3   4502 -0.00195300  12.010000   ; qtot -0.219771
 4503         h1    155    bbb     H5   4503 0.05064400   1.008000   ; qtot -0.169127
 4504         h1    155    bbb     H6   4504 0.05064400   1.008000   ; qtot -0.118483
 4505         c3    155    bbb     C4   4505 -0.01612100  12.010000   ; qtot -0.134604
 4506         hc    155    bbb     H7   4506 0.04936100   1.008000   ; qtot -0.085243
 4507         hc    155    bbb     H8   4507 0.04936100   1.008000   ; qtot -0.035882
 4508         c3    155    bbb     C5   4508 0.11363000  12.010000   ; qtot 0.077748
 4509         hc    155    bbb     H9   4509 0.06265900   1.008000   ; qtot 0.140407
 4510         hc    155    bbb    H10   4510 0.06265900   1.008000   ; qtot 0.203066
 4511         c3    155    bbb     C6   4511 0.11363000  12.010000   ; qtot 0.316696
 4512         hc    155    bbb    H11   4512 0.06265900   1.008000   ; qtot 0.379355
 4513         hc    155    bbb    H12   4513 0.06265900   1.008000   ; qtot 0.442014
 4514         c3    155    bbb     C7   4514 0.05858200  12.010000   ; qtot 0.500596
 4515         h1    155    bbb    H13   4515 0.06123400   1.008000   ; qtot 0.561830
 4516         h1    155    bbb    H14   4516 0.06123400   1.008000   ; qtot 0.623064
 4517         c3    155    bbb     C8   4517 -0.72423400  12.010000   ; qtot -0.101170
 4518         h1    155    bbb    H15   4518 0.25637600   1.008000   ; qtot 0.155206
 4519         h1    155    bbb    H16   4519 0.25637600   1.008000   ; qtot 0.411582
 4520         c3    155    bbb     C9   4520 -0.72423400  12.010000   ; qtot -0.312652
 4521         h1    155    bbb    H17   4521 0.25637600   1.008000   ; qtot -0.056276
 4522         h1    155    bbb    H18   4522 0.25637600   1.008000   ; qtot 0.200100
 4523         os    155    bbb     O1   4523 -0.20025300  16.000000   ; qtot -0.000153
; residue  156 bbb rtp bbb q -0.0
 4524         n3    156    bbb     N1   4524 -0.59685800  14.010000   ; qtot -0.597011
 4525         c3    156    bbb     C1   4525 0.10137000  12.010000   ; qtot -0.495641
 4526         h1    156    bbb     H1   4526 0.04411300   1.008000   ; qtot -0.451528
 4527         h1    156    bbb     H2   4527 0.04411300   1.008000   ; qtot -0.407415
 4528         c3    156    bbb     C2   4528 0.10137000  12.010000   ; qtot -0.306045
 4529         h1    156    bbb     H3   4529 0.04411300   1.008000   ; qtot -0.261932
 4530         h1    156    bbb     H4   4530 0.04411300   1.008000   ; qtot -0.217819
 4531         c3    156    bbb     C3   4531 -0.00195300  12.010000   ; qtot -0.219772
 4532         h1    156    bbb     H5   4532 0.05064400   1.008000   ; qtot -0.169128
 4533         h1    156    bbb     H6   4533 0.05064400   1.008000   ; qtot -0.118484
 4534         c3    156    bbb     C4   4534 -0.01612100  12.010000   ; qtot -0.134605
 4535         hc    156    bbb     H7   4535 0.04936100   1.008000   ; qtot -0.085244
 4536         hc    156    bbb     H8   4536 0.04936100   1.008000   ; qtot -0.035883
 4537         c3    156    bbb     C5   4537 0.11363000  12.010000   ; qtot 0.077747
 4538         hc    156    bbb     H9   4538 0.06265900   1.008000   ; qtot 0.140406
 4539         hc    156    bbb    H10   4539 0.06265900   1.008000   ; qtot 0.203065
 4540         c3    156    bbb     C6   4540 0.11363000  12.010000   ; qtot 0.316695
 4541         hc    156    bbb    H11   4541 0.06265900   1.008000   ; qtot 0.379354
 4542         hc    156    bbb    H12   4542 0.06265900   1.008000   ; qtot 0.442013
 4543         c3    156    bbb     C7   4543 0.05858200  12.010000   ; qtot 0.500595
 4544         h1    156    bbb    H13   4544 0.06123400   1.008000   ; qtot 0.561829
 4545         h1    156    bbb    H14   4545 0.06123400   1.008000   ; qtot 0.623063
 4546         c3    156    bbb     C8   4546 -0.72423400  12.010000   ; qtot -0.101171
 4547         h1    156    bbb    H15   4547 0.25637600   1.008000   ; qtot 0.155205
 4548         h1    156    bbb    H16   4548 0.25637600   1.008000   ; qtot 0.411581
 4549         c3    156    bbb     C9   4549 -0.72423400  12.010000   ; qtot -0.312653
 4550         h1    156    bbb    H17   4550 0.25637600   1.008000   ; qtot -0.056277
 4551         h1    156    bbb    H18   4551 0.25637600   1.008000   ; qtot 0.200099
 4552         os    156    bbb     O1   4552 -0.20025300  16.000000   ; qtot -0.000154
; residue  157 bbb rtp bbb q -0.0
 4553         n3    157    bbb     N1   4553 -0.59685800  14.010000   ; qtot -0.597012
 4554         c3    157    bbb     C1   4554 0.10137000  12.010000   ; qtot -0.495642
 4555         h1    157    bbb     H1   4555 0.04411300   1.008000   ; qtot -0.451529
 4556         h1    157    bbb     H2   4556 0.04411300   1.008000   ; qtot -0.407416
 4557         c3    157    bbb     C2   4557 0.10137000  12.010000   ; qtot -0.306046
 4558         h1    157    bbb     H3   4558 0.04411300   1.008000   ; qtot -0.261933
 4559         h1    157    bbb     H4   4559 0.04411300   1.008000   ; qtot -0.217820
 4560         c3    157    bbb     C3   4560 -0.00195300  12.010000   ; qtot -0.219773
 4561         h1    157    bbb     H5   4561 0.05064400   1.008000   ; qtot -0.169129
 4562         h1    157    bbb     H6   4562 0.05064400   1.008000   ; qtot -0.118485
 4563         c3    157    bbb     C4   4563 -0.01612100  12.010000   ; qtot -0.134606
 4564         hc    157    bbb     H7   4564 0.04936100   1.008000   ; qtot -0.085245
 4565         hc    157    bbb     H8   4565 0.04936100   1.008000   ; qtot -0.035884
 4566         c3    157    bbb     C5   4566 0.11363000  12.010000   ; qtot 0.077746
 4567         hc    157    bbb     H9   4567 0.06265900   1.008000   ; qtot 0.140405
 4568         hc    157    bbb    H10   4568 0.06265900   1.008000   ; qtot 0.203064
 4569         c3    157    bbb     C6   4569 0.11363000  12.010000   ; qtot 0.316694
 4570         hc    157    bbb    H11   4570 0.06265900   1.008000   ; qtot 0.379353
 4571         hc    157    bbb    H12   4571 0.06265900   1.008000   ; qtot 0.442012
 4572         c3    157    bbb     C7   4572 0.05858200  12.010000   ; qtot 0.500594
 4573         h1    157    bbb    H13   4573 0.06123400   1.008000   ; qtot 0.561828
 4574         h1    157    bbb    H14   4574 0.06123400   1.008000   ; qtot 0.623062
 4575         c3    157    bbb     C8   4575 -0.72423400  12.010000   ; qtot -0.101172
 4576         h1    157    bbb    H15   4576 0.25637600   1.008000   ; qtot 0.155204
 4577         h1    157    bbb    H16   4577 0.25637600   1.008000   ; qtot 0.411580
 4578         c3    157    bbb     C9   4578 -0.72423400  12.010000   ; qtot -0.312654
 4579         h1    157    bbb    H17   4579 0.25637600   1.008000   ; qtot -0.056278
 4580         h1    157    bbb    H18   4580 0.25637600   1.008000   ; qtot 0.200098
 4581         os    157    bbb     O1   4581 -0.20025300  16.000000   ; qtot -0.000155
; residue  158 bbb rtp bbb q -0.0
 4582         n3    158    bbb     N1   4582 -0.59685800  14.010000   ; qtot -0.597013
 4583         c3    158    bbb     C1   4583 0.10137000  12.010000   ; qtot -0.495643
 4584         h1    158    bbb     H1   4584 0.04411300   1.008000   ; qtot -0.451530
 4585         h1    158    bbb     H2   4585 0.04411300   1.008000   ; qtot -0.407417
 4586         c3    158    bbb     C2   4586 0.10137000  12.010000   ; qtot -0.306047
 4587         h1    158    bbb     H3   4587 0.04411300   1.008000   ; qtot -0.261934
 4588         h1    158    bbb     H4   4588 0.04411300   1.008000   ; qtot -0.217821
 4589         c3    158    bbb     C3   4589 -0.00195300  12.010000   ; qtot -0.219774
 4590         h1    158    bbb     H5   4590 0.05064400   1.008000   ; qtot -0.169130
 4591         h1    158    bbb     H6   4591 0.05064400   1.008000   ; qtot -0.118486
 4592         c3    158    bbb     C4   4592 -0.01612100  12.010000   ; qtot -0.134607
 4593         hc    158    bbb     H7   4593 0.04936100   1.008000   ; qtot -0.085246
 4594         hc    158    bbb     H8   4594 0.04936100   1.008000   ; qtot -0.035885
 4595         c3    158    bbb     C5   4595 0.11363000  12.010000   ; qtot 0.077745
 4596         hc    158    bbb     H9   4596 0.06265900   1.008000   ; qtot 0.140404
 4597         hc    158    bbb    H10   4597 0.06265900   1.008000   ; qtot 0.203063
 4598         c3    158    bbb     C6   4598 0.11363000  12.010000   ; qtot 0.316693
 4599         hc    158    bbb    H11   4599 0.06265900   1.008000   ; qtot 0.379352
 4600         hc    158    bbb    H12   4600 0.06265900   1.008000   ; qtot 0.442011
 4601         c3    158    bbb     C7   4601 0.05858200  12.010000   ; qtot 0.500593
 4602         h1    158    bbb    H13   4602 0.06123400   1.008000   ; qtot 0.561827
 4603         h1    158    bbb    H14   4603 0.06123400   1.008000   ; qtot 0.623061
 4604         c3    158    bbb     C8   4604 -0.72423400  12.010000   ; qtot -0.101173
 4605         h1    158    bbb    H15   4605 0.25637600   1.008000   ; qtot 0.155203
 4606         h1    158    bbb    H16   4606 0.25637600   1.008000   ; qtot 0.411579
 4607         c3    158    bbb     C9   4607 -0.72423400  12.010000   ; qtot -0.312655
 4608         h1    158    bbb    H17   4608 0.25637600   1.008000   ; qtot -0.056279
 4609         h1    158    bbb    H18   4609 0.25637600   1.008000   ; qtot 0.200097
 4610         os    158    bbb     O1   4610 -0.20025300  16.000000   ; qtot -0.000156
; residue  159 bbb rtp bbb q -0.0
 4611         n3    159    bbb     N1   4611 -0.59685800  14.010000   ; qtot -0.597014
 4612         c3    159    bbb     C1   4612 0.10137000  12.010000   ; qtot -0.495644
 4613         h1    159    bbb     H1   4613 0.04411300   1.008000   ; qtot -0.451531
 4614         h1    159    bbb     H2   4614 0.04411300   1.008000   ; qtot -0.407418
 4615         c3    159    bbb     C2   4615 0.10137000  12.010000   ; qtot -0.306048
 4616         h1    159    bbb     H3   4616 0.04411300   1.008000   ; qtot -0.261935
 4617         h1    159    bbb     H4   4617 0.04411300   1.008000   ; qtot -0.217822
 4618         c3    159    bbb     C3   4618 -0.00195300  12.010000   ; qtot -0.219775
 4619         h1    159    bbb     H5   4619 0.05064400   1.008000   ; qtot -0.169131
 4620         h1    159    bbb     H6   4620 0.05064400   1.008000   ; qtot -0.118487
 4621         c3    159    bbb     C4   4621 -0.01612100  12.010000   ; qtot -0.134608
 4622         hc    159    bbb     H7   4622 0.04936100   1.008000   ; qtot -0.085247
 4623         hc    159    bbb     H8   4623 0.04936100   1.008000   ; qtot -0.035886
 4624         c3    159    bbb     C5   4624 0.11363000  12.010000   ; qtot 0.077744
 4625         hc    159    bbb     H9   4625 0.06265900   1.008000   ; qtot 0.140403
 4626         hc    159    bbb    H10   4626 0.06265900   1.008000   ; qtot 0.203062
 4627         c3    159    bbb     C6   4627 0.11363000  12.010000   ; qtot 0.316692
 4628         hc    159    bbb    H11   4628 0.06265900   1.008000   ; qtot 0.379351
 4629         hc    159    bbb    H12   4629 0.06265900   1.008000   ; qtot 0.442010
 4630         c3    159    bbb     C7   4630 0.05858200  12.010000   ; qtot 0.500592
 4631         h1    159    bbb    H13   4631 0.06123400   1.008000   ; qtot 0.561826
 4632         h1    159    bbb    H14   4632 0.06123400   1.008000   ; qtot 0.623060
 4633         c3    159    bbb     C8   4633 -0.72423400  12.010000   ; qtot -0.101174
 4634         h1    159    bbb    H15   4634 0.25637600   1.008000   ; qtot 0.155202
 4635         h1    159    bbb    H16   4635 0.25637600   1.008000   ; qtot 0.411578
 4636         c3    159    bbb     C9   4636 -0.72423400  12.010000   ; qtot -0.312656
 4637         h1    159    bbb    H17   4637 0.25637600   1.008000   ; qtot -0.056280
 4638         h1    159    bbb    H18   4638 0.25637600   1.008000   ; qtot 0.200096
 4639         os    159    bbb     O1   4639 -0.20025300  16.000000   ; qtot -0.000157
; residue  160 bbb rtp bbb q -0.0
 4640         n3    160    bbb     N1   4640 -0.59685800  14.010000   ; qtot -0.597015
 4641         c3    160    bbb     C1   4641 0.10137000  12.010000   ; qtot -0.495645
 4642         h1    160    bbb     H1   4642 0.04411300   1.008000   ; qtot -0.451532
 4643         h1    160    bbb     H2   4643 0.04411300   1.008000   ; qtot -0.407419
 4644         c3    160    bbb     C2   4644 0.10137000  12.010000   ; qtot -0.306049
 4645         h1    160    bbb     H3   4645 0.04411300   1.008000   ; qtot -0.261936
 4646         h1    160    bbb     H4   4646 0.04411300   1.008000   ; qtot -0.217823
 4647         c3    160    bbb     C3   4647 -0.00195300  12.010000   ; qtot -0.219776
 4648         h1    160    bbb     H5   4648 0.05064400   1.008000   ; qtot -0.169132
 4649         h1    160    bbb     H6   4649 0.05064400   1.008000   ; qtot -0.118488
 4650         c3    160    bbb     C4   4650 -0.01612100  12.010000   ; qtot -0.134609
 4651         hc    160    bbb     H7   4651 0.04936100   1.008000   ; qtot -0.085248
 4652         hc    160    bbb     H8   4652 0.04936100   1.008000   ; qtot -0.035887
 4653         c3    160    bbb     C5   4653 0.11363000  12.010000   ; qtot 0.077743
 4654         hc    160    bbb     H9   4654 0.06265900   1.008000   ; qtot 0.140402
 4655         hc    160    bbb    H10   4655 0.06265900   1.008000   ; qtot 0.203061
 4656         c3    160    bbb     C6   4656 0.11363000  12.010000   ; qtot 0.316691
 4657         hc    160    bbb    H11   4657 0.06265900   1.008000   ; qtot 0.379350
 4658         hc    160    bbb    H12   4658 0.06265900   1.008000   ; qtot 0.442009
 4659         c3    160    bbb     C7   4659 0.05858200  12.010000   ; qtot 0.500591
 4660         h1    160    bbb    H13   4660 0.06123400   1.008000   ; qtot 0.561825
 4661         h1    160    bbb    H14   4661 0.06123400   1.008000   ; qtot 0.623059
 4662         c3    160    bbb     C8   4662 -0.72423400  12.010000   ; qtot -0.101175
 4663         h1    160    bbb    H15   4663 0.25637600   1.008000   ; qtot 0.155201
 4664         h1    160    bbb    H16   4664 0.25637600   1.008000   ; qtot 0.411577
 4665         c3    160    bbb     C9   4665 -0.72423400  12.010000   ; qtot -0.312657
 4666         h1    160    bbb    H17   4666 0.25637600   1.008000   ; qtot -0.056281
 4667         h1    160    bbb    H18   4667 0.25637600   1.008000   ; qtot 0.200095
 4668         os    160    bbb     O1   4668 -0.20025300  16.000000   ; qtot -0.000158
; residue  161 bbb rtp bbb q -0.0
 4669         n3    161    bbb     N1   4669 -0.59685800  14.010000   ; qtot -0.597016
 4670         c3    161    bbb     C1   4670 0.10137000  12.010000   ; qtot -0.495646
 4671         h1    161    bbb     H1   4671 0.04411300   1.008000   ; qtot -0.451533
 4672         h1    161    bbb     H2   4672 0.04411300   1.008000   ; qtot -0.407420
 4673         c3    161    bbb     C2   4673 0.10137000  12.010000   ; qtot -0.306050
 4674         h1    161    bbb     H3   4674 0.04411300   1.008000   ; qtot -0.261937
 4675         h1    161    bbb     H4   4675 0.04411300   1.008000   ; qtot -0.217824
 4676         c3    161    bbb     C3   4676 -0.00195300  12.010000   ; qtot -0.219777
 4677         h1    161    bbb     H5   4677 0.05064400   1.008000   ; qtot -0.169133
 4678         h1    161    bbb     H6   4678 0.05064400   1.008000   ; qtot -0.118489
 4679         c3    161    bbb     C4   4679 -0.01612100  12.010000   ; qtot -0.134610
 4680         hc    161    bbb     H7   4680 0.04936100   1.008000   ; qtot -0.085249
 4681         hc    161    bbb     H8   4681 0.04936100   1.008000   ; qtot -0.035888
 4682         c3    161    bbb     C5   4682 0.11363000  12.010000   ; qtot 0.077742
 4683         hc    161    bbb     H9   4683 0.06265900   1.008000   ; qtot 0.140401
 4684         hc    161    bbb    H10   4684 0.06265900   1.008000   ; qtot 0.203060
 4685         c3    161    bbb     C6   4685 0.11363000  12.010000   ; qtot 0.316690
 4686         hc    161    bbb    H11   4686 0.06265900   1.008000   ; qtot 0.379349
 4687         hc    161    bbb    H12   4687 0.06265900   1.008000   ; qtot 0.442008
 4688         c3    161    bbb     C7   4688 0.05858200  12.010000   ; qtot 0.500590
 4689         h1    161    bbb    H13   4689 0.06123400   1.008000   ; qtot 0.561824
 4690         h1    161    bbb    H14   4690 0.06123400   1.008000   ; qtot 0.623058
 4691         c3    161    bbb     C8   4691 -0.72423400  12.010000   ; qtot -0.101176
 4692         h1    161    bbb    H15   4692 0.25637600   1.008000   ; qtot 0.155200
 4693         h1    161    bbb    H16   4693 0.25637600   1.008000   ; qtot 0.411576
 4694         c3    161    bbb     C9   4694 -0.72423400  12.010000   ; qtot -0.312658
 4695         h1    161    bbb    H17   4695 0.25637600   1.008000   ; qtot -0.056282
 4696         h1    161    bbb    H18   4696 0.25637600   1.008000   ; qtot 0.200094
 4697         os    161    bbb     O1   4697 -0.20025300  16.000000   ; qtot -0.000159
; residue  162 bbb rtp bbb q -0.0
 4698         n3    162    bbb     N1   4698 -0.59685800  14.010000   ; qtot -0.597017
 4699         c3    162    bbb     C1   4699 0.10137000  12.010000   ; qtot -0.495647
 4700         h1    162    bbb     H1   4700 0.04411300   1.008000   ; qtot -0.451534
 4701         h1    162    bbb     H2   4701 0.04411300   1.008000   ; qtot -0.407421
 4702         c3    162    bbb     C2   4702 0.10137000  12.010000   ; qtot -0.306051
 4703         h1    162    bbb     H3   4703 0.04411300   1.008000   ; qtot -0.261938
 4704         h1    162    bbb     H4   4704 0.04411300   1.008000   ; qtot -0.217825
 4705         c3    162    bbb     C3   4705 -0.00195300  12.010000   ; qtot -0.219778
 4706         h1    162    bbb     H5   4706 0.05064400   1.008000   ; qtot -0.169134
 4707         h1    162    bbb     H6   4707 0.05064400   1.008000   ; qtot -0.118490
 4708         c3    162    bbb     C4   4708 -0.01612100  12.010000   ; qtot -0.134611
 4709         hc    162    bbb     H7   4709 0.04936100   1.008000   ; qtot -0.085250
 4710         hc    162    bbb     H8   4710 0.04936100   1.008000   ; qtot -0.035889
 4711         c3    162    bbb     C5   4711 0.11363000  12.010000   ; qtot 0.077741
 4712         hc    162    bbb     H9   4712 0.06265900   1.008000   ; qtot 0.140400
 4713         hc    162    bbb    H10   4713 0.06265900   1.008000   ; qtot 0.203059
 4714         c3    162    bbb     C6   4714 0.11363000  12.010000   ; qtot 0.316689
 4715         hc    162    bbb    H11   4715 0.06265900   1.008000   ; qtot 0.379348
 4716         hc    162    bbb    H12   4716 0.06265900   1.008000   ; qtot 0.442007
 4717         c3    162    bbb     C7   4717 0.05858200  12.010000   ; qtot 0.500589
 4718         h1    162    bbb    H13   4718 0.06123400   1.008000   ; qtot 0.561823
 4719         h1    162    bbb    H14   4719 0.06123400   1.008000   ; qtot 0.623057
 4720         c3    162    bbb     C8   4720 -0.72423400  12.010000   ; qtot -0.101177
 4721         h1    162    bbb    H15   4721 0.25637600   1.008000   ; qtot 0.155199
 4722         h1    162    bbb    H16   4722 0.25637600   1.008000   ; qtot 0.411575
 4723         c3    162    bbb     C9   4723 -0.72423400  12.010000   ; qtot -0.312659
 4724         h1    162    bbb    H17   4724 0.25637600   1.008000   ; qtot -0.056283
 4725         h1    162    bbb    H18   4725 0.25637600   1.008000   ; qtot 0.200093
 4726         os    162    bbb     O1   4726 -0.20025300  16.000000   ; qtot -0.000160
; residue  163 bbb rtp bbb q -0.0
 4727         n3    163    bbb     N1   4727 -0.59685800  14.010000   ; qtot -0.597018
 4728         c3    163    bbb     C1   4728 0.10137000  12.010000   ; qtot -0.495648
 4729         h1    163    bbb     H1   4729 0.04411300   1.008000   ; qtot -0.451535
 4730         h1    163    bbb     H2   4730 0.04411300   1.008000   ; qtot -0.407422
 4731         c3    163    bbb     C2   4731 0.10137000  12.010000   ; qtot -0.306052
 4732         h1    163    bbb     H3   4732 0.04411300   1.008000   ; qtot -0.261939
 4733         h1    163    bbb     H4   4733 0.04411300   1.008000   ; qtot -0.217826
 4734         c3    163    bbb     C3   4734 -0.00195300  12.010000   ; qtot -0.219779
 4735         h1    163    bbb     H5   4735 0.05064400   1.008000   ; qtot -0.169135
 4736         h1    163    bbb     H6   4736 0.05064400   1.008000   ; qtot -0.118491
 4737         c3    163    bbb     C4   4737 -0.01612100  12.010000   ; qtot -0.134612
 4738         hc    163    bbb     H7   4738 0.04936100   1.008000   ; qtot -0.085251
 4739         hc    163    bbb     H8   4739 0.04936100   1.008000   ; qtot -0.035890
 4740         c3    163    bbb     C5   4740 0.11363000  12.010000   ; qtot 0.077740
 4741         hc    163    bbb     H9   4741 0.06265900   1.008000   ; qtot 0.140399
 4742         hc    163    bbb    H10   4742 0.06265900   1.008000   ; qtot 0.203058
 4743         c3    163    bbb     C6   4743 0.11363000  12.010000   ; qtot 0.316688
 4744         hc    163    bbb    H11   4744 0.06265900   1.008000   ; qtot 0.379347
 4745         hc    163    bbb    H12   4745 0.06265900   1.008000   ; qtot 0.442006
 4746         c3    163    bbb     C7   4746 0.05858200  12.010000   ; qtot 0.500588
 4747         h1    163    bbb    H13   4747 0.06123400   1.008000   ; qtot 0.561822
 4748         h1    163    bbb    H14   4748 0.06123400   1.008000   ; qtot 0.623056
 4749         c3    163    bbb     C8   4749 -0.72423400  12.010000   ; qtot -0.101178
 4750         h1    163    bbb    H15   4750 0.25637600   1.008000   ; qtot 0.155198
 4751         h1    163    bbb    H16   4751 0.25637600   1.008000   ; qtot 0.411574
 4752         c3    163    bbb     C9   4752 -0.72423400  12.010000   ; qtot -0.312660
 4753         h1    163    bbb    H17   4753 0.25637600   1.008000   ; qtot -0.056284
 4754         h1    163    bbb    H18   4754 0.25637600   1.008000   ; qtot 0.200092
 4755         os    163    bbb     O1   4755 -0.20025300  16.000000   ; qtot -0.000161
; residue  164 bbb rtp bbb q -0.0
 4756         n3    164    bbb     N1   4756 -0.59685800  14.010000   ; qtot -0.597019
 4757         c3    164    bbb     C1   4757 0.10137000  12.010000   ; qtot -0.495649
 4758         h1    164    bbb     H1   4758 0.04411300   1.008000   ; qtot -0.451536
 4759         h1    164    bbb     H2   4759 0.04411300   1.008000   ; qtot -0.407423
 4760         c3    164    bbb     C2   4760 0.10137000  12.010000   ; qtot -0.306053
 4761         h1    164    bbb     H3   4761 0.04411300   1.008000   ; qtot -0.261940
 4762         h1    164    bbb     H4   4762 0.04411300   1.008000   ; qtot -0.217827
 4763         c3    164    bbb     C3   4763 -0.00195300  12.010000   ; qtot -0.219780
 4764         h1    164    bbb     H5   4764 0.05064400   1.008000   ; qtot -0.169136
 4765         h1    164    bbb     H6   4765 0.05064400   1.008000   ; qtot -0.118492
 4766         c3    164    bbb     C4   4766 -0.01612100  12.010000   ; qtot -0.134613
 4767         hc    164    bbb     H7   4767 0.04936100   1.008000   ; qtot -0.085252
 4768         hc    164    bbb     H8   4768 0.04936100   1.008000   ; qtot -0.035891
 4769         c3    164    bbb     C5   4769 0.11363000  12.010000   ; qtot 0.077739
 4770         hc    164    bbb     H9   4770 0.06265900   1.008000   ; qtot 0.140398
 4771         hc    164    bbb    H10   4771 0.06265900   1.008000   ; qtot 0.203057
 4772         c3    164    bbb     C6   4772 0.11363000  12.010000   ; qtot 0.316687
 4773         hc    164    bbb    H11   4773 0.06265900   1.008000   ; qtot 0.379346
 4774         hc    164    bbb    H12   4774 0.06265900   1.008000   ; qtot 0.442005
 4775         c3    164    bbb     C7   4775 0.05858200  12.010000   ; qtot 0.500587
 4776         h1    164    bbb    H13   4776 0.06123400   1.008000   ; qtot 0.561821
 4777         h1    164    bbb    H14   4777 0.06123400   1.008000   ; qtot 0.623055
 4778         c3    164    bbb     C8   4778 -0.72423400  12.010000   ; qtot -0.101179
 4779         h1    164    bbb    H15   4779 0.25637600   1.008000   ; qtot 0.155197
 4780         h1    164    bbb    H16   4780 0.25637600   1.008000   ; qtot 0.411573
 4781         c3    164    bbb     C9   4781 -0.72423400  12.010000   ; qtot -0.312661
 4782         h1    164    bbb    H17   4782 0.25637600   1.008000   ; qtot -0.056285
 4783         h1    164    bbb    H18   4783 0.25637600   1.008000   ; qtot 0.200091
 4784         os    164    bbb     O1   4784 -0.20025300  16.000000   ; qtot -0.000162
; residue  165 bbb rtp bbb q -0.0
 4785         n3    165    bbb     N1   4785 -0.59685800  14.010000   ; qtot -0.597020
 4786         c3    165    bbb     C1   4786 0.10137000  12.010000   ; qtot -0.495650
 4787         h1    165    bbb     H1   4787 0.04411300   1.008000   ; qtot -0.451537
 4788         h1    165    bbb     H2   4788 0.04411300   1.008000   ; qtot -0.407424
 4789         c3    165    bbb     C2   4789 0.10137000  12.010000   ; qtot -0.306054
 4790         h1    165    bbb     H3   4790 0.04411300   1.008000   ; qtot -0.261941
 4791         h1    165    bbb     H4   4791 0.04411300   1.008000   ; qtot -0.217828
 4792         c3    165    bbb     C3   4792 -0.00195300  12.010000   ; qtot -0.219781
 4793         h1    165    bbb     H5   4793 0.05064400   1.008000   ; qtot -0.169137
 4794         h1    165    bbb     H6   4794 0.05064400   1.008000   ; qtot -0.118493
 4795         c3    165    bbb     C4   4795 -0.01612100  12.010000   ; qtot -0.134614
 4796         hc    165    bbb     H7   4796 0.04936100   1.008000   ; qtot -0.085253
 4797         hc    165    bbb     H8   4797 0.04936100   1.008000   ; qtot -0.035892
 4798         c3    165    bbb     C5   4798 0.11363000  12.010000   ; qtot 0.077738
 4799         hc    165    bbb     H9   4799 0.06265900   1.008000   ; qtot 0.140397
 4800         hc    165    bbb    H10   4800 0.06265900   1.008000   ; qtot 0.203056
 4801         c3    165    bbb     C6   4801 0.11363000  12.010000   ; qtot 0.316686
 4802         hc    165    bbb    H11   4802 0.06265900   1.008000   ; qtot 0.379345
 4803         hc    165    bbb    H12   4803 0.06265900   1.008000   ; qtot 0.442004
 4804         c3    165    bbb     C7   4804 0.05858200  12.010000   ; qtot 0.500586
 4805         h1    165    bbb    H13   4805 0.06123400   1.008000   ; qtot 0.561820
 4806         h1    165    bbb    H14   4806 0.06123400   1.008000   ; qtot 0.623054
 4807         c3    165    bbb     C8   4807 -0.72423400  12.010000   ; qtot -0.101180
 4808         h1    165    bbb    H15   4808 0.25637600   1.008000   ; qtot 0.155196
 4809         h1    165    bbb    H16   4809 0.25637600   1.008000   ; qtot 0.411572
 4810         c3    165    bbb     C9   4810 -0.72423400  12.010000   ; qtot -0.312662
 4811         h1    165    bbb    H17   4811 0.25637600   1.008000   ; qtot -0.056286
 4812         h1    165    bbb    H18   4812 0.25637600   1.008000   ; qtot 0.200090
 4813         os    165    bbb     O1   4813 -0.20025300  16.000000   ; qtot -0.000163
; residue  166 bbb rtp bbb q -0.0
 4814         n3    166    bbb     N1   4814 -0.59685800  14.010000   ; qtot -0.597021
 4815         c3    166    bbb     C1   4815 0.10137000  12.010000   ; qtot -0.495651
 4816         h1    166    bbb     H1   4816 0.04411300   1.008000   ; qtot -0.451538
 4817         h1    166    bbb     H2   4817 0.04411300   1.008000   ; qtot -0.407425
 4818         c3    166    bbb     C2   4818 0.10137000  12.010000   ; qtot -0.306055
 4819         h1    166    bbb     H3   4819 0.04411300   1.008000   ; qtot -0.261942
 4820         h1    166    bbb     H4   4820 0.04411300   1.008000   ; qtot -0.217829
 4821         c3    166    bbb     C3   4821 -0.00195300  12.010000   ; qtot -0.219782
 4822         h1    166    bbb     H5   4822 0.05064400   1.008000   ; qtot -0.169138
 4823         h1    166    bbb     H6   4823 0.05064400   1.008000   ; qtot -0.118494
 4824         c3    166    bbb     C4   4824 -0.01612100  12.010000   ; qtot -0.134615
 4825         hc    166    bbb     H7   4825 0.04936100   1.008000   ; qtot -0.085254
 4826         hc    166    bbb     H8   4826 0.04936100   1.008000   ; qtot -0.035893
 4827         c3    166    bbb     C5   4827 0.11363000  12.010000   ; qtot 0.077737
 4828         hc    166    bbb     H9   4828 0.06265900   1.008000   ; qtot 0.140396
 4829         hc    166    bbb    H10   4829 0.06265900   1.008000   ; qtot 0.203055
 4830         c3    166    bbb     C6   4830 0.11363000  12.010000   ; qtot 0.316685
 4831         hc    166    bbb    H11   4831 0.06265900   1.008000   ; qtot 0.379344
 4832         hc    166    bbb    H12   4832 0.06265900   1.008000   ; qtot 0.442003
 4833         c3    166    bbb     C7   4833 0.05858200  12.010000   ; qtot 0.500585
 4834         h1    166    bbb    H13   4834 0.06123400   1.008000   ; qtot 0.561819
 4835         h1    166    bbb    H14   4835 0.06123400   1.008000   ; qtot 0.623053
 4836         c3    166    bbb     C8   4836 -0.72423400  12.010000   ; qtot -0.101181
 4837         h1    166    bbb    H15   4837 0.25637600   1.008000   ; qtot 0.155195
 4838         h1    166    bbb    H16   4838 0.25637600   1.008000   ; qtot 0.411571
 4839         c3    166    bbb     C9   4839 -0.72423400  12.010000   ; qtot -0.312663
 4840         h1    166    bbb    H17   4840 0.25637600   1.008000   ; qtot -0.056287
 4841         h1    166    bbb    H18   4841 0.25637600   1.008000   ; qtot 0.200089
 4842         os    166    bbb     O1   4842 -0.20025300  16.000000   ; qtot -0.000164
; residue  167 bbb rtp bbb q -0.0
 4843         n3    167    bbb     N1   4843 -0.59685800  14.010000   ; qtot -0.597022
 4844         c3    167    bbb     C1   4844 0.10137000  12.010000   ; qtot -0.495652
 4845         h1    167    bbb     H1   4845 0.04411300   1.008000   ; qtot -0.451539
 4846         h1    167    bbb     H2   4846 0.04411300   1.008000   ; qtot -0.407426
 4847         c3    167    bbb     C2   4847 0.10137000  12.010000   ; qtot -0.306056
 4848         h1    167    bbb     H3   4848 0.04411300   1.008000   ; qtot -0.261943
 4849         h1    167    bbb     H4   4849 0.04411300   1.008000   ; qtot -0.217830
 4850         c3    167    bbb     C3   4850 -0.00195300  12.010000   ; qtot -0.219783
 4851         h1    167    bbb     H5   4851 0.05064400   1.008000   ; qtot -0.169139
 4852         h1    167    bbb     H6   4852 0.05064400   1.008000   ; qtot -0.118495
 4853         c3    167    bbb     C4   4853 -0.01612100  12.010000   ; qtot -0.134616
 4854         hc    167    bbb     H7   4854 0.04936100   1.008000   ; qtot -0.085255
 4855         hc    167    bbb     H8   4855 0.04936100   1.008000   ; qtot -0.035894
 4856         c3    167    bbb     C5   4856 0.11363000  12.010000   ; qtot 0.077736
 4857         hc    167    bbb     H9   4857 0.06265900   1.008000   ; qtot 0.140395
 4858         hc    167    bbb    H10   4858 0.06265900   1.008000   ; qtot 0.203054
 4859         c3    167    bbb     C6   4859 0.11363000  12.010000   ; qtot 0.316684
 4860         hc    167    bbb    H11   4860 0.06265900   1.008000   ; qtot 0.379343
 4861         hc    167    bbb    H12   4861 0.06265900   1.008000   ; qtot 0.442002
 4862         c3    167    bbb     C7   4862 0.05858200  12.010000   ; qtot 0.500584
 4863         h1    167    bbb    H13   4863 0.06123400   1.008000   ; qtot 0.561818
 4864         h1    167    bbb    H14   4864 0.06123400   1.008000   ; qtot 0.623052
 4865         c3    167    bbb     C8   4865 -0.72423400  12.010000   ; qtot -0.101182
 4866         h1    167    bbb    H15   4866 0.25637600   1.008000   ; qtot 0.155194
 4867         h1    167    bbb    H16   4867 0.25637600   1.008000   ; qtot 0.411570
 4868         c3    167    bbb     C9   4868 -0.72423400  12.010000   ; qtot -0.312664
 4869         h1    167    bbb    H17   4869 0.25637600   1.008000   ; qtot -0.056288
 4870         h1    167    bbb    H18   4870 0.25637600   1.008000   ; qtot 0.200088
 4871         os    167    bbb     O1   4871 -0.20025300  16.000000   ; qtot -0.000165
; residue  168 bbb rtp bbb q -0.0
 4872         n3    168    bbb     N1   4872 -0.59685800  14.010000   ; qtot -0.597023
 4873         c3    168    bbb     C1   4873 0.10137000  12.010000   ; qtot -0.495653
 4874         h1    168    bbb     H1   4874 0.04411300   1.008000   ; qtot -0.451540
 4875         h1    168    bbb     H2   4875 0.04411300   1.008000   ; qtot -0.407427
 4876         c3    168    bbb     C2   4876 0.10137000  12.010000   ; qtot -0.306057
 4877         h1    168    bbb     H3   4877 0.04411300   1.008000   ; qtot -0.261944
 4878         h1    168    bbb     H4   4878 0.04411300   1.008000   ; qtot -0.217831
 4879         c3    168    bbb     C3   4879 -0.00195300  12.010000   ; qtot -0.219784
 4880         h1    168    bbb     H5   4880 0.05064400   1.008000   ; qtot -0.169140
 4881         h1    168    bbb     H6   4881 0.05064400   1.008000   ; qtot -0.118496
 4882         c3    168    bbb     C4   4882 -0.01612100  12.010000   ; qtot -0.134617
 4883         hc    168    bbb     H7   4883 0.04936100   1.008000   ; qtot -0.085256
 4884         hc    168    bbb     H8   4884 0.04936100   1.008000   ; qtot -0.035895
 4885         c3    168    bbb     C5   4885 0.11363000  12.010000   ; qtot 0.077735
 4886         hc    168    bbb     H9   4886 0.06265900   1.008000   ; qtot 0.140394
 4887         hc    168    bbb    H10   4887 0.06265900   1.008000   ; qtot 0.203053
 4888         c3    168    bbb     C6   4888 0.11363000  12.010000   ; qtot 0.316683
 4889         hc    168    bbb    H11   4889 0.06265900   1.008000   ; qtot 0.379342
 4890         hc    168    bbb    H12   4890 0.06265900   1.008000   ; qtot 0.442001
 4891         c3    168    bbb     C7   4891 0.05858200  12.010000   ; qtot 0.500583
 4892         h1    168    bbb    H13   4892 0.06123400   1.008000   ; qtot 0.561817
 4893         h1    168    bbb    H14   4893 0.06123400   1.008000   ; qtot 0.623051
 4894         c3    168    bbb     C8   4894 -0.72423400  12.010000   ; qtot -0.101183
 4895         h1    168    bbb    H15   4895 0.25637600   1.008000   ; qtot 0.155193
 4896         h1    168    bbb    H16   4896 0.25637600   1.008000   ; qtot 0.411569
 4897         c3    168    bbb     C9   4897 -0.72423400  12.010000   ; qtot -0.312665
 4898         h1    168    bbb    H17   4898 0.25637600   1.008000   ; qtot -0.056289
 4899         h1    168    bbb    H18   4899 0.25637600   1.008000   ; qtot 0.200087
 4900         os    168    bbb     O1   4900 -0.20025300  16.000000   ; qtot -0.000166
; residue  169 bbb rtp bbb q -0.0
 4901         n3    169    bbb     N1   4901 -0.59685800  14.010000   ; qtot -0.597024
 4902         c3    169    bbb     C1   4902 0.10137000  12.010000   ; qtot -0.495654
 4903         h1    169    bbb     H1   4903 0.04411300   1.008000   ; qtot -0.451541
 4904         h1    169    bbb     H2   4904 0.04411300   1.008000   ; qtot -0.407428
 4905         c3    169    bbb     C2   4905 0.10137000  12.010000   ; qtot -0.306058
 4906         h1    169    bbb     H3   4906 0.04411300   1.008000   ; qtot -0.261945
 4907         h1    169    bbb     H4   4907 0.04411300   1.008000   ; qtot -0.217832
 4908         c3    169    bbb     C3   4908 -0.00195300  12.010000   ; qtot -0.219785
 4909         h1    169    bbb     H5   4909 0.05064400   1.008000   ; qtot -0.169141
 4910         h1    169    bbb     H6   4910 0.05064400   1.008000   ; qtot -0.118497
 4911         c3    169    bbb     C4   4911 -0.01612100  12.010000   ; qtot -0.134618
 4912         hc    169    bbb     H7   4912 0.04936100   1.008000   ; qtot -0.085257
 4913         hc    169    bbb     H8   4913 0.04936100   1.008000   ; qtot -0.035896
 4914         c3    169    bbb     C5   4914 0.11363000  12.010000   ; qtot 0.077734
 4915         hc    169    bbb     H9   4915 0.06265900   1.008000   ; qtot 0.140393
 4916         hc    169    bbb    H10   4916 0.06265900   1.008000   ; qtot 0.203052
 4917         c3    169    bbb     C6   4917 0.11363000  12.010000   ; qtot 0.316682
 4918         hc    169    bbb    H11   4918 0.06265900   1.008000   ; qtot 0.379341
 4919         hc    169    bbb    H12   4919 0.06265900   1.008000   ; qtot 0.442000
 4920         c3    169    bbb     C7   4920 0.05858200  12.010000   ; qtot 0.500582
 4921         h1    169    bbb    H13   4921 0.06123400   1.008000   ; qtot 0.561816
 4922         h1    169    bbb    H14   4922 0.06123400   1.008000   ; qtot 0.623050
 4923         c3    169    bbb     C8   4923 -0.72423400  12.010000   ; qtot -0.101184
 4924         h1    169    bbb    H15   4924 0.25637600   1.008000   ; qtot 0.155192
 4925         h1    169    bbb    H16   4925 0.25637600   1.008000   ; qtot 0.411568
 4926         c3    169    bbb     C9   4926 -0.72423400  12.010000   ; qtot -0.312666
 4927         h1    169    bbb    H17   4927 0.25637600   1.008000   ; qtot -0.056290
 4928         h1    169    bbb    H18   4928 0.25637600   1.008000   ; qtot 0.200086
 4929         os    169    bbb     O1   4929 -0.20025300  16.000000   ; qtot -0.000167
; residue  170 bbb rtp bbb q -0.0
 4930         n3    170    bbb     N1   4930 -0.59685800  14.010000   ; qtot -0.597025
 4931         c3    170    bbb     C1   4931 0.10137000  12.010000   ; qtot -0.495655
 4932         h1    170    bbb     H1   4932 0.04411300   1.008000   ; qtot -0.451542
 4933         h1    170    bbb     H2   4933 0.04411300   1.008000   ; qtot -0.407429
 4934         c3    170    bbb     C2   4934 0.10137000  12.010000   ; qtot -0.306059
 4935         h1    170    bbb     H3   4935 0.04411300   1.008000   ; qtot -0.261946
 4936         h1    170    bbb     H4   4936 0.04411300   1.008000   ; qtot -0.217833
 4937         c3    170    bbb     C3   4937 -0.00195300  12.010000   ; qtot -0.219786
 4938         h1    170    bbb     H5   4938 0.05064400   1.008000   ; qtot -0.169142
 4939         h1    170    bbb     H6   4939 0.05064400   1.008000   ; qtot -0.118498
 4940         c3    170    bbb     C4   4940 -0.01612100  12.010000   ; qtot -0.134619
 4941         hc    170    bbb     H7   4941 0.04936100   1.008000   ; qtot -0.085258
 4942         hc    170    bbb     H8   4942 0.04936100   1.008000   ; qtot -0.035897
 4943         c3    170    bbb     C5   4943 0.11363000  12.010000   ; qtot 0.077733
 4944         hc    170    bbb     H9   4944 0.06265900   1.008000   ; qtot 0.140392
 4945         hc    170    bbb    H10   4945 0.06265900   1.008000   ; qtot 0.203051
 4946         c3    170    bbb     C6   4946 0.11363000  12.010000   ; qtot 0.316681
 4947         hc    170    bbb    H11   4947 0.06265900   1.008000   ; qtot 0.379340
 4948         hc    170    bbb    H12   4948 0.06265900   1.008000   ; qtot 0.441999
 4949         c3    170    bbb     C7   4949 0.05858200  12.010000   ; qtot 0.500581
 4950         h1    170    bbb    H13   4950 0.06123400   1.008000   ; qtot 0.561815
 4951         h1    170    bbb    H14   4951 0.06123400   1.008000   ; qtot 0.623049
 4952         c3    170    bbb     C8   4952 -0.72423400  12.010000   ; qtot -0.101185
 4953         h1    170    bbb    H15   4953 0.25637600   1.008000   ; qtot 0.155191
 4954         h1    170    bbb    H16   4954 0.25637600   1.008000   ; qtot 0.411567
 4955         c3    170    bbb     C9   4955 -0.72423400  12.010000   ; qtot -0.312667
 4956         h1    170    bbb    H17   4956 0.25637600   1.008000   ; qtot -0.056291
 4957         h1    170    bbb    H18   4957 0.25637600   1.008000   ; qtot 0.200085
 4958         os    170    bbb     O1   4958 -0.20025300  16.000000   ; qtot -0.000168
; residue  171 bbb rtp bbb q -0.0
 4959         n3    171    bbb     N1   4959 -0.59685800  14.010000   ; qtot -0.597026
 4960         c3    171    bbb     C1   4960 0.10137000  12.010000   ; qtot -0.495656
 4961         h1    171    bbb     H1   4961 0.04411300   1.008000   ; qtot -0.451543
 4962         h1    171    bbb     H2   4962 0.04411300   1.008000   ; qtot -0.407430
 4963         c3    171    bbb     C2   4963 0.10137000  12.010000   ; qtot -0.306060
 4964         h1    171    bbb     H3   4964 0.04411300   1.008000   ; qtot -0.261947
 4965         h1    171    bbb     H4   4965 0.04411300   1.008000   ; qtot -0.217834
 4966         c3    171    bbb     C3   4966 -0.00195300  12.010000   ; qtot -0.219787
 4967         h1    171    bbb     H5   4967 0.05064400   1.008000   ; qtot -0.169143
 4968         h1    171    bbb     H6   4968 0.05064400   1.008000   ; qtot -0.118499
 4969         c3    171    bbb     C4   4969 -0.01612100  12.010000   ; qtot -0.134620
 4970         hc    171    bbb     H7   4970 0.04936100   1.008000   ; qtot -0.085259
 4971         hc    171    bbb     H8   4971 0.04936100   1.008000   ; qtot -0.035898
 4972         c3    171    bbb     C5   4972 0.11363000  12.010000   ; qtot 0.077732
 4973         hc    171    bbb     H9   4973 0.06265900   1.008000   ; qtot 0.140391
 4974         hc    171    bbb    H10   4974 0.06265900   1.008000   ; qtot 0.203050
 4975         c3    171    bbb     C6   4975 0.11363000  12.010000   ; qtot 0.316680
 4976         hc    171    bbb    H11   4976 0.06265900   1.008000   ; qtot 0.379339
 4977         hc    171    bbb    H12   4977 0.06265900   1.008000   ; qtot 0.441998
 4978         c3    171    bbb     C7   4978 0.05858200  12.010000   ; qtot 0.500580
 4979         h1    171    bbb    H13   4979 0.06123400   1.008000   ; qtot 0.561814
 4980         h1    171    bbb    H14   4980 0.06123400   1.008000   ; qtot 0.623048
 4981         c3    171    bbb     C8   4981 -0.72423400  12.010000   ; qtot -0.101186
 4982         h1    171    bbb    H15   4982 0.25637600   1.008000   ; qtot 0.155190
 4983         h1    171    bbb    H16   4983 0.25637600   1.008000   ; qtot 0.411566
 4984         c3    171    bbb     C9   4984 -0.72423400  12.010000   ; qtot -0.312668
 4985         h1    171    bbb    H17   4985 0.25637600   1.008000   ; qtot -0.056292
 4986         h1    171    bbb    H18   4986 0.25637600   1.008000   ; qtot 0.200084
 4987         os    171    bbb     O1   4987 -0.20025300  16.000000   ; qtot -0.000169
; residue  172 bbb rtp bbb q -0.0
 4988         n3    172    bbb     N1   4988 -0.59685800  14.010000   ; qtot -0.597027
 4989         c3    172    bbb     C1   4989 0.10137000  12.010000   ; qtot -0.495657
 4990         h1    172    bbb     H1   4990 0.04411300   1.008000   ; qtot -0.451544
 4991         h1    172    bbb     H2   4991 0.04411300   1.008000   ; qtot -0.407431
 4992         c3    172    bbb     C2   4992 0.10137000  12.010000   ; qtot -0.306061
 4993         h1    172    bbb     H3   4993 0.04411300   1.008000   ; qtot -0.261948
 4994         h1    172    bbb     H4   4994 0.04411300   1.008000   ; qtot -0.217835
 4995         c3    172    bbb     C3   4995 -0.00195300  12.010000   ; qtot -0.219788
 4996         h1    172    bbb     H5   4996 0.05064400   1.008000   ; qtot -0.169144
 4997         h1    172    bbb     H6   4997 0.05064400   1.008000   ; qtot -0.118500
 4998         c3    172    bbb     C4   4998 -0.01612100  12.010000   ; qtot -0.134621
 4999         hc    172    bbb     H7   4999 0.04936100   1.008000   ; qtot -0.085260
 5000         hc    172    bbb     H8   5000 0.04936100   1.008000   ; qtot -0.035899
 5001         c3    172    bbb     C5   5001 0.11363000  12.010000   ; qtot 0.077731
 5002         hc    172    bbb     H9   5002 0.06265900   1.008000   ; qtot 0.140390
 5003         hc    172    bbb    H10   5003 0.06265900   1.008000   ; qtot 0.203049
 5004         c3    172    bbb     C6   5004 0.11363000  12.010000   ; qtot 0.316679
 5005         hc    172    bbb    H11   5005 0.06265900   1.008000   ; qtot 0.379338
 5006         hc    172    bbb    H12   5006 0.06265900   1.008000   ; qtot 0.441997
 5007         c3    172    bbb     C7   5007 0.05858200  12.010000   ; qtot 0.500579
 5008         h1    172    bbb    H13   5008 0.06123400   1.008000   ; qtot 0.561813
 5009         h1    172    bbb    H14   5009 0.06123400   1.008000   ; qtot 0.623047
 5010         c3    172    bbb     C8   5010 -0.72423400  12.010000   ; qtot -0.101187
 5011         h1    172    bbb    H15   5011 0.25637600   1.008000   ; qtot 0.155189
 5012         h1    172    bbb    H16   5012 0.25637600   1.008000   ; qtot 0.411565
 5013         c3    172    bbb     C9   5013 -0.72423400  12.010000   ; qtot -0.312669
 5014         h1    172    bbb    H17   5014 0.25637600   1.008000   ; qtot -0.056293
 5015         h1    172    bbb    H18   5015 0.25637600   1.008000   ; qtot 0.200083
 5016         os    172    bbb     O1   5016 -0.20025300  16.000000   ; qtot -0.000170
; residue  173 bbb rtp bbb q -0.0
 5017         n3    173    bbb     N1   5017 -0.59685800  14.010000   ; qtot -0.597028
 5018         c3    173    bbb     C1   5018 0.10137000  12.010000   ; qtot -0.495658
 5019         h1    173    bbb     H1   5019 0.04411300   1.008000   ; qtot -0.451545
 5020         h1    173    bbb     H2   5020 0.04411300   1.008000   ; qtot -0.407432
 5021         c3    173    bbb     C2   5021 0.10137000  12.010000   ; qtot -0.306062
 5022         h1    173    bbb     H3   5022 0.04411300   1.008000   ; qtot -0.261949
 5023         h1    173    bbb     H4   5023 0.04411300   1.008000   ; qtot -0.217836
 5024         c3    173    bbb     C3   5024 -0.00195300  12.010000   ; qtot -0.219789
 5025         h1    173    bbb     H5   5025 0.05064400   1.008000   ; qtot -0.169145
 5026         h1    173    bbb     H6   5026 0.05064400   1.008000   ; qtot -0.118501
 5027         c3    173    bbb     C4   5027 -0.01612100  12.010000   ; qtot -0.134622
 5028         hc    173    bbb     H7   5028 0.04936100   1.008000   ; qtot -0.085261
 5029         hc    173    bbb     H8   5029 0.04936100   1.008000   ; qtot -0.035900
 5030         c3    173    bbb     C5   5030 0.11363000  12.010000   ; qtot 0.077730
 5031         hc    173    bbb     H9   5031 0.06265900   1.008000   ; qtot 0.140389
 5032         hc    173    bbb    H10   5032 0.06265900   1.008000   ; qtot 0.203048
 5033         c3    173    bbb     C6   5033 0.11363000  12.010000   ; qtot 0.316678
 5034         hc    173    bbb    H11   5034 0.06265900   1.008000   ; qtot 0.379337
 5035         hc    173    bbb    H12   5035 0.06265900   1.008000   ; qtot 0.441996
 5036         c3    173    bbb     C7   5036 0.05858200  12.010000   ; qtot 0.500578
 5037         h1    173    bbb    H13   5037 0.06123400   1.008000   ; qtot 0.561812
 5038         h1    173    bbb    H14   5038 0.06123400   1.008000   ; qtot 0.623046
 5039         c3    173    bbb     C8   5039 -0.72423400  12.010000   ; qtot -0.101188
 5040         h1    173    bbb    H15   5040 0.25637600   1.008000   ; qtot 0.155188
 5041         h1    173    bbb    H16   5041 0.25637600   1.008000   ; qtot 0.411564
 5042         c3    173    bbb     C9   5042 -0.72423400  12.010000   ; qtot -0.312670
 5043         h1    173    bbb    H17   5043 0.25637600   1.008000   ; qtot -0.056294
 5044         h1    173    bbb    H18   5044 0.25637600   1.008000   ; qtot 0.200082
 5045         os    173    bbb     O1   5045 -0.20025300  16.000000   ; qtot -0.000171
; residue  174 bbb rtp bbb q -0.0
 5046         n3    174    bbb     N1   5046 -0.59685800  14.010000   ; qtot -0.597029
 5047         c3    174    bbb     C1   5047 0.10137000  12.010000   ; qtot -0.495659
 5048         h1    174    bbb     H1   5048 0.04411300   1.008000   ; qtot -0.451546
 5049         h1    174    bbb     H2   5049 0.04411300   1.008000   ; qtot -0.407433
 5050         c3    174    bbb     C2   5050 0.10137000  12.010000   ; qtot -0.306063
 5051         h1    174    bbb     H3   5051 0.04411300   1.008000   ; qtot -0.261950
 5052         h1    174    bbb     H4   5052 0.04411300   1.008000   ; qtot -0.217837
 5053         c3    174    bbb     C3   5053 -0.00195300  12.010000   ; qtot -0.219790
 5054         h1    174    bbb     H5   5054 0.05064400   1.008000   ; qtot -0.169146
 5055         h1    174    bbb     H6   5055 0.05064400   1.008000   ; qtot -0.118502
 5056         c3    174    bbb     C4   5056 -0.01612100  12.010000   ; qtot -0.134623
 5057         hc    174    bbb     H7   5057 0.04936100   1.008000   ; qtot -0.085262
 5058         hc    174    bbb     H8   5058 0.04936100   1.008000   ; qtot -0.035901
 5059         c3    174    bbb     C5   5059 0.11363000  12.010000   ; qtot 0.077729
 5060         hc    174    bbb     H9   5060 0.06265900   1.008000   ; qtot 0.140388
 5061         hc    174    bbb    H10   5061 0.06265900   1.008000   ; qtot 0.203047
 5062         c3    174    bbb     C6   5062 0.11363000  12.010000   ; qtot 0.316677
 5063         hc    174    bbb    H11   5063 0.06265900   1.008000   ; qtot 0.379336
 5064         hc    174    bbb    H12   5064 0.06265900   1.008000   ; qtot 0.441995
 5065         c3    174    bbb     C7   5065 0.05858200  12.010000   ; qtot 0.500577
 5066         h1    174    bbb    H13   5066 0.06123400   1.008000   ; qtot 0.561811
 5067         h1    174    bbb    H14   5067 0.06123400   1.008000   ; qtot 0.623045
 5068         c3    174    bbb     C8   5068 -0.72423400  12.010000   ; qtot -0.101189
 5069         h1    174    bbb    H15   5069 0.25637600   1.008000   ; qtot 0.155187
 5070         h1    174    bbb    H16   5070 0.25637600   1.008000   ; qtot 0.411563
 5071         c3    174    bbb     C9   5071 -0.72423400  12.010000   ; qtot -0.312671
 5072         h1    174    bbb    H17   5072 0.25637600   1.008000   ; qtot -0.056295
 5073         h1    174    bbb    H18   5073 0.25637600   1.008000   ; qtot 0.200081
 5074         os    174    bbb     O1   5074 -0.20025300  16.000000   ; qtot -0.000172
; residue  175 bbb rtp bbb q -0.0
 5075         n3    175    bbb     N1   5075 -0.59685800  14.010000   ; qtot -0.597030
 5076         c3    175    bbb     C1   5076 0.10137000  12.010000   ; qtot -0.495660
 5077         h1    175    bbb     H1   5077 0.04411300   1.008000   ; qtot -0.451547
 5078         h1    175    bbb     H2   5078 0.04411300   1.008000   ; qtot -0.407434
 5079         c3    175    bbb     C2   5079 0.10137000  12.010000   ; qtot -0.306064
 5080         h1    175    bbb     H3   5080 0.04411300   1.008000   ; qtot -0.261951
 5081         h1    175    bbb     H4   5081 0.04411300   1.008000   ; qtot -0.217838
 5082         c3    175    bbb     C3   5082 -0.00195300  12.010000   ; qtot -0.219791
 5083         h1    175    bbb     H5   5083 0.05064400   1.008000   ; qtot -0.169147
 5084         h1    175    bbb     H6   5084 0.05064400   1.008000   ; qtot -0.118503
 5085         c3    175    bbb     C4   5085 -0.01612100  12.010000   ; qtot -0.134624
 5086         hc    175    bbb     H7   5086 0.04936100   1.008000   ; qtot -0.085263
 5087         hc    175    bbb     H8   5087 0.04936100   1.008000   ; qtot -0.035902
 5088         c3    175    bbb     C5   5088 0.11363000  12.010000   ; qtot 0.077728
 5089         hc    175    bbb     H9   5089 0.06265900   1.008000   ; qtot 0.140387
 5090         hc    175    bbb    H10   5090 0.06265900   1.008000   ; qtot 0.203046
 5091         c3    175    bbb     C6   5091 0.11363000  12.010000   ; qtot 0.316676
 5092         hc    175    bbb    H11   5092 0.06265900   1.008000   ; qtot 0.379335
 5093         hc    175    bbb    H12   5093 0.06265900   1.008000   ; qtot 0.441994
 5094         c3    175    bbb     C7   5094 0.05858200  12.010000   ; qtot 0.500576
 5095         h1    175    bbb    H13   5095 0.06123400   1.008000   ; qtot 0.561810
 5096         h1    175    bbb    H14   5096 0.06123400   1.008000   ; qtot 0.623044
 5097         c3    175    bbb     C8   5097 -0.72423400  12.010000   ; qtot -0.101190
 5098         h1    175    bbb    H15   5098 0.25637600   1.008000   ; qtot 0.155186
 5099         h1    175    bbb    H16   5099 0.25637600   1.008000   ; qtot 0.411562
 5100         c3    175    bbb     C9   5100 -0.72423400  12.010000   ; qtot -0.312672
 5101         h1    175    bbb    H17   5101 0.25637600   1.008000   ; qtot -0.056296
 5102         h1    175    bbb    H18   5102 0.25637600   1.008000   ; qtot 0.200080
 5103         os    175    bbb     O1   5103 -0.20025300  16.000000   ; qtot -0.000173
; residue  176 bbb rtp bbb q -0.0
 5104         n3    176    bbb     N1   5104 -0.59685800  14.010000   ; qtot -0.597031
 5105         c3    176    bbb     C1   5105 0.10137000  12.010000   ; qtot -0.495661
 5106         h1    176    bbb     H1   5106 0.04411300   1.008000   ; qtot -0.451548
 5107         h1    176    bbb     H2   5107 0.04411300   1.008000   ; qtot -0.407435
 5108         c3    176    bbb     C2   5108 0.10137000  12.010000   ; qtot -0.306065
 5109         h1    176    bbb     H3   5109 0.04411300   1.008000   ; qtot -0.261952
 5110         h1    176    bbb     H4   5110 0.04411300   1.008000   ; qtot -0.217839
 5111         c3    176    bbb     C3   5111 -0.00195300  12.010000   ; qtot -0.219792
 5112         h1    176    bbb     H5   5112 0.05064400   1.008000   ; qtot -0.169148
 5113         h1    176    bbb     H6   5113 0.05064400   1.008000   ; qtot -0.118504
 5114         c3    176    bbb     C4   5114 -0.01612100  12.010000   ; qtot -0.134625
 5115         hc    176    bbb     H7   5115 0.04936100   1.008000   ; qtot -0.085264
 5116         hc    176    bbb     H8   5116 0.04936100   1.008000   ; qtot -0.035903
 5117         c3    176    bbb     C5   5117 0.11363000  12.010000   ; qtot 0.077727
 5118         hc    176    bbb     H9   5118 0.06265900   1.008000   ; qtot 0.140386
 5119         hc    176    bbb    H10   5119 0.06265900   1.008000   ; qtot 0.203045
 5120         c3    176    bbb     C6   5120 0.11363000  12.010000   ; qtot 0.316675
 5121         hc    176    bbb    H11   5121 0.06265900   1.008000   ; qtot 0.379334
 5122         hc    176    bbb    H12   5122 0.06265900   1.008000   ; qtot 0.441993
 5123         c3    176    bbb     C7   5123 0.05858200  12.010000   ; qtot 0.500575
 5124         h1    176    bbb    H13   5124 0.06123400   1.008000   ; qtot 0.561809
 5125         h1    176    bbb    H14   5125 0.06123400   1.008000   ; qtot 0.623043
 5126         c3    176    bbb     C8   5126 -0.72423400  12.010000   ; qtot -0.101191
 5127         h1    176    bbb    H15   5127 0.25637600   1.008000   ; qtot 0.155185
 5128         h1    176    bbb    H16   5128 0.25637600   1.008000   ; qtot 0.411561
 5129         c3    176    bbb     C9   5129 -0.72423400  12.010000   ; qtot -0.312673
 5130         h1    176    bbb    H17   5130 0.25637600   1.008000   ; qtot -0.056297
 5131         h1    176    bbb    H18   5131 0.25637600   1.008000   ; qtot 0.200079
 5132         os    176    bbb     O1   5132 -0.20025300  16.000000   ; qtot -0.000174
; residue  177 bbb rtp bbb q -0.0
 5133         n3    177    bbb     N1   5133 -0.59685800  14.010000   ; qtot -0.597032
 5134         c3    177    bbb     C1   5134 0.10137000  12.010000   ; qtot -0.495662
 5135         h1    177    bbb     H1   5135 0.04411300   1.008000   ; qtot -0.451549
 5136         h1    177    bbb     H2   5136 0.04411300   1.008000   ; qtot -0.407436
 5137         c3    177    bbb     C2   5137 0.10137000  12.010000   ; qtot -0.306066
 5138         h1    177    bbb     H3   5138 0.04411300   1.008000   ; qtot -0.261953
 5139         h1    177    bbb     H4   5139 0.04411300   1.008000   ; qtot -0.217840
 5140         c3    177    bbb     C3   5140 -0.00195300  12.010000   ; qtot -0.219793
 5141         h1    177    bbb     H5   5141 0.05064400   1.008000   ; qtot -0.169149
 5142         h1    177    bbb     H6   5142 0.05064400   1.008000   ; qtot -0.118505
 5143         c3    177    bbb     C4   5143 -0.01612100  12.010000   ; qtot -0.134626
 5144         hc    177    bbb     H7   5144 0.04936100   1.008000   ; qtot -0.085265
 5145         hc    177    bbb     H8   5145 0.04936100   1.008000   ; qtot -0.035904
 5146         c3    177    bbb     C5   5146 0.11363000  12.010000   ; qtot 0.077726
 5147         hc    177    bbb     H9   5147 0.06265900   1.008000   ; qtot 0.140385
 5148         hc    177    bbb    H10   5148 0.06265900   1.008000   ; qtot 0.203044
 5149         c3    177    bbb     C6   5149 0.11363000  12.010000   ; qtot 0.316674
 5150         hc    177    bbb    H11   5150 0.06265900   1.008000   ; qtot 0.379333
 5151         hc    177    bbb    H12   5151 0.06265900   1.008000   ; qtot 0.441992
 5152         c3    177    bbb     C7   5152 0.05858200  12.010000   ; qtot 0.500574
 5153         h1    177    bbb    H13   5153 0.06123400   1.008000   ; qtot 0.561808
 5154         h1    177    bbb    H14   5154 0.06123400   1.008000   ; qtot 0.623042
 5155         c3    177    bbb     C8   5155 -0.72423400  12.010000   ; qtot -0.101192
 5156         h1    177    bbb    H15   5156 0.25637600   1.008000   ; qtot 0.155184
 5157         h1    177    bbb    H16   5157 0.25637600   1.008000   ; qtot 0.411560
 5158         c3    177    bbb     C9   5158 -0.72423400  12.010000   ; qtot -0.312674
 5159         h1    177    bbb    H17   5159 0.25637600   1.008000   ; qtot -0.056298
 5160         h1    177    bbb    H18   5160 0.25637600   1.008000   ; qtot 0.200078
 5161         os    177    bbb     O1   5161 -0.20025300  16.000000   ; qtot -0.000175
; residue  178 bbb rtp bbb q -0.0
 5162         n3    178    bbb     N1   5162 -0.59685800  14.010000   ; qtot -0.597033
 5163         c3    178    bbb     C1   5163 0.10137000  12.010000   ; qtot -0.495663
 5164         h1    178    bbb     H1   5164 0.04411300   1.008000   ; qtot -0.451550
 5165         h1    178    bbb     H2   5165 0.04411300   1.008000   ; qtot -0.407437
 5166         c3    178    bbb     C2   5166 0.10137000  12.010000   ; qtot -0.306067
 5167         h1    178    bbb     H3   5167 0.04411300   1.008000   ; qtot -0.261954
 5168         h1    178    bbb     H4   5168 0.04411300   1.008000   ; qtot -0.217841
 5169         c3    178    bbb     C3   5169 -0.00195300  12.010000   ; qtot -0.219794
 5170         h1    178    bbb     H5   5170 0.05064400   1.008000   ; qtot -0.169150
 5171         h1    178    bbb     H6   5171 0.05064400   1.008000   ; qtot -0.118506
 5172         c3    178    bbb     C4   5172 -0.01612100  12.010000   ; qtot -0.134627
 5173         hc    178    bbb     H7   5173 0.04936100   1.008000   ; qtot -0.085266
 5174         hc    178    bbb     H8   5174 0.04936100   1.008000   ; qtot -0.035905
 5175         c3    178    bbb     C5   5175 0.11363000  12.010000   ; qtot 0.077725
 5176         hc    178    bbb     H9   5176 0.06265900   1.008000   ; qtot 0.140384
 5177         hc    178    bbb    H10   5177 0.06265900   1.008000   ; qtot 0.203043
 5178         c3    178    bbb     C6   5178 0.11363000  12.010000   ; qtot 0.316673
 5179         hc    178    bbb    H11   5179 0.06265900   1.008000   ; qtot 0.379332
 5180         hc    178    bbb    H12   5180 0.06265900   1.008000   ; qtot 0.441991
 5181         c3    178    bbb     C7   5181 0.05858200  12.010000   ; qtot 0.500573
 5182         h1    178    bbb    H13   5182 0.06123400   1.008000   ; qtot 0.561807
 5183         h1    178    bbb    H14   5183 0.06123400   1.008000   ; qtot 0.623041
 5184         c3    178    bbb     C8   5184 -0.72423400  12.010000   ; qtot -0.101193
 5185         h1    178    bbb    H15   5185 0.25637600   1.008000   ; qtot 0.155183
 5186         h1    178    bbb    H16   5186 0.25637600   1.008000   ; qtot 0.411559
 5187         c3    178    bbb     C9   5187 -0.72423400  12.010000   ; qtot -0.312675
 5188         h1    178    bbb    H17   5188 0.25637600   1.008000   ; qtot -0.056299
 5189         h1    178    bbb    H18   5189 0.25637600   1.008000   ; qtot 0.200077
 5190         os    178    bbb     O1   5190 -0.20025300  16.000000   ; qtot -0.000176
; residue  179 bbb rtp bbb q -0.0
 5191         n3    179    bbb     N1   5191 -0.59685800  14.010000   ; qtot -0.597034
 5192         c3    179    bbb     C1   5192 0.10137000  12.010000   ; qtot -0.495664
 5193         h1    179    bbb     H1   5193 0.04411300   1.008000   ; qtot -0.451551
 5194         h1    179    bbb     H2   5194 0.04411300   1.008000   ; qtot -0.407438
 5195         c3    179    bbb     C2   5195 0.10137000  12.010000   ; qtot -0.306068
 5196         h1    179    bbb     H3   5196 0.04411300   1.008000   ; qtot -0.261955
 5197         h1    179    bbb     H4   5197 0.04411300   1.008000   ; qtot -0.217842
 5198         c3    179    bbb     C3   5198 -0.00195300  12.010000   ; qtot -0.219795
 5199         h1    179    bbb     H5   5199 0.05064400   1.008000   ; qtot -0.169151
 5200         h1    179    bbb     H6   5200 0.05064400   1.008000   ; qtot -0.118507
 5201         c3    179    bbb     C4   5201 -0.01612100  12.010000   ; qtot -0.134628
 5202         hc    179    bbb     H7   5202 0.04936100   1.008000   ; qtot -0.085267
 5203         hc    179    bbb     H8   5203 0.04936100   1.008000   ; qtot -0.035906
 5204         c3    179    bbb     C5   5204 0.11363000  12.010000   ; qtot 0.077724
 5205         hc    179    bbb     H9   5205 0.06265900   1.008000   ; qtot 0.140383
 5206         hc    179    bbb    H10   5206 0.06265900   1.008000   ; qtot 0.203042
 5207         c3    179    bbb     C6   5207 0.11363000  12.010000   ; qtot 0.316672
 5208         hc    179    bbb    H11   5208 0.06265900   1.008000   ; qtot 0.379331
 5209         hc    179    bbb    H12   5209 0.06265900   1.008000   ; qtot 0.441990
 5210         c3    179    bbb     C7   5210 0.05858200  12.010000   ; qtot 0.500572
 5211         h1    179    bbb    H13   5211 0.06123400   1.008000   ; qtot 0.561806
 5212         h1    179    bbb    H14   5212 0.06123400   1.008000   ; qtot 0.623040
 5213         c3    179    bbb     C8   5213 -0.72423400  12.010000   ; qtot -0.101194
 5214         h1    179    bbb    H15   5214 0.25637600   1.008000   ; qtot 0.155182
 5215         h1    179    bbb    H16   5215 0.25637600   1.008000   ; qtot 0.411558
 5216         c3    179    bbb     C9   5216 -0.72423400  12.010000   ; qtot -0.312676
 5217         h1    179    bbb    H17   5217 0.25637600   1.008000   ; qtot -0.056300
 5218         h1    179    bbb    H18   5218 0.25637600   1.008000   ; qtot 0.200076
 5219         os    179    bbb     O1   5219 -0.20025300  16.000000   ; qtot -0.000177
; residue  180 bbb rtp bbb q -0.0
 5220         n3    180    bbb     N1   5220 -0.59685800  14.010000   ; qtot -0.597035
 5221         c3    180    bbb     C1   5221 0.10137000  12.010000   ; qtot -0.495665
 5222         h1    180    bbb     H1   5222 0.04411300   1.008000   ; qtot -0.451552
 5223         h1    180    bbb     H2   5223 0.04411300   1.008000   ; qtot -0.407439
 5224         c3    180    bbb     C2   5224 0.10137000  12.010000   ; qtot -0.306069
 5225         h1    180    bbb     H3   5225 0.04411300   1.008000   ; qtot -0.261956
 5226         h1    180    bbb     H4   5226 0.04411300   1.008000   ; qtot -0.217843
 5227         c3    180    bbb     C3   5227 -0.00195300  12.010000   ; qtot -0.219796
 5228         h1    180    bbb     H5   5228 0.05064400   1.008000   ; qtot -0.169152
 5229         h1    180    bbb     H6   5229 0.05064400   1.008000   ; qtot -0.118508
 5230         c3    180    bbb     C4   5230 -0.01612100  12.010000   ; qtot -0.134629
 5231         hc    180    bbb     H7   5231 0.04936100   1.008000   ; qtot -0.085268
 5232         hc    180    bbb     H8   5232 0.04936100   1.008000   ; qtot -0.035907
 5233         c3    180    bbb     C5   5233 0.11363000  12.010000   ; qtot 0.077723
 5234         hc    180    bbb     H9   5234 0.06265900   1.008000   ; qtot 0.140382
 5235         hc    180    bbb    H10   5235 0.06265900   1.008000   ; qtot 0.203041
 5236         c3    180    bbb     C6   5236 0.11363000  12.010000   ; qtot 0.316671
 5237         hc    180    bbb    H11   5237 0.06265900   1.008000   ; qtot 0.379330
 5238         hc    180    bbb    H12   5238 0.06265900   1.008000   ; qtot 0.441989
 5239         c3    180    bbb     C7   5239 0.05858200  12.010000   ; qtot 0.500571
 5240         h1    180    bbb    H13   5240 0.06123400   1.008000   ; qtot 0.561805
 5241         h1    180    bbb    H14   5241 0.06123400   1.008000   ; qtot 0.623039
 5242         c3    180    bbb     C8   5242 -0.72423400  12.010000   ; qtot -0.101195
 5243         h1    180    bbb    H15   5243 0.25637600   1.008000   ; qtot 0.155181
 5244         h1    180    bbb    H16   5244 0.25637600   1.008000   ; qtot 0.411557
 5245         c3    180    bbb     C9   5245 -0.72423400  12.010000   ; qtot -0.312677
 5246         h1    180    bbb    H17   5246 0.25637600   1.008000   ; qtot -0.056301
 5247         h1    180    bbb    H18   5247 0.25637600   1.008000   ; qtot 0.200075
 5248         os    180    bbb     O1   5248 -0.20025300  16.000000   ; qtot -0.000178
; residue  181 bbb rtp bbb q -0.0
 5249         n3    181    bbb     N1   5249 -0.59685800  14.010000   ; qtot -0.597036
 5250         c3    181    bbb     C1   5250 0.10137000  12.010000   ; qtot -0.495666
 5251         h1    181    bbb     H1   5251 0.04411300   1.008000   ; qtot -0.451553
 5252         h1    181    bbb     H2   5252 0.04411300   1.008000   ; qtot -0.407440
 5253         c3    181    bbb     C2   5253 0.10137000  12.010000   ; qtot -0.306070
 5254         h1    181    bbb     H3   5254 0.04411300   1.008000   ; qtot -0.261957
 5255         h1    181    bbb     H4   5255 0.04411300   1.008000   ; qtot -0.217844
 5256         c3    181    bbb     C3   5256 -0.00195300  12.010000   ; qtot -0.219797
 5257         h1    181    bbb     H5   5257 0.05064400   1.008000   ; qtot -0.169153
 5258         h1    181    bbb     H6   5258 0.05064400   1.008000   ; qtot -0.118509
 5259         c3    181    bbb     C4   5259 -0.01612100  12.010000   ; qtot -0.134630
 5260         hc    181    bbb     H7   5260 0.04936100   1.008000   ; qtot -0.085269
 5261         hc    181    bbb     H8   5261 0.04936100   1.008000   ; qtot -0.035908
 5262         c3    181    bbb     C5   5262 0.11363000  12.010000   ; qtot 0.077722
 5263         hc    181    bbb     H9   5263 0.06265900   1.008000   ; qtot 0.140381
 5264         hc    181    bbb    H10   5264 0.06265900   1.008000   ; qtot 0.203040
 5265         c3    181    bbb     C6   5265 0.11363000  12.010000   ; qtot 0.316670
 5266         hc    181    bbb    H11   5266 0.06265900   1.008000   ; qtot 0.379329
 5267         hc    181    bbb    H12   5267 0.06265900   1.008000   ; qtot 0.441988
 5268         c3    181    bbb     C7   5268 0.05858200  12.010000   ; qtot 0.500570
 5269         h1    181    bbb    H13   5269 0.06123400   1.008000   ; qtot 0.561804
 5270         h1    181    bbb    H14   5270 0.06123400   1.008000   ; qtot 0.623038
 5271         c3    181    bbb     C8   5271 -0.72423400  12.010000   ; qtot -0.101196
 5272         h1    181    bbb    H15   5272 0.25637600   1.008000   ; qtot 0.155180
 5273         h1    181    bbb    H16   5273 0.25637600   1.008000   ; qtot 0.411556
 5274         c3    181    bbb     C9   5274 -0.72423400  12.010000   ; qtot -0.312678
 5275         h1    181    bbb    H17   5275 0.25637600   1.008000   ; qtot -0.056302
 5276         h1    181    bbb    H18   5276 0.25637600   1.008000   ; qtot 0.200074
 5277         os    181    bbb     O1   5277 -0.20025300  16.000000   ; qtot -0.000179
; residue  182 bbb rtp bbb q -0.0
 5278         n3    182    bbb     N1   5278 -0.59685800  14.010000   ; qtot -0.597037
 5279         c3    182    bbb     C1   5279 0.10137000  12.010000   ; qtot -0.495667
 5280         h1    182    bbb     H1   5280 0.04411300   1.008000   ; qtot -0.451554
 5281         h1    182    bbb     H2   5281 0.04411300   1.008000   ; qtot -0.407441
 5282         c3    182    bbb     C2   5282 0.10137000  12.010000   ; qtot -0.306071
 5283         h1    182    bbb     H3   5283 0.04411300   1.008000   ; qtot -0.261958
 5284         h1    182    bbb     H4   5284 0.04411300   1.008000   ; qtot -0.217845
 5285         c3    182    bbb     C3   5285 -0.00195300  12.010000   ; qtot -0.219798
 5286         h1    182    bbb     H5   5286 0.05064400   1.008000   ; qtot -0.169154
 5287         h1    182    bbb     H6   5287 0.05064400   1.008000   ; qtot -0.118510
 5288         c3    182    bbb     C4   5288 -0.01612100  12.010000   ; qtot -0.134631
 5289         hc    182    bbb     H7   5289 0.04936100   1.008000   ; qtot -0.085270
 5290         hc    182    bbb     H8   5290 0.04936100   1.008000   ; qtot -0.035909
 5291         c3    182    bbb     C5   5291 0.11363000  12.010000   ; qtot 0.077721
 5292         hc    182    bbb     H9   5292 0.06265900   1.008000   ; qtot 0.140380
 5293         hc    182    bbb    H10   5293 0.06265900   1.008000   ; qtot 0.203039
 5294         c3    182    bbb     C6   5294 0.11363000  12.010000   ; qtot 0.316669
 5295         hc    182    bbb    H11   5295 0.06265900   1.008000   ; qtot 0.379328
 5296         hc    182    bbb    H12   5296 0.06265900   1.008000   ; qtot 0.441987
 5297         c3    182    bbb     C7   5297 0.05858200  12.010000   ; qtot 0.500569
 5298         h1    182    bbb    H13   5298 0.06123400   1.008000   ; qtot 0.561803
 5299         h1    182    bbb    H14   5299 0.06123400   1.008000   ; qtot 0.623037
 5300         c3    182    bbb     C8   5300 -0.72423400  12.010000   ; qtot -0.101197
 5301         h1    182    bbb    H15   5301 0.25637600   1.008000   ; qtot 0.155179
 5302         h1    182    bbb    H16   5302 0.25637600   1.008000   ; qtot 0.411555
 5303         c3    182    bbb     C9   5303 -0.72423400  12.010000   ; qtot -0.312679
 5304         h1    182    bbb    H17   5304 0.25637600   1.008000   ; qtot -0.056303
 5305         h1    182    bbb    H18   5305 0.25637600   1.008000   ; qtot 0.200073
 5306         os    182    bbb     O1   5306 -0.20025300  16.000000   ; qtot -0.000180
; residue  183 bbb rtp bbb q -0.0
 5307         n3    183    bbb     N1   5307 -0.59685800  14.010000   ; qtot -0.597038
 5308         c3    183    bbb     C1   5308 0.10137000  12.010000   ; qtot -0.495668
 5309         h1    183    bbb     H1   5309 0.04411300   1.008000   ; qtot -0.451555
 5310         h1    183    bbb     H2   5310 0.04411300   1.008000   ; qtot -0.407442
 5311         c3    183    bbb     C2   5311 0.10137000  12.010000   ; qtot -0.306072
 5312         h1    183    bbb     H3   5312 0.04411300   1.008000   ; qtot -0.261959
 5313         h1    183    bbb     H4   5313 0.04411300   1.008000   ; qtot -0.217846
 5314         c3    183    bbb     C3   5314 -0.00195300  12.010000   ; qtot -0.219799
 5315         h1    183    bbb     H5   5315 0.05064400   1.008000   ; qtot -0.169155
 5316         h1    183    bbb     H6   5316 0.05064400   1.008000   ; qtot -0.118511
 5317         c3    183    bbb     C4   5317 -0.01612100  12.010000   ; qtot -0.134632
 5318         hc    183    bbb     H7   5318 0.04936100   1.008000   ; qtot -0.085271
 5319         hc    183    bbb     H8   5319 0.04936100   1.008000   ; qtot -0.035910
 5320         c3    183    bbb     C5   5320 0.11363000  12.010000   ; qtot 0.077720
 5321         hc    183    bbb     H9   5321 0.06265900   1.008000   ; qtot 0.140379
 5322         hc    183    bbb    H10   5322 0.06265900   1.008000   ; qtot 0.203038
 5323         c3    183    bbb     C6   5323 0.11363000  12.010000   ; qtot 0.316668
 5324         hc    183    bbb    H11   5324 0.06265900   1.008000   ; qtot 0.379327
 5325         hc    183    bbb    H12   5325 0.06265900   1.008000   ; qtot 0.441986
 5326         c3    183    bbb     C7   5326 0.05858200  12.010000   ; qtot 0.500568
 5327         h1    183    bbb    H13   5327 0.06123400   1.008000   ; qtot 0.561802
 5328         h1    183    bbb    H14   5328 0.06123400   1.008000   ; qtot 0.623036
 5329         c3    183    bbb     C8   5329 -0.72423400  12.010000   ; qtot -0.101198
 5330         h1    183    bbb    H15   5330 0.25637600   1.008000   ; qtot 0.155178
 5331         h1    183    bbb    H16   5331 0.25637600   1.008000   ; qtot 0.411554
 5332         c3    183    bbb     C9   5332 -0.72423400  12.010000   ; qtot -0.312680
 5333         h1    183    bbb    H17   5333 0.25637600   1.008000   ; qtot -0.056304
 5334         h1    183    bbb    H18   5334 0.25637600   1.008000   ; qtot 0.200072
 5335         os    183    bbb     O1   5335 -0.20025300  16.000000   ; qtot -0.000181
; residue  184 bbb rtp bbb q -0.0
 5336         n3    184    bbb     N1   5336 -0.59685800  14.010000   ; qtot -0.597039
 5337         c3    184    bbb     C1   5337 0.10137000  12.010000   ; qtot -0.495669
 5338         h1    184    bbb     H1   5338 0.04411300   1.008000   ; qtot -0.451556
 5339         h1    184    bbb     H2   5339 0.04411300   1.008000   ; qtot -0.407443
 5340         c3    184    bbb     C2   5340 0.10137000  12.010000   ; qtot -0.306073
 5341         h1    184    bbb     H3   5341 0.04411300   1.008000   ; qtot -0.261960
 5342         h1    184    bbb     H4   5342 0.04411300   1.008000   ; qtot -0.217847
 5343         c3    184    bbb     C3   5343 -0.00195300  12.010000   ; qtot -0.219800
 5344         h1    184    bbb     H5   5344 0.05064400   1.008000   ; qtot -0.169156
 5345         h1    184    bbb     H6   5345 0.05064400   1.008000   ; qtot -0.118512
 5346         c3    184    bbb     C4   5346 -0.01612100  12.010000   ; qtot -0.134633
 5347         hc    184    bbb     H7   5347 0.04936100   1.008000   ; qtot -0.085272
 5348         hc    184    bbb     H8   5348 0.04936100   1.008000   ; qtot -0.035911
 5349         c3    184    bbb     C5   5349 0.11363000  12.010000   ; qtot 0.077719
 5350         hc    184    bbb     H9   5350 0.06265900   1.008000   ; qtot 0.140378
 5351         hc    184    bbb    H10   5351 0.06265900   1.008000   ; qtot 0.203037
 5352         c3    184    bbb     C6   5352 0.11363000  12.010000   ; qtot 0.316667
 5353         hc    184    bbb    H11   5353 0.06265900   1.008000   ; qtot 0.379326
 5354         hc    184    bbb    H12   5354 0.06265900   1.008000   ; qtot 0.441985
 5355         c3    184    bbb     C7   5355 0.05858200  12.010000   ; qtot 0.500567
 5356         h1    184    bbb    H13   5356 0.06123400   1.008000   ; qtot 0.561801
 5357         h1    184    bbb    H14   5357 0.06123400   1.008000   ; qtot 0.623035
 5358         c3    184    bbb     C8   5358 -0.72423400  12.010000   ; qtot -0.101199
 5359         h1    184    bbb    H15   5359 0.25637600   1.008000   ; qtot 0.155177
 5360         h1    184    bbb    H16   5360 0.25637600   1.008000   ; qtot 0.411553
 5361         c3    184    bbb     C9   5361 -0.72423400  12.010000   ; qtot -0.312681
 5362         h1    184    bbb    H17   5362 0.25637600   1.008000   ; qtot -0.056305
 5363         h1    184    bbb    H18   5363 0.25637600   1.008000   ; qtot 0.200071
 5364         os    184    bbb     O1   5364 -0.20025300  16.000000   ; qtot -0.000182
; residue  185 bbb rtp bbb q -0.0
 5365         n3    185    bbb     N1   5365 -0.59685800  14.010000   ; qtot -0.597040
 5366         c3    185    bbb     C1   5366 0.10137000  12.010000   ; qtot -0.495670
 5367         h1    185    bbb     H1   5367 0.04411300   1.008000   ; qtot -0.451557
 5368         h1    185    bbb     H2   5368 0.04411300   1.008000   ; qtot -0.407444
 5369         c3    185    bbb     C2   5369 0.10137000  12.010000   ; qtot -0.306074
 5370         h1    185    bbb     H3   5370 0.04411300   1.008000   ; qtot -0.261961
 5371         h1    185    bbb     H4   5371 0.04411300   1.008000   ; qtot -0.217848
 5372         c3    185    bbb     C3   5372 -0.00195300  12.010000   ; qtot -0.219801
 5373         h1    185    bbb     H5   5373 0.05064400   1.008000   ; qtot -0.169157
 5374         h1    185    bbb     H6   5374 0.05064400   1.008000   ; qtot -0.118513
 5375         c3    185    bbb     C4   5375 -0.01612100  12.010000   ; qtot -0.134634
 5376         hc    185    bbb     H7   5376 0.04936100   1.008000   ; qtot -0.085273
 5377         hc    185    bbb     H8   5377 0.04936100   1.008000   ; qtot -0.035912
 5378         c3    185    bbb     C5   5378 0.11363000  12.010000   ; qtot 0.077718
 5379         hc    185    bbb     H9   5379 0.06265900   1.008000   ; qtot 0.140377
 5380         hc    185    bbb    H10   5380 0.06265900   1.008000   ; qtot 0.203036
 5381         c3    185    bbb     C6   5381 0.11363000  12.010000   ; qtot 0.316666
 5382         hc    185    bbb    H11   5382 0.06265900   1.008000   ; qtot 0.379325
 5383         hc    185    bbb    H12   5383 0.06265900   1.008000   ; qtot 0.441984
 5384         c3    185    bbb     C7   5384 0.05858200  12.010000   ; qtot 0.500566
 5385         h1    185    bbb    H13   5385 0.06123400   1.008000   ; qtot 0.561800
 5386         h1    185    bbb    H14   5386 0.06123400   1.008000   ; qtot 0.623034
 5387         c3    185    bbb     C8   5387 -0.72423400  12.010000   ; qtot -0.101200
 5388         h1    185    bbb    H15   5388 0.25637600   1.008000   ; qtot 0.155176
 5389         h1    185    bbb    H16   5389 0.25637600   1.008000   ; qtot 0.411552
 5390         c3    185    bbb     C9   5390 -0.72423400  12.010000   ; qtot -0.312682
 5391         h1    185    bbb    H17   5391 0.25637600   1.008000   ; qtot -0.056306
 5392         h1    185    bbb    H18   5392 0.25637600   1.008000   ; qtot 0.200070
 5393         os    185    bbb     O1   5393 -0.20025300  16.000000   ; qtot -0.000183
; residue  186 bbb rtp bbb q -0.0
 5394         n3    186    bbb     N1   5394 -0.59685800  14.010000   ; qtot -0.597041
 5395         c3    186    bbb     C1   5395 0.10137000  12.010000   ; qtot -0.495671
 5396         h1    186    bbb     H1   5396 0.04411300   1.008000   ; qtot -0.451558
 5397         h1    186    bbb     H2   5397 0.04411300   1.008000   ; qtot -0.407445
 5398         c3    186    bbb     C2   5398 0.10137000  12.010000   ; qtot -0.306075
 5399         h1    186    bbb     H3   5399 0.04411300   1.008000   ; qtot -0.261962
 5400         h1    186    bbb     H4   5400 0.04411300   1.008000   ; qtot -0.217849
 5401         c3    186    bbb     C3   5401 -0.00195300  12.010000   ; qtot -0.219802
 5402         h1    186    bbb     H5   5402 0.05064400   1.008000   ; qtot -0.169158
 5403         h1    186    bbb     H6   5403 0.05064400   1.008000   ; qtot -0.118514
 5404         c3    186    bbb     C4   5404 -0.01612100  12.010000   ; qtot -0.134635
 5405         hc    186    bbb     H7   5405 0.04936100   1.008000   ; qtot -0.085274
 5406         hc    186    bbb     H8   5406 0.04936100   1.008000   ; qtot -0.035913
 5407         c3    186    bbb     C5   5407 0.11363000  12.010000   ; qtot 0.077717
 5408         hc    186    bbb     H9   5408 0.06265900   1.008000   ; qtot 0.140376
 5409         hc    186    bbb    H10   5409 0.06265900   1.008000   ; qtot 0.203035
 5410         c3    186    bbb     C6   5410 0.11363000  12.010000   ; qtot 0.316665
 5411         hc    186    bbb    H11   5411 0.06265900   1.008000   ; qtot 0.379324
 5412         hc    186    bbb    H12   5412 0.06265900   1.008000   ; qtot 0.441983
 5413         c3    186    bbb     C7   5413 0.05858200  12.010000   ; qtot 0.500565
 5414         h1    186    bbb    H13   5414 0.06123400   1.008000   ; qtot 0.561799
 5415         h1    186    bbb    H14   5415 0.06123400   1.008000   ; qtot 0.623033
 5416         c3    186    bbb     C8   5416 -0.72423400  12.010000   ; qtot -0.101201
 5417         h1    186    bbb    H15   5417 0.25637600   1.008000   ; qtot 0.155175
 5418         h1    186    bbb    H16   5418 0.25637600   1.008000   ; qtot 0.411551
 5419         c3    186    bbb     C9   5419 -0.72423400  12.010000   ; qtot -0.312683
 5420         h1    186    bbb    H17   5420 0.25637600   1.008000   ; qtot -0.056307
 5421         h1    186    bbb    H18   5421 0.25637600   1.008000   ; qtot 0.200069
 5422         os    186    bbb     O1   5422 -0.20025300  16.000000   ; qtot -0.000184
; residue  187 bbb rtp bbb q -0.0
 5423         n3    187    bbb     N1   5423 -0.59685800  14.010000   ; qtot -0.597042
 5424         c3    187    bbb     C1   5424 0.10137000  12.010000   ; qtot -0.495672
 5425         h1    187    bbb     H1   5425 0.04411300   1.008000   ; qtot -0.451559
 5426         h1    187    bbb     H2   5426 0.04411300   1.008000   ; qtot -0.407446
 5427         c3    187    bbb     C2   5427 0.10137000  12.010000   ; qtot -0.306076
 5428         h1    187    bbb     H3   5428 0.04411300   1.008000   ; qtot -0.261963
 5429         h1    187    bbb     H4   5429 0.04411300   1.008000   ; qtot -0.217850
 5430         c3    187    bbb     C3   5430 -0.00195300  12.010000   ; qtot -0.219803
 5431         h1    187    bbb     H5   5431 0.05064400   1.008000   ; qtot -0.169159
 5432         h1    187    bbb     H6   5432 0.05064400   1.008000   ; qtot -0.118515
 5433         c3    187    bbb     C4   5433 -0.01612100  12.010000   ; qtot -0.134636
 5434         hc    187    bbb     H7   5434 0.04936100   1.008000   ; qtot -0.085275
 5435         hc    187    bbb     H8   5435 0.04936100   1.008000   ; qtot -0.035914
 5436         c3    187    bbb     C5   5436 0.11363000  12.010000   ; qtot 0.077716
 5437         hc    187    bbb     H9   5437 0.06265900   1.008000   ; qtot 0.140375
 5438         hc    187    bbb    H10   5438 0.06265900   1.008000   ; qtot 0.203034
 5439         c3    187    bbb     C6   5439 0.11363000  12.010000   ; qtot 0.316664
 5440         hc    187    bbb    H11   5440 0.06265900   1.008000   ; qtot 0.379323
 5441         hc    187    bbb    H12   5441 0.06265900   1.008000   ; qtot 0.441982
 5442         c3    187    bbb     C7   5442 0.05858200  12.010000   ; qtot 0.500564
 5443         h1    187    bbb    H13   5443 0.06123400   1.008000   ; qtot 0.561798
 5444         h1    187    bbb    H14   5444 0.06123400   1.008000   ; qtot 0.623032
 5445         c3    187    bbb     C8   5445 -0.72423400  12.010000   ; qtot -0.101202
 5446         h1    187    bbb    H15   5446 0.25637600   1.008000   ; qtot 0.155174
 5447         h1    187    bbb    H16   5447 0.25637600   1.008000   ; qtot 0.411550
 5448         c3    187    bbb     C9   5448 -0.72423400  12.010000   ; qtot -0.312684
 5449         h1    187    bbb    H17   5449 0.25637600   1.008000   ; qtot -0.056308
 5450         h1    187    bbb    H18   5450 0.25637600   1.008000   ; qtot 0.200068
 5451         os    187    bbb     O1   5451 -0.20025300  16.000000   ; qtot -0.000185
; residue  188 bbb rtp bbb q -0.0
 5452         n3    188    bbb     N1   5452 -0.59685800  14.010000   ; qtot -0.597043
 5453         c3    188    bbb     C1   5453 0.10137000  12.010000   ; qtot -0.495673
 5454         h1    188    bbb     H1   5454 0.04411300   1.008000   ; qtot -0.451560
 5455         h1    188    bbb     H2   5455 0.04411300   1.008000   ; qtot -0.407447
 5456         c3    188    bbb     C2   5456 0.10137000  12.010000   ; qtot -0.306077
 5457         h1    188    bbb     H3   5457 0.04411300   1.008000   ; qtot -0.261964
 5458         h1    188    bbb     H4   5458 0.04411300   1.008000   ; qtot -0.217851
 5459         c3    188    bbb     C3   5459 -0.00195300  12.010000   ; qtot -0.219804
 5460         h1    188    bbb     H5   5460 0.05064400   1.008000   ; qtot -0.169160
 5461         h1    188    bbb     H6   5461 0.05064400   1.008000   ; qtot -0.118516
 5462         c3    188    bbb     C4   5462 -0.01612100  12.010000   ; qtot -0.134637
 5463         hc    188    bbb     H7   5463 0.04936100   1.008000   ; qtot -0.085276
 5464         hc    188    bbb     H8   5464 0.04936100   1.008000   ; qtot -0.035915
 5465         c3    188    bbb     C5   5465 0.11363000  12.010000   ; qtot 0.077715
 5466         hc    188    bbb     H9   5466 0.06265900   1.008000   ; qtot 0.140374
 5467         hc    188    bbb    H10   5467 0.06265900   1.008000   ; qtot 0.203033
 5468         c3    188    bbb     C6   5468 0.11363000  12.010000   ; qtot 0.316663
 5469         hc    188    bbb    H11   5469 0.06265900   1.008000   ; qtot 0.379322
 5470         hc    188    bbb    H12   5470 0.06265900   1.008000   ; qtot 0.441981
 5471         c3    188    bbb     C7   5471 0.05858200  12.010000   ; qtot 0.500563
 5472         h1    188    bbb    H13   5472 0.06123400   1.008000   ; qtot 0.561797
 5473         h1    188    bbb    H14   5473 0.06123400   1.008000   ; qtot 0.623031
 5474         c3    188    bbb     C8   5474 -0.72423400  12.010000   ; qtot -0.101203
 5475         h1    188    bbb    H15   5475 0.25637600   1.008000   ; qtot 0.155173
 5476         h1    188    bbb    H16   5476 0.25637600   1.008000   ; qtot 0.411549
 5477         c3    188    bbb     C9   5477 -0.72423400  12.010000   ; qtot -0.312685
 5478         h1    188    bbb    H17   5478 0.25637600   1.008000   ; qtot -0.056309
 5479         h1    188    bbb    H18   5479 0.25637600   1.008000   ; qtot 0.200067
 5480         os    188    bbb     O1   5480 -0.20025300  16.000000   ; qtot -0.000186
; residue  189 bbb rtp bbb q -0.0
 5481         n3    189    bbb     N1   5481 -0.59685800  14.010000   ; qtot -0.597044
 5482         c3    189    bbb     C1   5482 0.10137000  12.010000   ; qtot -0.495674
 5483         h1    189    bbb     H1   5483 0.04411300   1.008000   ; qtot -0.451561
 5484         h1    189    bbb     H2   5484 0.04411300   1.008000   ; qtot -0.407448
 5485         c3    189    bbb     C2   5485 0.10137000  12.010000   ; qtot -0.306078
 5486         h1    189    bbb     H3   5486 0.04411300   1.008000   ; qtot -0.261965
 5487         h1    189    bbb     H4   5487 0.04411300   1.008000   ; qtot -0.217852
 5488         c3    189    bbb     C3   5488 -0.00195300  12.010000   ; qtot -0.219805
 5489         h1    189    bbb     H5   5489 0.05064400   1.008000   ; qtot -0.169161
 5490         h1    189    bbb     H6   5490 0.05064400   1.008000   ; qtot -0.118517
 5491         c3    189    bbb     C4   5491 -0.01612100  12.010000   ; qtot -0.134638
 5492         hc    189    bbb     H7   5492 0.04936100   1.008000   ; qtot -0.085277
 5493         hc    189    bbb     H8   5493 0.04936100   1.008000   ; qtot -0.035916
 5494         c3    189    bbb     C5   5494 0.11363000  12.010000   ; qtot 0.077714
 5495         hc    189    bbb     H9   5495 0.06265900   1.008000   ; qtot 0.140373
 5496         hc    189    bbb    H10   5496 0.06265900   1.008000   ; qtot 0.203032
 5497         c3    189    bbb     C6   5497 0.11363000  12.010000   ; qtot 0.316662
 5498         hc    189    bbb    H11   5498 0.06265900   1.008000   ; qtot 0.379321
 5499         hc    189    bbb    H12   5499 0.06265900   1.008000   ; qtot 0.441980
 5500         c3    189    bbb     C7   5500 0.05858200  12.010000   ; qtot 0.500562
 5501         h1    189    bbb    H13   5501 0.06123400   1.008000   ; qtot 0.561796
 5502         h1    189    bbb    H14   5502 0.06123400   1.008000   ; qtot 0.623030
 5503         c3    189    bbb     C8   5503 -0.72423400  12.010000   ; qtot -0.101204
 5504         h1    189    bbb    H15   5504 0.25637600   1.008000   ; qtot 0.155172
 5505         h1    189    bbb    H16   5505 0.25637600   1.008000   ; qtot 0.411548
 5506         c3    189    bbb     C9   5506 -0.72423400  12.010000   ; qtot -0.312686
 5507         h1    189    bbb    H17   5507 0.25637600   1.008000   ; qtot -0.056310
 5508         h1    189    bbb    H18   5508 0.25637600   1.008000   ; qtot 0.200066
 5509         os    189    bbb     O1   5509 -0.20025300  16.000000   ; qtot -0.000187
; residue  190 bbb rtp bbb q -0.0
 5510         n3    190    bbb     N1   5510 -0.59685800  14.010000   ; qtot -0.597045
 5511         c3    190    bbb     C1   5511 0.10137000  12.010000   ; qtot -0.495675
 5512         h1    190    bbb     H1   5512 0.04411300   1.008000   ; qtot -0.451562
 5513         h1    190    bbb     H2   5513 0.04411300   1.008000   ; qtot -0.407449
 5514         c3    190    bbb     C2   5514 0.10137000  12.010000   ; qtot -0.306079
 5515         h1    190    bbb     H3   5515 0.04411300   1.008000   ; qtot -0.261966
 5516         h1    190    bbb     H4   5516 0.04411300   1.008000   ; qtot -0.217853
 5517         c3    190    bbb     C3   5517 -0.00195300  12.010000   ; qtot -0.219806
 5518         h1    190    bbb     H5   5518 0.05064400   1.008000   ; qtot -0.169162
 5519         h1    190    bbb     H6   5519 0.05064400   1.008000   ; qtot -0.118518
 5520         c3    190    bbb     C4   5520 -0.01612100  12.010000   ; qtot -0.134639
 5521         hc    190    bbb     H7   5521 0.04936100   1.008000   ; qtot -0.085278
 5522         hc    190    bbb     H8   5522 0.04936100   1.008000   ; qtot -0.035917
 5523         c3    190    bbb     C5   5523 0.11363000  12.010000   ; qtot 0.077713
 5524         hc    190    bbb     H9   5524 0.06265900   1.008000   ; qtot 0.140372
 5525         hc    190    bbb    H10   5525 0.06265900   1.008000   ; qtot 0.203031
 5526         c3    190    bbb     C6   5526 0.11363000  12.010000   ; qtot 0.316661
 5527         hc    190    bbb    H11   5527 0.06265900   1.008000   ; qtot 0.379320
 5528         hc    190    bbb    H12   5528 0.06265900   1.008000   ; qtot 0.441979
 5529         c3    190    bbb     C7   5529 0.05858200  12.010000   ; qtot 0.500561
 5530         h1    190    bbb    H13   5530 0.06123400   1.008000   ; qtot 0.561795
 5531         h1    190    bbb    H14   5531 0.06123400   1.008000   ; qtot 0.623029
 5532         c3    190    bbb     C8   5532 -0.72423400  12.010000   ; qtot -0.101205
 5533         h1    190    bbb    H15   5533 0.25637600   1.008000   ; qtot 0.155171
 5534         h1    190    bbb    H16   5534 0.25637600   1.008000   ; qtot 0.411547
 5535         c3    190    bbb     C9   5535 -0.72423400  12.010000   ; qtot -0.312687
 5536         h1    190    bbb    H17   5536 0.25637600   1.008000   ; qtot -0.056311
 5537         h1    190    bbb    H18   5537 0.25637600   1.008000   ; qtot 0.200065
 5538         os    190    bbb     O1   5538 -0.20025300  16.000000   ; qtot -0.000188
; residue  191 bbb rtp bbb q -0.0
 5539         n3    191    bbb     N1   5539 -0.59685800  14.010000   ; qtot -0.597046
 5540         c3    191    bbb     C1   5540 0.10137000  12.010000   ; qtot -0.495676
 5541         h1    191    bbb     H1   5541 0.04411300   1.008000   ; qtot -0.451563
 5542         h1    191    bbb     H2   5542 0.04411300   1.008000   ; qtot -0.407450
 5543         c3    191    bbb     C2   5543 0.10137000  12.010000   ; qtot -0.306080
 5544         h1    191    bbb     H3   5544 0.04411300   1.008000   ; qtot -0.261967
 5545         h1    191    bbb     H4   5545 0.04411300   1.008000   ; qtot -0.217854
 5546         c3    191    bbb     C3   5546 -0.00195300  12.010000   ; qtot -0.219807
 5547         h1    191    bbb     H5   5547 0.05064400   1.008000   ; qtot -0.169163
 5548         h1    191    bbb     H6   5548 0.05064400   1.008000   ; qtot -0.118519
 5549         c3    191    bbb     C4   5549 -0.01612100  12.010000   ; qtot -0.134640
 5550         hc    191    bbb     H7   5550 0.04936100   1.008000   ; qtot -0.085279
 5551         hc    191    bbb     H8   5551 0.04936100   1.008000   ; qtot -0.035918
 5552         c3    191    bbb     C5   5552 0.11363000  12.010000   ; qtot 0.077712
 5553         hc    191    bbb     H9   5553 0.06265900   1.008000   ; qtot 0.140371
 5554         hc    191    bbb    H10   5554 0.06265900   1.008000   ; qtot 0.203030
 5555         c3    191    bbb     C6   5555 0.11363000  12.010000   ; qtot 0.316660
 5556         hc    191    bbb    H11   5556 0.06265900   1.008000   ; qtot 0.379319
 5557         hc    191    bbb    H12   5557 0.06265900   1.008000   ; qtot 0.441978
 5558         c3    191    bbb     C7   5558 0.05858200  12.010000   ; qtot 0.500560
 5559         h1    191    bbb    H13   5559 0.06123400   1.008000   ; qtot 0.561794
 5560         h1    191    bbb    H14   5560 0.06123400   1.008000   ; qtot 0.623028
 5561         c3    191    bbb     C8   5561 -0.72423400  12.010000   ; qtot -0.101206
 5562         h1    191    bbb    H15   5562 0.25637600   1.008000   ; qtot 0.155170
 5563         h1    191    bbb    H16   5563 0.25637600   1.008000   ; qtot 0.411546
 5564         c3    191    bbb     C9   5564 -0.72423400  12.010000   ; qtot -0.312688
 5565         h1    191    bbb    H17   5565 0.25637600   1.008000   ; qtot -0.056312
 5566         h1    191    bbb    H18   5566 0.25637600   1.008000   ; qtot 0.200064
 5567         os    191    bbb     O1   5567 -0.20025300  16.000000   ; qtot -0.000189
; residue  192 bbb rtp bbb q -0.0
 5568         n3    192    bbb     N1   5568 -0.59685800  14.010000   ; qtot -0.597047
 5569         c3    192    bbb     C1   5569 0.10137000  12.010000   ; qtot -0.495677
 5570         h1    192    bbb     H1   5570 0.04411300   1.008000   ; qtot -0.451564
 5571         h1    192    bbb     H2   5571 0.04411300   1.008000   ; qtot -0.407451
 5572         c3    192    bbb     C2   5572 0.10137000  12.010000   ; qtot -0.306081
 5573         h1    192    bbb     H3   5573 0.04411300   1.008000   ; qtot -0.261968
 5574         h1    192    bbb     H4   5574 0.04411300   1.008000   ; qtot -0.217855
 5575         c3    192    bbb     C3   5575 -0.00195300  12.010000   ; qtot -0.219808
 5576         h1    192    bbb     H5   5576 0.05064400   1.008000   ; qtot -0.169164
 5577         h1    192    bbb     H6   5577 0.05064400   1.008000   ; qtot -0.118520
 5578         c3    192    bbb     C4   5578 -0.01612100  12.010000   ; qtot -0.134641
 5579         hc    192    bbb     H7   5579 0.04936100   1.008000   ; qtot -0.085280
 5580         hc    192    bbb     H8   5580 0.04936100   1.008000   ; qtot -0.035919
 5581         c3    192    bbb     C5   5581 0.11363000  12.010000   ; qtot 0.077711
 5582         hc    192    bbb     H9   5582 0.06265900   1.008000   ; qtot 0.140370
 5583         hc    192    bbb    H10   5583 0.06265900   1.008000   ; qtot 0.203029
 5584         c3    192    bbb     C6   5584 0.11363000  12.010000   ; qtot 0.316659
 5585         hc    192    bbb    H11   5585 0.06265900   1.008000   ; qtot 0.379318
 5586         hc    192    bbb    H12   5586 0.06265900   1.008000   ; qtot 0.441977
 5587         c3    192    bbb     C7   5587 0.05858200  12.010000   ; qtot 0.500559
 5588         h1    192    bbb    H13   5588 0.06123400   1.008000   ; qtot 0.561793
 5589         h1    192    bbb    H14   5589 0.06123400   1.008000   ; qtot 0.623027
 5590         c3    192    bbb     C8   5590 -0.72423400  12.010000   ; qtot -0.101207
 5591         h1    192    bbb    H15   5591 0.25637600   1.008000   ; qtot 0.155169
 5592         h1    192    bbb    H16   5592 0.25637600   1.008000   ; qtot 0.411545
 5593         c3    192    bbb     C9   5593 -0.72423400  12.010000   ; qtot -0.312689
 5594         h1    192    bbb    H17   5594 0.25637600   1.008000   ; qtot -0.056313
 5595         h1    192    bbb    H18   5595 0.25637600   1.008000   ; qtot 0.200063
 5596         os    192    bbb     O1   5596 -0.20025300  16.000000   ; qtot -0.000190
; residue  193 bbb rtp bbb q -0.0
 5597         n3    193    bbb     N1   5597 -0.59685800  14.010000   ; qtot -0.597048
 5598         c3    193    bbb     C1   5598 0.10137000  12.010000   ; qtot -0.495678
 5599         h1    193    bbb     H1   5599 0.04411300   1.008000   ; qtot -0.451565
 5600         h1    193    bbb     H2   5600 0.04411300   1.008000   ; qtot -0.407452
 5601         c3    193    bbb     C2   5601 0.10137000  12.010000   ; qtot -0.306082
 5602         h1    193    bbb     H3   5602 0.04411300   1.008000   ; qtot -0.261969
 5603         h1    193    bbb     H4   5603 0.04411300   1.008000   ; qtot -0.217856
 5604         c3    193    bbb     C3   5604 -0.00195300  12.010000   ; qtot -0.219809
 5605         h1    193    bbb     H5   5605 0.05064400   1.008000   ; qtot -0.169165
 5606         h1    193    bbb     H6   5606 0.05064400   1.008000   ; qtot -0.118521
 5607         c3    193    bbb     C4   5607 -0.01612100  12.010000   ; qtot -0.134642
 5608         hc    193    bbb     H7   5608 0.04936100   1.008000   ; qtot -0.085281
 5609         hc    193    bbb     H8   5609 0.04936100   1.008000   ; qtot -0.035920
 5610         c3    193    bbb     C5   5610 0.11363000  12.010000   ; qtot 0.077710
 5611         hc    193    bbb     H9   5611 0.06265900   1.008000   ; qtot 0.140369
 5612         hc    193    bbb    H10   5612 0.06265900   1.008000   ; qtot 0.203028
 5613         c3    193    bbb     C6   5613 0.11363000  12.010000   ; qtot 0.316658
 5614         hc    193    bbb    H11   5614 0.06265900   1.008000   ; qtot 0.379317
 5615         hc    193    bbb    H12   5615 0.06265900   1.008000   ; qtot 0.441976
 5616         c3    193    bbb     C7   5616 0.05858200  12.010000   ; qtot 0.500558
 5617         h1    193    bbb    H13   5617 0.06123400   1.008000   ; qtot 0.561792
 5618         h1    193    bbb    H14   5618 0.06123400   1.008000   ; qtot 0.623026
 5619         c3    193    bbb     C8   5619 -0.72423400  12.010000   ; qtot -0.101208
 5620         h1    193    bbb    H15   5620 0.25637600   1.008000   ; qtot 0.155168
 5621         h1    193    bbb    H16   5621 0.25637600   1.008000   ; qtot 0.411544
 5622         c3    193    bbb     C9   5622 -0.72423400  12.010000   ; qtot -0.312690
 5623         h1    193    bbb    H17   5623 0.25637600   1.008000   ; qtot -0.056314
 5624         h1    193    bbb    H18   5624 0.25637600   1.008000   ; qtot 0.200062
 5625         os    193    bbb     O1   5625 -0.20025300  16.000000   ; qtot -0.000191
; residue  194 bbb rtp bbb q -0.0
 5626         n3    194    bbb     N1   5626 -0.59685800  14.010000   ; qtot -0.597049
 5627         c3    194    bbb     C1   5627 0.10137000  12.010000   ; qtot -0.495679
 5628         h1    194    bbb     H1   5628 0.04411300   1.008000   ; qtot -0.451566
 5629         h1    194    bbb     H2   5629 0.04411300   1.008000   ; qtot -0.407453
 5630         c3    194    bbb     C2   5630 0.10137000  12.010000   ; qtot -0.306083
 5631         h1    194    bbb     H3   5631 0.04411300   1.008000   ; qtot -0.261970
 5632         h1    194    bbb     H4   5632 0.04411300   1.008000   ; qtot -0.217857
 5633         c3    194    bbb     C3   5633 -0.00195300  12.010000   ; qtot -0.219810
 5634         h1    194    bbb     H5   5634 0.05064400   1.008000   ; qtot -0.169166
 5635         h1    194    bbb     H6   5635 0.05064400   1.008000   ; qtot -0.118522
 5636         c3    194    bbb     C4   5636 -0.01612100  12.010000   ; qtot -0.134643
 5637         hc    194    bbb     H7   5637 0.04936100   1.008000   ; qtot -0.085282
 5638         hc    194    bbb     H8   5638 0.04936100   1.008000   ; qtot -0.035921
 5639         c3    194    bbb     C5   5639 0.11363000  12.010000   ; qtot 0.077709
 5640         hc    194    bbb     H9   5640 0.06265900   1.008000   ; qtot 0.140368
 5641         hc    194    bbb    H10   5641 0.06265900   1.008000   ; qtot 0.203027
 5642         c3    194    bbb     C6   5642 0.11363000  12.010000   ; qtot 0.316657
 5643         hc    194    bbb    H11   5643 0.06265900   1.008000   ; qtot 0.379316
 5644         hc    194    bbb    H12   5644 0.06265900   1.008000   ; qtot 0.441975
 5645         c3    194    bbb     C7   5645 0.05858200  12.010000   ; qtot 0.500557
 5646         h1    194    bbb    H13   5646 0.06123400   1.008000   ; qtot 0.561791
 5647         h1    194    bbb    H14   5647 0.06123400   1.008000   ; qtot 0.623025
 5648         c3    194    bbb     C8   5648 -0.72423400  12.010000   ; qtot -0.101209
 5649         h1    194    bbb    H15   5649 0.25637600   1.008000   ; qtot 0.155167
 5650         h1    194    bbb    H16   5650 0.25637600   1.008000   ; qtot 0.411543
 5651         c3    194    bbb     C9   5651 -0.72423400  12.010000   ; qtot -0.312691
 5652         h1    194    bbb    H17   5652 0.25637600   1.008000   ; qtot -0.056315
 5653         h1    194    bbb    H18   5653 0.25637600   1.008000   ; qtot 0.200061
 5654         os    194    bbb     O1   5654 -0.20025300  16.000000   ; qtot -0.000192
; residue  195 bbb rtp bbb q -0.0
 5655         n3    195    bbb     N1   5655 -0.59685800  14.010000   ; qtot -0.597050
 5656         c3    195    bbb     C1   5656 0.10137000  12.010000   ; qtot -0.495680
 5657         h1    195    bbb     H1   5657 0.04411300   1.008000   ; qtot -0.451567
 5658         h1    195    bbb     H2   5658 0.04411300   1.008000   ; qtot -0.407454
 5659         c3    195    bbb     C2   5659 0.10137000  12.010000   ; qtot -0.306084
 5660         h1    195    bbb     H3   5660 0.04411300   1.008000   ; qtot -0.261971
 5661         h1    195    bbb     H4   5661 0.04411300   1.008000   ; qtot -0.217858
 5662         c3    195    bbb     C3   5662 -0.00195300  12.010000   ; qtot -0.219811
 5663         h1    195    bbb     H5   5663 0.05064400   1.008000   ; qtot -0.169167
 5664         h1    195    bbb     H6   5664 0.05064400   1.008000   ; qtot -0.118523
 5665         c3    195    bbb     C4   5665 -0.01612100  12.010000   ; qtot -0.134644
 5666         hc    195    bbb     H7   5666 0.04936100   1.008000   ; qtot -0.085283
 5667         hc    195    bbb     H8   5667 0.04936100   1.008000   ; qtot -0.035922
 5668         c3    195    bbb     C5   5668 0.11363000  12.010000   ; qtot 0.077708
 5669         hc    195    bbb     H9   5669 0.06265900   1.008000   ; qtot 0.140367
 5670         hc    195    bbb    H10   5670 0.06265900   1.008000   ; qtot 0.203026
 5671         c3    195    bbb     C6   5671 0.11363000  12.010000   ; qtot 0.316656
 5672         hc    195    bbb    H11   5672 0.06265900   1.008000   ; qtot 0.379315
 5673         hc    195    bbb    H12   5673 0.06265900   1.008000   ; qtot 0.441974
 5674         c3    195    bbb     C7   5674 0.05858200  12.010000   ; qtot 0.500556
 5675         h1    195    bbb    H13   5675 0.06123400   1.008000   ; qtot 0.561790
 5676         h1    195    bbb    H14   5676 0.06123400   1.008000   ; qtot 0.623024
 5677         c3    195    bbb     C8   5677 -0.72423400  12.010000   ; qtot -0.101210
 5678         h1    195    bbb    H15   5678 0.25637600   1.008000   ; qtot 0.155166
 5679         h1    195    bbb    H16   5679 0.25637600   1.008000   ; qtot 0.411542
 5680         c3    195    bbb     C9   5680 -0.72423400  12.010000   ; qtot -0.312692
 5681         h1    195    bbb    H17   5681 0.25637600   1.008000   ; qtot -0.056316
 5682         h1    195    bbb    H18   5682 0.25637600   1.008000   ; qtot 0.200060
 5683         os    195    bbb     O1   5683 -0.20025300  16.000000   ; qtot -0.000193
; residue  196 bbb rtp bbb q -0.0
 5684         n3    196    bbb     N1   5684 -0.59685800  14.010000   ; qtot -0.597051
 5685         c3    196    bbb     C1   5685 0.10137000  12.010000   ; qtot -0.495681
 5686         h1    196    bbb     H1   5686 0.04411300   1.008000   ; qtot -0.451568
 5687         h1    196    bbb     H2   5687 0.04411300   1.008000   ; qtot -0.407455
 5688         c3    196    bbb     C2   5688 0.10137000  12.010000   ; qtot -0.306085
 5689         h1    196    bbb     H3   5689 0.04411300   1.008000   ; qtot -0.261972
 5690         h1    196    bbb     H4   5690 0.04411300   1.008000   ; qtot -0.217859
 5691         c3    196    bbb     C3   5691 -0.00195300  12.010000   ; qtot -0.219812
 5692         h1    196    bbb     H5   5692 0.05064400   1.008000   ; qtot -0.169168
 5693         h1    196    bbb     H6   5693 0.05064400   1.008000   ; qtot -0.118524
 5694         c3    196    bbb     C4   5694 -0.01612100  12.010000   ; qtot -0.134645
 5695         hc    196    bbb     H7   5695 0.04936100   1.008000   ; qtot -0.085284
 5696         hc    196    bbb     H8   5696 0.04936100   1.008000   ; qtot -0.035923
 5697         c3    196    bbb     C5   5697 0.11363000  12.010000   ; qtot 0.077707
 5698         hc    196    bbb     H9   5698 0.06265900   1.008000   ; qtot 0.140366
 5699         hc    196    bbb    H10   5699 0.06265900   1.008000   ; qtot 0.203025
 5700         c3    196    bbb     C6   5700 0.11363000  12.010000   ; qtot 0.316655
 5701         hc    196    bbb    H11   5701 0.06265900   1.008000   ; qtot 0.379314
 5702         hc    196    bbb    H12   5702 0.06265900   1.008000   ; qtot 0.441973
 5703         c3    196    bbb     C7   5703 0.05858200  12.010000   ; qtot 0.500555
 5704         h1    196    bbb    H13   5704 0.06123400   1.008000   ; qtot 0.561789
 5705         h1    196    bbb    H14   5705 0.06123400   1.008000   ; qtot 0.623023
 5706         c3    196    bbb     C8   5706 -0.72423400  12.010000   ; qtot -0.101211
 5707         h1    196    bbb    H15   5707 0.25637600   1.008000   ; qtot 0.155165
 5708         h1    196    bbb    H16   5708 0.25637600   1.008000   ; qtot 0.411541
 5709         c3    196    bbb     C9   5709 -0.72423400  12.010000   ; qtot -0.312693
 5710         h1    196    bbb    H17   5710 0.25637600   1.008000   ; qtot -0.056317
 5711         h1    196    bbb    H18   5711 0.25637600   1.008000   ; qtot 0.200059
 5712         os    196    bbb     O1   5712 -0.20025300  16.000000   ; qtot -0.000194
; residue  197 bbb rtp bbb q -0.0
 5713         n3    197    bbb     N1   5713 -0.59685800  14.010000   ; qtot -0.597052
 5714         c3    197    bbb     C1   5714 0.10137000  12.010000   ; qtot -0.495682
 5715         h1    197    bbb     H1   5715 0.04411300   1.008000   ; qtot -0.451569
 5716         h1    197    bbb     H2   5716 0.04411300   1.008000   ; qtot -0.407456
 5717         c3    197    bbb     C2   5717 0.10137000  12.010000   ; qtot -0.306086
 5718         h1    197    bbb     H3   5718 0.04411300   1.008000   ; qtot -0.261973
 5719         h1    197    bbb     H4   5719 0.04411300   1.008000   ; qtot -0.217860
 5720         c3    197    bbb     C3   5720 -0.00195300  12.010000   ; qtot -0.219813
 5721         h1    197    bbb     H5   5721 0.05064400   1.008000   ; qtot -0.169169
 5722         h1    197    bbb     H6   5722 0.05064400   1.008000   ; qtot -0.118525
 5723         c3    197    bbb     C4   5723 -0.01612100  12.010000   ; qtot -0.134646
 5724         hc    197    bbb     H7   5724 0.04936100   1.008000   ; qtot -0.085285
 5725         hc    197    bbb     H8   5725 0.04936100   1.008000   ; qtot -0.035924
 5726         c3    197    bbb     C5   5726 0.11363000  12.010000   ; qtot 0.077706
 5727         hc    197    bbb     H9   5727 0.06265900   1.008000   ; qtot 0.140365
 5728         hc    197    bbb    H10   5728 0.06265900   1.008000   ; qtot 0.203024
 5729         c3    197    bbb     C6   5729 0.11363000  12.010000   ; qtot 0.316654
 5730         hc    197    bbb    H11   5730 0.06265900   1.008000   ; qtot 0.379313
 5731         hc    197    bbb    H12   5731 0.06265900   1.008000   ; qtot 0.441972
 5732         c3    197    bbb     C7   5732 0.05858200  12.010000   ; qtot 0.500554
 5733         h1    197    bbb    H13   5733 0.06123400   1.008000   ; qtot 0.561788
 5734         h1    197    bbb    H14   5734 0.06123400   1.008000   ; qtot 0.623022
 5735         c3    197    bbb     C8   5735 -0.72423400  12.010000   ; qtot -0.101212
 5736         h1    197    bbb    H15   5736 0.25637600   1.008000   ; qtot 0.155164
 5737         h1    197    bbb    H16   5737 0.25637600   1.008000   ; qtot 0.411540
 5738         c3    197    bbb     C9   5738 -0.72423400  12.010000   ; qtot -0.312694
 5739         h1    197    bbb    H17   5739 0.25637600   1.008000   ; qtot -0.056318
 5740         h1    197    bbb    H18   5740 0.25637600   1.008000   ; qtot 0.200058
 5741         os    197    bbb     O1   5741 -0.20025300  16.000000   ; qtot -0.000195
; residue  198 bbb rtp bbb q -0.0
 5742         n3    198    bbb     N1   5742 -0.59685800  14.010000   ; qtot -0.597053
 5743         c3    198    bbb     C1   5743 0.10137000  12.010000   ; qtot -0.495683
 5744         h1    198    bbb     H1   5744 0.04411300   1.008000   ; qtot -0.451570
 5745         h1    198    bbb     H2   5745 0.04411300   1.008000   ; qtot -0.407457
 5746         c3    198    bbb     C2   5746 0.10137000  12.010000   ; qtot -0.306087
 5747         h1    198    bbb     H3   5747 0.04411300   1.008000   ; qtot -0.261974
 5748         h1    198    bbb     H4   5748 0.04411300   1.008000   ; qtot -0.217861
 5749         c3    198    bbb     C3   5749 -0.00195300  12.010000   ; qtot -0.219814
 5750         h1    198    bbb     H5   5750 0.05064400   1.008000   ; qtot -0.169170
 5751         h1    198    bbb     H6   5751 0.05064400   1.008000   ; qtot -0.118526
 5752         c3    198    bbb     C4   5752 -0.01612100  12.010000   ; qtot -0.134647
 5753         hc    198    bbb     H7   5753 0.04936100   1.008000   ; qtot -0.085286
 5754         hc    198    bbb     H8   5754 0.04936100   1.008000   ; qtot -0.035925
 5755         c3    198    bbb     C5   5755 0.11363000  12.010000   ; qtot 0.077705
 5756         hc    198    bbb     H9   5756 0.06265900   1.008000   ; qtot 0.140364
 5757         hc    198    bbb    H10   5757 0.06265900   1.008000   ; qtot 0.203023
 5758         c3    198    bbb     C6   5758 0.11363000  12.010000   ; qtot 0.316653
 5759         hc    198    bbb    H11   5759 0.06265900   1.008000   ; qtot 0.379312
 5760         hc    198    bbb    H12   5760 0.06265900   1.008000   ; qtot 0.441971
 5761         c3    198    bbb     C7   5761 0.05858200  12.010000   ; qtot 0.500553
 5762         h1    198    bbb    H13   5762 0.06123400   1.008000   ; qtot 0.561787
 5763         h1    198    bbb    H14   5763 0.06123400   1.008000   ; qtot 0.623021
 5764         c3    198    bbb     C8   5764 -0.72423400  12.010000   ; qtot -0.101213
 5765         h1    198    bbb    H15   5765 0.25637600   1.008000   ; qtot 0.155163
 5766         h1    198    bbb    H16   5766 0.25637600   1.008000   ; qtot 0.411539
 5767         c3    198    bbb     C9   5767 -0.72423400  12.010000   ; qtot -0.312695
 5768         h1    198    bbb    H17   5768 0.25637600   1.008000   ; qtot -0.056319
 5769         h1    198    bbb    H18   5769 0.25637600   1.008000   ; qtot 0.200057
 5770         os    198    bbb     O1   5770 -0.20025300  16.000000   ; qtot -0.000196
; residue  199 bbb rtp bbb q -0.0
 5771         n3    199    bbb     N1   5771 -0.59685800  14.010000   ; qtot -0.597054
 5772         c3    199    bbb     C1   5772 0.10137000  12.010000   ; qtot -0.495684
 5773         h1    199    bbb     H1   5773 0.04411300   1.008000   ; qtot -0.451571
 5774         h1    199    bbb     H2   5774 0.04411300   1.008000   ; qtot -0.407458
 5775         c3    199    bbb     C2   5775 0.10137000  12.010000   ; qtot -0.306088
 5776         h1    199    bbb     H3   5776 0.04411300   1.008000   ; qtot -0.261975
 5777         h1    199    bbb     H4   5777 0.04411300   1.008000   ; qtot -0.217862
 5778         c3    199    bbb     C3   5778 -0.00195300  12.010000   ; qtot -0.219815
 5779         h1    199    bbb     H5   5779 0.05064400   1.008000   ; qtot -0.169171
 5780         h1    199    bbb     H6   5780 0.05064400   1.008000   ; qtot -0.118527
 5781         c3    199    bbb     C4   5781 -0.01612100  12.010000   ; qtot -0.134648
 5782         hc    199    bbb     H7   5782 0.04936100   1.008000   ; qtot -0.085287
 5783         hc    199    bbb     H8   5783 0.04936100   1.008000   ; qtot -0.035926
 5784         c3    199    bbb     C5   5784 0.11363000  12.010000   ; qtot 0.077704
 5785         hc    199    bbb     H9   5785 0.06265900   1.008000   ; qtot 0.140363
 5786         hc    199    bbb    H10   5786 0.06265900   1.008000   ; qtot 0.203022
 5787         c3    199    bbb     C6   5787 0.11363000  12.010000   ; qtot 0.316652
 5788         hc    199    bbb    H11   5788 0.06265900   1.008000   ; qtot 0.379311
 5789         hc    199    bbb    H12   5789 0.06265900   1.008000   ; qtot 0.441970
 5790         c3    199    bbb     C7   5790 0.05858200  12.010000   ; qtot 0.500552
 5791         h1    199    bbb    H13   5791 0.06123400   1.008000   ; qtot 0.561786
 5792         h1    199    bbb    H14   5792 0.06123400   1.008000   ; qtot 0.623020
 5793         c3    199    bbb     C8   5793 -0.72423400  12.010000   ; qtot -0.101214
 5794         h1    199    bbb    H15   5794 0.25637600   1.008000   ; qtot 0.155162
 5795         h1    199    bbb    H16   5795 0.25637600   1.008000   ; qtot 0.411538
 5796         c3    199    bbb     C9   5796 -0.72423400  12.010000   ; qtot -0.312696
 5797         h1    199    bbb    H17   5797 0.25637600   1.008000   ; qtot -0.056320
 5798         h1    199    bbb    H18   5798 0.25637600   1.008000   ; qtot 0.200056
 5799         os    199    bbb     O1   5799 -0.20025300  16.000000   ; qtot -0.000197
; residue  200 bbb rtp bbb q -0.0
 5800         n3    200    bbb     N1   5800 -0.59685800  14.010000   ; qtot -0.597055
 5801         c3    200    bbb     C1   5801 0.10137000  12.010000   ; qtot -0.495685
 5802         h1    200    bbb     H1   5802 0.04411300   1.008000   ; qtot -0.451572
 5803         h1    200    bbb     H2   5803 0.04411300   1.008000   ; qtot -0.407459
 5804         c3    200    bbb     C2   5804 0.10137000  12.010000   ; qtot -0.306089
 5805         h1    200    bbb     H3   5805 0.04411300   1.008000   ; qtot -0.261976
 5806         h1    200    bbb     H4   5806 0.04411300   1.008000   ; qtot -0.217863
 5807         c3    200    bbb     C3   5807 -0.00195300  12.010000   ; qtot -0.219816
 5808         h1    200    bbb     H5   5808 0.05064400   1.008000   ; qtot -0.169172
 5809         h1    200    bbb     H6   5809 0.05064400   1.008000   ; qtot -0.118528
 5810         c3    200    bbb     C4   5810 -0.01612100  12.010000   ; qtot -0.134649
 5811         hc    200    bbb     H7   5811 0.04936100   1.008000   ; qtot -0.085288
 5812         hc    200    bbb     H8   5812 0.04936100   1.008000   ; qtot -0.035927
 5813         c3    200    bbb     C5   5813 0.11363000  12.010000   ; qtot 0.077703
 5814         hc    200    bbb     H9   5814 0.06265900   1.008000   ; qtot 0.140362
 5815         hc    200    bbb    H10   5815 0.06265900   1.008000   ; qtot 0.203021
 5816         c3    200    bbb     C6   5816 0.11363000  12.010000   ; qtot 0.316651
 5817         hc    200    bbb    H11   5817 0.06265900   1.008000   ; qtot 0.379310
 5818         hc    200    bbb    H12   5818 0.06265900   1.008000   ; qtot 0.441969
 5819         c3    200    bbb     C7   5819 0.05858200  12.010000   ; qtot 0.500551
 5820         h1    200    bbb    H13   5820 0.06123400   1.008000   ; qtot 0.561785
 5821         h1    200    bbb    H14   5821 0.06123400   1.008000   ; qtot 0.623019
 5822         c3    200    bbb     C8   5822 -0.72423400  12.010000   ; qtot -0.101215
 5823         h1    200    bbb    H15   5823 0.25637600   1.008000   ; qtot 0.155161
 5824         h1    200    bbb    H16   5824 0.25637600   1.008000   ; qtot 0.411537
 5825         c3    200    bbb     C9   5825 -0.72423400  12.010000   ; qtot -0.312697
 5826         h1    200    bbb    H17   5826 0.25637600   1.008000   ; qtot -0.056321
 5827         h1    200    bbb    H18   5827 0.25637600   1.008000   ; qtot 0.200055
 5828         os    200    bbb     O1   5828 -0.20025300  16.000000   ; qtot -0.000198
; residue  201 bbb rtp bbb q -0.0
 5829         n3    201    bbb     N1   5829 -0.59685800  14.010000   ; qtot -0.597056
 5830         c3    201    bbb     C1   5830 0.10137000  12.010000   ; qtot -0.495686
 5831         h1    201    bbb     H1   5831 0.04411300   1.008000   ; qtot -0.451573
 5832         h1    201    bbb     H2   5832 0.04411300   1.008000   ; qtot -0.407460
 5833         c3    201    bbb     C2   5833 0.10137000  12.010000   ; qtot -0.306090
 5834         h1    201    bbb     H3   5834 0.04411300   1.008000   ; qtot -0.261977
 5835         h1    201    bbb     H4   5835 0.04411300   1.008000   ; qtot -0.217864
 5836         c3    201    bbb     C3   5836 -0.00195300  12.010000   ; qtot -0.219817
 5837         h1    201    bbb     H5   5837 0.05064400   1.008000   ; qtot -0.169173
 5838         h1    201    bbb     H6   5838 0.05064400   1.008000   ; qtot -0.118529
 5839         c3    201    bbb     C4   5839 -0.01612100  12.010000   ; qtot -0.134650
 5840         hc    201    bbb     H7   5840 0.04936100   1.008000   ; qtot -0.085289
 5841         hc    201    bbb     H8   5841 0.04936100   1.008000   ; qtot -0.035928
 5842         c3    201    bbb     C5   5842 0.11363000  12.010000   ; qtot 0.077702
 5843         hc    201    bbb     H9   5843 0.06265900   1.008000   ; qtot 0.140361
 5844         hc    201    bbb    H10   5844 0.06265900   1.008000   ; qtot 0.203020
 5845         c3    201    bbb     C6   5845 0.11363000  12.010000   ; qtot 0.316650
 5846         hc    201    bbb    H11   5846 0.06265900   1.008000   ; qtot 0.379309
 5847         hc    201    bbb    H12   5847 0.06265900   1.008000   ; qtot 0.441968
 5848         c3    201    bbb     C7   5848 0.05858200  12.010000   ; qtot 0.500550
 5849         h1    201    bbb    H13   5849 0.06123400   1.008000   ; qtot 0.561784
 5850         h1    201    bbb    H14   5850 0.06123400   1.008000   ; qtot 0.623018
 5851         c3    201    bbb     C8   5851 -0.72423400  12.010000   ; qtot -0.101216
 5852         h1    201    bbb    H15   5852 0.25637600   1.008000   ; qtot 0.155160
 5853         h1    201    bbb    H16   5853 0.25637600   1.008000   ; qtot 0.411536
 5854         c3    201    bbb     C9   5854 -0.72423400  12.010000   ; qtot -0.312698
 5855         h1    201    bbb    H17   5855 0.25637600   1.008000   ; qtot -0.056322
 5856         h1    201    bbb    H18   5856 0.25637600   1.008000   ; qtot 0.200054
 5857         os    201    bbb     O1   5857 -0.20025300  16.000000   ; qtot -0.000199
; residue  202 bbb rtp bbb q -0.0
 5858         n3    202    bbb     N1   5858 -0.59685800  14.010000   ; qtot -0.597057
 5859         c3    202    bbb     C1   5859 0.10137000  12.010000   ; qtot -0.495687
 5860         h1    202    bbb     H1   5860 0.04411300   1.008000   ; qtot -0.451574
 5861         h1    202    bbb     H2   5861 0.04411300   1.008000   ; qtot -0.407461
 5862         c3    202    bbb     C2   5862 0.10137000  12.010000   ; qtot -0.306091
 5863         h1    202    bbb     H3   5863 0.04411300   1.008000   ; qtot -0.261978
 5864         h1    202    bbb     H4   5864 0.04411300   1.008000   ; qtot -0.217865
 5865         c3    202    bbb     C3   5865 -0.00195300  12.010000   ; qtot -0.219818
 5866         h1    202    bbb     H5   5866 0.05064400   1.008000   ; qtot -0.169174
 5867         h1    202    bbb     H6   5867 0.05064400   1.008000   ; qtot -0.118530
 5868         c3    202    bbb     C4   5868 -0.01612100  12.010000   ; qtot -0.134651
 5869         hc    202    bbb     H7   5869 0.04936100   1.008000   ; qtot -0.085290
 5870         hc    202    bbb     H8   5870 0.04936100   1.008000   ; qtot -0.035929
 5871         c3    202    bbb     C5   5871 0.11363000  12.010000   ; qtot 0.077701
 5872         hc    202    bbb     H9   5872 0.06265900   1.008000   ; qtot 0.140360
 5873         hc    202    bbb    H10   5873 0.06265900   1.008000   ; qtot 0.203019
 5874         c3    202    bbb     C6   5874 0.11363000  12.010000   ; qtot 0.316649
 5875         hc    202    bbb    H11   5875 0.06265900   1.008000   ; qtot 0.379308
 5876         hc    202    bbb    H12   5876 0.06265900   1.008000   ; qtot 0.441967
 5877         c3    202    bbb     C7   5877 0.05858200  12.010000   ; qtot 0.500549
 5878         h1    202    bbb    H13   5878 0.06123400   1.008000   ; qtot 0.561783
 5879         h1    202    bbb    H14   5879 0.06123400   1.008000   ; qtot 0.623017
 5880         c3    202    bbb     C8   5880 -0.72423400  12.010000   ; qtot -0.101217
 5881         h1    202    bbb    H15   5881 0.25637600   1.008000   ; qtot 0.155159
 5882         h1    202    bbb    H16   5882 0.25637600   1.008000   ; qtot 0.411535
 5883         c3    202    bbb     C9   5883 -0.72423400  12.010000   ; qtot -0.312699
 5884         h1    202    bbb    H17   5884 0.25637600   1.008000   ; qtot -0.056323
 5885         h1    202    bbb    H18   5885 0.25637600   1.008000   ; qtot 0.200053
 5886         os    202    bbb     O1   5886 -0.20025300  16.000000   ; qtot -0.000200
; residue  203 bbb rtp bbb q -0.0
 5887         n3    203    bbb     N1   5887 -0.59685800  14.010000   ; qtot -0.597058
 5888         c3    203    bbb     C1   5888 0.10137000  12.010000   ; qtot -0.495688
 5889         h1    203    bbb     H1   5889 0.04411300   1.008000   ; qtot -0.451575
 5890         h1    203    bbb     H2   5890 0.04411300   1.008000   ; qtot -0.407462
 5891         c3    203    bbb     C2   5891 0.10137000  12.010000   ; qtot -0.306092
 5892         h1    203    bbb     H3   5892 0.04411300   1.008000   ; qtot -0.261979
 5893         h1    203    bbb     H4   5893 0.04411300   1.008000   ; qtot -0.217866
 5894         c3    203    bbb     C3   5894 -0.00195300  12.010000   ; qtot -0.219819
 5895         h1    203    bbb     H5   5895 0.05064400   1.008000   ; qtot -0.169175
 5896         h1    203    bbb     H6   5896 0.05064400   1.008000   ; qtot -0.118531
 5897         c3    203    bbb     C4   5897 -0.01612100  12.010000   ; qtot -0.134652
 5898         hc    203    bbb     H7   5898 0.04936100   1.008000   ; qtot -0.085291
 5899         hc    203    bbb     H8   5899 0.04936100   1.008000   ; qtot -0.035930
 5900         c3    203    bbb     C5   5900 0.11363000  12.010000   ; qtot 0.077700
 5901         hc    203    bbb     H9   5901 0.06265900   1.008000   ; qtot 0.140359
 5902         hc    203    bbb    H10   5902 0.06265900   1.008000   ; qtot 0.203018
 5903         c3    203    bbb     C6   5903 0.11363000  12.010000   ; qtot 0.316648
 5904         hc    203    bbb    H11   5904 0.06265900   1.008000   ; qtot 0.379307
 5905         hc    203    bbb    H12   5905 0.06265900   1.008000   ; qtot 0.441966
 5906         c3    203    bbb     C7   5906 0.05858200  12.010000   ; qtot 0.500548
 5907         h1    203    bbb    H13   5907 0.06123400   1.008000   ; qtot 0.561782
 5908         h1    203    bbb    H14   5908 0.06123400   1.008000   ; qtot 0.623016
 5909         c3    203    bbb     C8   5909 -0.72423400  12.010000   ; qtot -0.101218
 5910         h1    203    bbb    H15   5910 0.25637600   1.008000   ; qtot 0.155158
 5911         h1    203    bbb    H16   5911 0.25637600   1.008000   ; qtot 0.411534
 5912         c3    203    bbb     C9   5912 -0.72423400  12.010000   ; qtot -0.312700
 5913         h1    203    bbb    H17   5913 0.25637600   1.008000   ; qtot -0.056324
 5914         h1    203    bbb    H18   5914 0.25637600   1.008000   ; qtot 0.200052
 5915         os    203    bbb     O1   5915 -0.20025300  16.000000   ; qtot -0.000201
; residue  204 bbb rtp bbb q -0.0
 5916         n3    204    bbb     N1   5916 -0.59685800  14.010000   ; qtot -0.597059
 5917         c3    204    bbb     C1   5917 0.10137000  12.010000   ; qtot -0.495689
 5918         h1    204    bbb     H1   5918 0.04411300   1.008000   ; qtot -0.451576
 5919         h1    204    bbb     H2   5919 0.04411300   1.008000   ; qtot -0.407463
 5920         c3    204    bbb     C2   5920 0.10137000  12.010000   ; qtot -0.306093
 5921         h1    204    bbb     H3   5921 0.04411300   1.008000   ; qtot -0.261980
 5922         h1    204    bbb     H4   5922 0.04411300   1.008000   ; qtot -0.217867
 5923         c3    204    bbb     C3   5923 -0.00195300  12.010000   ; qtot -0.219820
 5924         h1    204    bbb     H5   5924 0.05064400   1.008000   ; qtot -0.169176
 5925         h1    204    bbb     H6   5925 0.05064400   1.008000   ; qtot -0.118532
 5926         c3    204    bbb     C4   5926 -0.01612100  12.010000   ; qtot -0.134653
 5927         hc    204    bbb     H7   5927 0.04936100   1.008000   ; qtot -0.085292
 5928         hc    204    bbb     H8   5928 0.04936100   1.008000   ; qtot -0.035931
 5929         c3    204    bbb     C5   5929 0.11363000  12.010000   ; qtot 0.077699
 5930         hc    204    bbb     H9   5930 0.06265900   1.008000   ; qtot 0.140358
 5931         hc    204    bbb    H10   5931 0.06265900   1.008000   ; qtot 0.203017
 5932         c3    204    bbb     C6   5932 0.11363000  12.010000   ; qtot 0.316647
 5933         hc    204    bbb    H11   5933 0.06265900   1.008000   ; qtot 0.379306
 5934         hc    204    bbb    H12   5934 0.06265900   1.008000   ; qtot 0.441965
 5935         c3    204    bbb     C7   5935 0.05858200  12.010000   ; qtot 0.500547
 5936         h1    204    bbb    H13   5936 0.06123400   1.008000   ; qtot 0.561781
 5937         h1    204    bbb    H14   5937 0.06123400   1.008000   ; qtot 0.623015
 5938         c3    204    bbb     C8   5938 -0.72423400  12.010000   ; qtot -0.101219
 5939         h1    204    bbb    H15   5939 0.25637600   1.008000   ; qtot 0.155157
 5940         h1    204    bbb    H16   5940 0.25637600   1.008000   ; qtot 0.411533
 5941         c3    204    bbb     C9   5941 -0.72423400  12.010000   ; qtot -0.312701
 5942         h1    204    bbb    H17   5942 0.25637600   1.008000   ; qtot -0.056325
 5943         h1    204    bbb    H18   5943 0.25637600   1.008000   ; qtot 0.200051
 5944         os    204    bbb     O1   5944 -0.20025300  16.000000   ; qtot -0.000202
; residue  205 bbb rtp bbb q -0.0
 5945         n3    205    bbb     N1   5945 -0.59685800  14.010000   ; qtot -0.597060
 5946         c3    205    bbb     C1   5946 0.10137000  12.010000   ; qtot -0.495690
 5947         h1    205    bbb     H1   5947 0.04411300   1.008000   ; qtot -0.451577
 5948         h1    205    bbb     H2   5948 0.04411300   1.008000   ; qtot -0.407464
 5949         c3    205    bbb     C2   5949 0.10137000  12.010000   ; qtot -0.306094
 5950         h1    205    bbb     H3   5950 0.04411300   1.008000   ; qtot -0.261981
 5951         h1    205    bbb     H4   5951 0.04411300   1.008000   ; qtot -0.217868
 5952         c3    205    bbb     C3   5952 -0.00195300  12.010000   ; qtot -0.219821
 5953         h1    205    bbb     H5   5953 0.05064400   1.008000   ; qtot -0.169177
 5954         h1    205    bbb     H6   5954 0.05064400   1.008000   ; qtot -0.118533
 5955         c3    205    bbb     C4   5955 -0.01612100  12.010000   ; qtot -0.134654
 5956         hc    205    bbb     H7   5956 0.04936100   1.008000   ; qtot -0.085293
 5957         hc    205    bbb     H8   5957 0.04936100   1.008000   ; qtot -0.035932
 5958         c3    205    bbb     C5   5958 0.11363000  12.010000   ; qtot 0.077698
 5959         hc    205    bbb     H9   5959 0.06265900   1.008000   ; qtot 0.140357
 5960         hc    205    bbb    H10   5960 0.06265900   1.008000   ; qtot 0.203016
 5961         c3    205    bbb     C6   5961 0.11363000  12.010000   ; qtot 0.316646
 5962         hc    205    bbb    H11   5962 0.06265900   1.008000   ; qtot 0.379305
 5963         hc    205    bbb    H12   5963 0.06265900   1.008000   ; qtot 0.441964
 5964         c3    205    bbb     C7   5964 0.05858200  12.010000   ; qtot 0.500546
 5965         h1    205    bbb    H13   5965 0.06123400   1.008000   ; qtot 0.561780
 5966         h1    205    bbb    H14   5966 0.06123400   1.008000   ; qtot 0.623014
 5967         c3    205    bbb     C8   5967 -0.72423400  12.010000   ; qtot -0.101220
 5968         h1    205    bbb    H15   5968 0.25637600   1.008000   ; qtot 0.155156
 5969         h1    205    bbb    H16   5969 0.25637600   1.008000   ; qtot 0.411532
 5970         c3    205    bbb     C9   5970 -0.72423400  12.010000   ; qtot -0.312702
 5971         h1    205    bbb    H17   5971 0.25637600   1.008000   ; qtot -0.056326
 5972         h1    205    bbb    H18   5972 0.25637600   1.008000   ; qtot 0.200050
 5973         os    205    bbb     O1   5973 -0.20025300  16.000000   ; qtot -0.000203
; residue  206 bbb rtp bbb q -0.0
 5974         n3    206    bbb     N1   5974 -0.59685800  14.010000   ; qtot -0.597061
 5975         c3    206    bbb     C1   5975 0.10137000  12.010000   ; qtot -0.495691
 5976         h1    206    bbb     H1   5976 0.04411300   1.008000   ; qtot -0.451578
 5977         h1    206    bbb     H2   5977 0.04411300   1.008000   ; qtot -0.407465
 5978         c3    206    bbb     C2   5978 0.10137000  12.010000   ; qtot -0.306095
 5979         h1    206    bbb     H3   5979 0.04411300   1.008000   ; qtot -0.261982
 5980         h1    206    bbb     H4   5980 0.04411300   1.008000   ; qtot -0.217869
 5981         c3    206    bbb     C3   5981 -0.00195300  12.010000   ; qtot -0.219822
 5982         h1    206    bbb     H5   5982 0.05064400   1.008000   ; qtot -0.169178
 5983         h1    206    bbb     H6   5983 0.05064400   1.008000   ; qtot -0.118534
 5984         c3    206    bbb     C4   5984 -0.01612100  12.010000   ; qtot -0.134655
 5985         hc    206    bbb     H7   5985 0.04936100   1.008000   ; qtot -0.085294
 5986         hc    206    bbb     H8   5986 0.04936100   1.008000   ; qtot -0.035933
 5987         c3    206    bbb     C5   5987 0.11363000  12.010000   ; qtot 0.077697
 5988         hc    206    bbb     H9   5988 0.06265900   1.008000   ; qtot 0.140356
 5989         hc    206    bbb    H10   5989 0.06265900   1.008000   ; qtot 0.203015
 5990         c3    206    bbb     C6   5990 0.11363000  12.010000   ; qtot 0.316645
 5991         hc    206    bbb    H11   5991 0.06265900   1.008000   ; qtot 0.379304
 5992         hc    206    bbb    H12   5992 0.06265900   1.008000   ; qtot 0.441963
 5993         c3    206    bbb     C7   5993 0.05858200  12.010000   ; qtot 0.500545
 5994         h1    206    bbb    H13   5994 0.06123400   1.008000   ; qtot 0.561779
 5995         h1    206    bbb    H14   5995 0.06123400   1.008000   ; qtot 0.623013
 5996         c3    206    bbb     C8   5996 -0.72423400  12.010000   ; qtot -0.101221
 5997         h1    206    bbb    H15   5997 0.25637600   1.008000   ; qtot 0.155155
 5998         h1    206    bbb    H16   5998 0.25637600   1.008000   ; qtot 0.411531
 5999         c3    206    bbb     C9   5999 -0.72423400  12.010000   ; qtot -0.312703
 6000         h1    206    bbb    H17   6000 0.25637600   1.008000   ; qtot -0.056327
 6001         h1    206    bbb    H18   6001 0.25637600   1.008000   ; qtot 0.200049
 6002         os    206    bbb     O1   6002 -0.20025300  16.000000   ; qtot -0.000204
; residue  207 bbb rtp bbb q -0.0
 6003         n3    207    bbb     N1   6003 -0.59685800  14.010000   ; qtot -0.597062
 6004         c3    207    bbb     C1   6004 0.10137000  12.010000   ; qtot -0.495692
 6005         h1    207    bbb     H1   6005 0.04411300   1.008000   ; qtot -0.451579
 6006         h1    207    bbb     H2   6006 0.04411300   1.008000   ; qtot -0.407466
 6007         c3    207    bbb     C2   6007 0.10137000  12.010000   ; qtot -0.306096
 6008         h1    207    bbb     H3   6008 0.04411300   1.008000   ; qtot -0.261983
 6009         h1    207    bbb     H4   6009 0.04411300   1.008000   ; qtot -0.217870
 6010         c3    207    bbb     C3   6010 -0.00195300  12.010000   ; qtot -0.219823
 6011         h1    207    bbb     H5   6011 0.05064400   1.008000   ; qtot -0.169179
 6012         h1    207    bbb     H6   6012 0.05064400   1.008000   ; qtot -0.118535
 6013         c3    207    bbb     C4   6013 -0.01612100  12.010000   ; qtot -0.134656
 6014         hc    207    bbb     H7   6014 0.04936100   1.008000   ; qtot -0.085295
 6015         hc    207    bbb     H8   6015 0.04936100   1.008000   ; qtot -0.035934
 6016         c3    207    bbb     C5   6016 0.11363000  12.010000   ; qtot 0.077696
 6017         hc    207    bbb     H9   6017 0.06265900   1.008000   ; qtot 0.140355
 6018         hc    207    bbb    H10   6018 0.06265900   1.008000   ; qtot 0.203014
 6019         c3    207    bbb     C6   6019 0.11363000  12.010000   ; qtot 0.316644
 6020         hc    207    bbb    H11   6020 0.06265900   1.008000   ; qtot 0.379303
 6021         hc    207    bbb    H12   6021 0.06265900   1.008000   ; qtot 0.441962
 6022         c3    207    bbb     C7   6022 0.05858200  12.010000   ; qtot 0.500544
 6023         h1    207    bbb    H13   6023 0.06123400   1.008000   ; qtot 0.561778
 6024         h1    207    bbb    H14   6024 0.06123400   1.008000   ; qtot 0.623012
 6025         c3    207    bbb     C8   6025 -0.72423400  12.010000   ; qtot -0.101222
 6026         h1    207    bbb    H15   6026 0.25637600   1.008000   ; qtot 0.155154
 6027         h1    207    bbb    H16   6027 0.25637600   1.008000   ; qtot 0.411530
 6028         c3    207    bbb     C9   6028 -0.72423400  12.010000   ; qtot -0.312704
 6029         h1    207    bbb    H17   6029 0.25637600   1.008000   ; qtot -0.056328
 6030         h1    207    bbb    H18   6030 0.25637600   1.008000   ; qtot 0.200048
 6031         os    207    bbb     O1   6031 -0.20025300  16.000000   ; qtot -0.000205
; residue  208 bbb rtp bbb q -0.0
 6032         n3    208    bbb     N1   6032 -0.59685800  14.010000   ; qtot -0.597063
 6033         c3    208    bbb     C1   6033 0.10137000  12.010000   ; qtot -0.495693
 6034         h1    208    bbb     H1   6034 0.04411300   1.008000   ; qtot -0.451580
 6035         h1    208    bbb     H2   6035 0.04411300   1.008000   ; qtot -0.407467
 6036         c3    208    bbb     C2   6036 0.10137000  12.010000   ; qtot -0.306097
 6037         h1    208    bbb     H3   6037 0.04411300   1.008000   ; qtot -0.261984
 6038         h1    208    bbb     H4   6038 0.04411300   1.008000   ; qtot -0.217871
 6039         c3    208    bbb     C3   6039 -0.00195300  12.010000   ; qtot -0.219824
 6040         h1    208    bbb     H5   6040 0.05064400   1.008000   ; qtot -0.169180
 6041         h1    208    bbb     H6   6041 0.05064400   1.008000   ; qtot -0.118536
 6042         c3    208    bbb     C4   6042 -0.01612100  12.010000   ; qtot -0.134657
 6043         hc    208    bbb     H7   6043 0.04936100   1.008000   ; qtot -0.085296
 6044         hc    208    bbb     H8   6044 0.04936100   1.008000   ; qtot -0.035935
 6045         c3    208    bbb     C5   6045 0.11363000  12.010000   ; qtot 0.077695
 6046         hc    208    bbb     H9   6046 0.06265900   1.008000   ; qtot 0.140354
 6047         hc    208    bbb    H10   6047 0.06265900   1.008000   ; qtot 0.203013
 6048         c3    208    bbb     C6   6048 0.11363000  12.010000   ; qtot 0.316643
 6049         hc    208    bbb    H11   6049 0.06265900   1.008000   ; qtot 0.379302
 6050         hc    208    bbb    H12   6050 0.06265900   1.008000   ; qtot 0.441961
 6051         c3    208    bbb     C7   6051 0.05858200  12.010000   ; qtot 0.500543
 6052         h1    208    bbb    H13   6052 0.06123400   1.008000   ; qtot 0.561777
 6053         h1    208    bbb    H14   6053 0.06123400   1.008000   ; qtot 0.623011
 6054         c3    208    bbb     C8   6054 -0.72423400  12.010000   ; qtot -0.101223
 6055         h1    208    bbb    H15   6055 0.25637600   1.008000   ; qtot 0.155153
 6056         h1    208    bbb    H16   6056 0.25637600   1.008000   ; qtot 0.411529
 6057         c3    208    bbb     C9   6057 -0.72423400  12.010000   ; qtot -0.312705
 6058         h1    208    bbb    H17   6058 0.25637600   1.008000   ; qtot -0.056329
 6059         h1    208    bbb    H18   6059 0.25637600   1.008000   ; qtot 0.200047
 6060         os    208    bbb     O1   6060 -0.20025300  16.000000   ; qtot -0.000206
; residue  209 bbb rtp bbb q -0.0
 6061         n3    209    bbb     N1   6061 -0.59685800  14.010000   ; qtot -0.597064
 6062         c3    209    bbb     C1   6062 0.10137000  12.010000   ; qtot -0.495694
 6063         h1    209    bbb     H1   6063 0.04411300   1.008000   ; qtot -0.451581
 6064         h1    209    bbb     H2   6064 0.04411300   1.008000   ; qtot -0.407468
 6065         c3    209    bbb     C2   6065 0.10137000  12.010000   ; qtot -0.306098
 6066         h1    209    bbb     H3   6066 0.04411300   1.008000   ; qtot -0.261985
 6067         h1    209    bbb     H4   6067 0.04411300   1.008000   ; qtot -0.217872
 6068         c3    209    bbb     C3   6068 -0.00195300  12.010000   ; qtot -0.219825
 6069         h1    209    bbb     H5   6069 0.05064400   1.008000   ; qtot -0.169181
 6070         h1    209    bbb     H6   6070 0.05064400   1.008000   ; qtot -0.118537
 6071         c3    209    bbb     C4   6071 -0.01612100  12.010000   ; qtot -0.134658
 6072         hc    209    bbb     H7   6072 0.04936100   1.008000   ; qtot -0.085297
 6073         hc    209    bbb     H8   6073 0.04936100   1.008000   ; qtot -0.035936
 6074         c3    209    bbb     C5   6074 0.11363000  12.010000   ; qtot 0.077694
 6075         hc    209    bbb     H9   6075 0.06265900   1.008000   ; qtot 0.140353
 6076         hc    209    bbb    H10   6076 0.06265900   1.008000   ; qtot 0.203012
 6077         c3    209    bbb     C6   6077 0.11363000  12.010000   ; qtot 0.316642
 6078         hc    209    bbb    H11   6078 0.06265900   1.008000   ; qtot 0.379301
 6079         hc    209    bbb    H12   6079 0.06265900   1.008000   ; qtot 0.441960
 6080         c3    209    bbb     C7   6080 0.05858200  12.010000   ; qtot 0.500542
 6081         h1    209    bbb    H13   6081 0.06123400   1.008000   ; qtot 0.561776
 6082         h1    209    bbb    H14   6082 0.06123400   1.008000   ; qtot 0.623010
 6083         c3    209    bbb     C8   6083 -0.72423400  12.010000   ; qtot -0.101224
 6084         h1    209    bbb    H15   6084 0.25637600   1.008000   ; qtot 0.155152
 6085         h1    209    bbb    H16   6085 0.25637600   1.008000   ; qtot 0.411528
 6086         c3    209    bbb     C9   6086 -0.72423400  12.010000   ; qtot -0.312706
 6087         h1    209    bbb    H17   6087 0.25637600   1.008000   ; qtot -0.056330
 6088         h1    209    bbb    H18   6088 0.25637600   1.008000   ; qtot 0.200046
 6089         os    209    bbb     O1   6089 -0.20025300  16.000000   ; qtot -0.000207
; residue  210 bbb rtp bbb q -0.0
 6090         n3    210    bbb     N1   6090 -0.59685800  14.010000   ; qtot -0.597065
 6091         c3    210    bbb     C1   6091 0.10137000  12.010000   ; qtot -0.495695
 6092         h1    210    bbb     H1   6092 0.04411300   1.008000   ; qtot -0.451582
 6093         h1    210    bbb     H2   6093 0.04411300   1.008000   ; qtot -0.407469
 6094         c3    210    bbb     C2   6094 0.10137000  12.010000   ; qtot -0.306099
 6095         h1    210    bbb     H3   6095 0.04411300   1.008000   ; qtot -0.261986
 6096         h1    210    bbb     H4   6096 0.04411300   1.008000   ; qtot -0.217873
 6097         c3    210    bbb     C3   6097 -0.00195300  12.010000   ; qtot -0.219826
 6098         h1    210    bbb     H5   6098 0.05064400   1.008000   ; qtot -0.169182
 6099         h1    210    bbb     H6   6099 0.05064400   1.008000   ; qtot -0.118538
 6100         c3    210    bbb     C4   6100 -0.01612100  12.010000   ; qtot -0.134659
 6101         hc    210    bbb     H7   6101 0.04936100   1.008000   ; qtot -0.085298
 6102         hc    210    bbb     H8   6102 0.04936100   1.008000   ; qtot -0.035937
 6103         c3    210    bbb     C5   6103 0.11363000  12.010000   ; qtot 0.077693
 6104         hc    210    bbb     H9   6104 0.06265900   1.008000   ; qtot 0.140352
 6105         hc    210    bbb    H10   6105 0.06265900   1.008000   ; qtot 0.203011
 6106         c3    210    bbb     C6   6106 0.11363000  12.010000   ; qtot 0.316641
 6107         hc    210    bbb    H11   6107 0.06265900   1.008000   ; qtot 0.379300
 6108         hc    210    bbb    H12   6108 0.06265900   1.008000   ; qtot 0.441959
 6109         c3    210    bbb     C7   6109 0.05858200  12.010000   ; qtot 0.500541
 6110         h1    210    bbb    H13   6110 0.06123400   1.008000   ; qtot 0.561775
 6111         h1    210    bbb    H14   6111 0.06123400   1.008000   ; qtot 0.623009
 6112         c3    210    bbb     C8   6112 -0.72423400  12.010000   ; qtot -0.101225
 6113         h1    210    bbb    H15   6113 0.25637600   1.008000   ; qtot 0.155151
 6114         h1    210    bbb    H16   6114 0.25637600   1.008000   ; qtot 0.411527
 6115         c3    210    bbb     C9   6115 -0.72423400  12.010000   ; qtot -0.312707
 6116         h1    210    bbb    H17   6116 0.25637600   1.008000   ; qtot -0.056331
 6117         h1    210    bbb    H18   6117 0.25637600   1.008000   ; qtot 0.200045
 6118         os    210    bbb     O1   6118 -0.20025300  16.000000   ; qtot -0.000208
; residue  211 bbb rtp bbb q -0.0
 6119         n3    211    bbb     N1   6119 -0.59685800  14.010000   ; qtot -0.597066
 6120         c3    211    bbb     C1   6120 0.10137000  12.010000   ; qtot -0.495696
 6121         h1    211    bbb     H1   6121 0.04411300   1.008000   ; qtot -0.451583
 6122         h1    211    bbb     H2   6122 0.04411300   1.008000   ; qtot -0.407470
 6123         c3    211    bbb     C2   6123 0.10137000  12.010000   ; qtot -0.306100
 6124         h1    211    bbb     H3   6124 0.04411300   1.008000   ; qtot -0.261987
 6125         h1    211    bbb     H4   6125 0.04411300   1.008000   ; qtot -0.217874
 6126         c3    211    bbb     C3   6126 -0.00195300  12.010000   ; qtot -0.219827
 6127         h1    211    bbb     H5   6127 0.05064400   1.008000   ; qtot -0.169183
 6128         h1    211    bbb     H6   6128 0.05064400   1.008000   ; qtot -0.118539
 6129         c3    211    bbb     C4   6129 -0.01612100  12.010000   ; qtot -0.134660
 6130         hc    211    bbb     H7   6130 0.04936100   1.008000   ; qtot -0.085299
 6131         hc    211    bbb     H8   6131 0.04936100   1.008000   ; qtot -0.035938
 6132         c3    211    bbb     C5   6132 0.11363000  12.010000   ; qtot 0.077692
 6133         hc    211    bbb     H9   6133 0.06265900   1.008000   ; qtot 0.140351
 6134         hc    211    bbb    H10   6134 0.06265900   1.008000   ; qtot 0.203010
 6135         c3    211    bbb     C6   6135 0.11363000  12.010000   ; qtot 0.316640
 6136         hc    211    bbb    H11   6136 0.06265900   1.008000   ; qtot 0.379299
 6137         hc    211    bbb    H12   6137 0.06265900   1.008000   ; qtot 0.441958
 6138         c3    211    bbb     C7   6138 0.05858200  12.010000   ; qtot 0.500540
 6139         h1    211    bbb    H13   6139 0.06123400   1.008000   ; qtot 0.561774
 6140         h1    211    bbb    H14   6140 0.06123400   1.008000   ; qtot 0.623008
 6141         c3    211    bbb     C8   6141 -0.72423400  12.010000   ; qtot -0.101226
 6142         h1    211    bbb    H15   6142 0.25637600   1.008000   ; qtot 0.155150
 6143         h1    211    bbb    H16   6143 0.25637600   1.008000   ; qtot 0.411526
 6144         c3    211    bbb     C9   6144 -0.72423400  12.010000   ; qtot -0.312708
 6145         h1    211    bbb    H17   6145 0.25637600   1.008000   ; qtot -0.056332
 6146         h1    211    bbb    H18   6146 0.25637600   1.008000   ; qtot 0.200044
 6147         os    211    bbb     O1   6147 -0.20025300  16.000000   ; qtot -0.000209
; residue  212 bbb rtp bbb q -0.0
 6148         n3    212    bbb     N1   6148 -0.59685800  14.010000   ; qtot -0.597067
 6149         c3    212    bbb     C1   6149 0.10137000  12.010000   ; qtot -0.495697
 6150         h1    212    bbb     H1   6150 0.04411300   1.008000   ; qtot -0.451584
 6151         h1    212    bbb     H2   6151 0.04411300   1.008000   ; qtot -0.407471
 6152         c3    212    bbb     C2   6152 0.10137000  12.010000   ; qtot -0.306101
 6153         h1    212    bbb     H3   6153 0.04411300   1.008000   ; qtot -0.261988
 6154         h1    212    bbb     H4   6154 0.04411300   1.008000   ; qtot -0.217875
 6155         c3    212    bbb     C3   6155 -0.00195300  12.010000   ; qtot -0.219828
 6156         h1    212    bbb     H5   6156 0.05064400   1.008000   ; qtot -0.169184
 6157         h1    212    bbb     H6   6157 0.05064400   1.008000   ; qtot -0.118540
 6158         c3    212    bbb     C4   6158 -0.01612100  12.010000   ; qtot -0.134661
 6159         hc    212    bbb     H7   6159 0.04936100   1.008000   ; qtot -0.085300
 6160         hc    212    bbb     H8   6160 0.04936100   1.008000   ; qtot -0.035939
 6161         c3    212    bbb     C5   6161 0.11363000  12.010000   ; qtot 0.077691
 6162         hc    212    bbb     H9   6162 0.06265900   1.008000   ; qtot 0.140350
 6163         hc    212    bbb    H10   6163 0.06265900   1.008000   ; qtot 0.203009
 6164         c3    212    bbb     C6   6164 0.11363000  12.010000   ; qtot 0.316639
 6165         hc    212    bbb    H11   6165 0.06265900   1.008000   ; qtot 0.379298
 6166         hc    212    bbb    H12   6166 0.06265900   1.008000   ; qtot 0.441957
 6167         c3    212    bbb     C7   6167 0.05858200  12.010000   ; qtot 0.500539
 6168         h1    212    bbb    H13   6168 0.06123400   1.008000   ; qtot 0.561773
 6169         h1    212    bbb    H14   6169 0.06123400   1.008000   ; qtot 0.623007
 6170         c3    212    bbb     C8   6170 -0.72423400  12.010000   ; qtot -0.101227
 6171         h1    212    bbb    H15   6171 0.25637600   1.008000   ; qtot 0.155149
 6172         h1    212    bbb    H16   6172 0.25637600   1.008000   ; qtot 0.411525
 6173         c3    212    bbb     C9   6173 -0.72423400  12.010000   ; qtot -0.312709
 6174         h1    212    bbb    H17   6174 0.25637600   1.008000   ; qtot -0.056333
 6175         h1    212    bbb    H18   6175 0.25637600   1.008000   ; qtot 0.200043
 6176         os    212    bbb     O1   6176 -0.20025300  16.000000   ; qtot -0.000210
; residue  213 bbb rtp bbb q -0.0
 6177         n3    213    bbb     N1   6177 -0.59685800  14.010000   ; qtot -0.597068
 6178         c3    213    bbb     C1   6178 0.10137000  12.010000   ; qtot -0.495698
 6179         h1    213    bbb     H1   6179 0.04411300   1.008000   ; qtot -0.451585
 6180         h1    213    bbb     H2   6180 0.04411300   1.008000   ; qtot -0.407472
 6181         c3    213    bbb     C2   6181 0.10137000  12.010000   ; qtot -0.306102
 6182         h1    213    bbb     H3   6182 0.04411300   1.008000   ; qtot -0.261989
 6183         h1    213    bbb     H4   6183 0.04411300   1.008000   ; qtot -0.217876
 6184         c3    213    bbb     C3   6184 -0.00195300  12.010000   ; qtot -0.219829
 6185         h1    213    bbb     H5   6185 0.05064400   1.008000   ; qtot -0.169185
 6186         h1    213    bbb     H6   6186 0.05064400   1.008000   ; qtot -0.118541
 6187         c3    213    bbb     C4   6187 -0.01612100  12.010000   ; qtot -0.134662
 6188         hc    213    bbb     H7   6188 0.04936100   1.008000   ; qtot -0.085301
 6189         hc    213    bbb     H8   6189 0.04936100   1.008000   ; qtot -0.035940
 6190         c3    213    bbb     C5   6190 0.11363000  12.010000   ; qtot 0.077690
 6191         hc    213    bbb     H9   6191 0.06265900   1.008000   ; qtot 0.140349
 6192         hc    213    bbb    H10   6192 0.06265900   1.008000   ; qtot 0.203008
 6193         c3    213    bbb     C6   6193 0.11363000  12.010000   ; qtot 0.316638
 6194         hc    213    bbb    H11   6194 0.06265900   1.008000   ; qtot 0.379297
 6195         hc    213    bbb    H12   6195 0.06265900   1.008000   ; qtot 0.441956
 6196         c3    213    bbb     C7   6196 0.05858200  12.010000   ; qtot 0.500538
 6197         h1    213    bbb    H13   6197 0.06123400   1.008000   ; qtot 0.561772
 6198         h1    213    bbb    H14   6198 0.06123400   1.008000   ; qtot 0.623006
 6199         c3    213    bbb     C8   6199 -0.72423400  12.010000   ; qtot -0.101228
 6200         h1    213    bbb    H15   6200 0.25637600   1.008000   ; qtot 0.155148
 6201         h1    213    bbb    H16   6201 0.25637600   1.008000   ; qtot 0.411524
 6202         c3    213    bbb     C9   6202 -0.72423400  12.010000   ; qtot -0.312710
 6203         h1    213    bbb    H17   6203 0.25637600   1.008000   ; qtot -0.056334
 6204         h1    213    bbb    H18   6204 0.25637600   1.008000   ; qtot 0.200042
 6205         os    213    bbb     O1   6205 -0.20025300  16.000000   ; qtot -0.000211
; residue  214 bbb rtp bbb q -0.0
 6206         n3    214    bbb     N1   6206 -0.59685800  14.010000   ; qtot -0.597069
 6207         c3    214    bbb     C1   6207 0.10137000  12.010000   ; qtot -0.495699
 6208         h1    214    bbb     H1   6208 0.04411300   1.008000   ; qtot -0.451586
 6209         h1    214    bbb     H2   6209 0.04411300   1.008000   ; qtot -0.407473
 6210         c3    214    bbb     C2   6210 0.10137000  12.010000   ; qtot -0.306103
 6211         h1    214    bbb     H3   6211 0.04411300   1.008000   ; qtot -0.261990
 6212         h1    214    bbb     H4   6212 0.04411300   1.008000   ; qtot -0.217877
 6213         c3    214    bbb     C3   6213 -0.00195300  12.010000   ; qtot -0.219830
 6214         h1    214    bbb     H5   6214 0.05064400   1.008000   ; qtot -0.169186
 6215         h1    214    bbb     H6   6215 0.05064400   1.008000   ; qtot -0.118542
 6216         c3    214    bbb     C4   6216 -0.01612100  12.010000   ; qtot -0.134663
 6217         hc    214    bbb     H7   6217 0.04936100   1.008000   ; qtot -0.085302
 6218         hc    214    bbb     H8   6218 0.04936100   1.008000   ; qtot -0.035941
 6219         c3    214    bbb     C5   6219 0.11363000  12.010000   ; qtot 0.077689
 6220         hc    214    bbb     H9   6220 0.06265900   1.008000   ; qtot 0.140348
 6221         hc    214    bbb    H10   6221 0.06265900   1.008000   ; qtot 0.203007
 6222         c3    214    bbb     C6   6222 0.11363000  12.010000   ; qtot 0.316637
 6223         hc    214    bbb    H11   6223 0.06265900   1.008000   ; qtot 0.379296
 6224         hc    214    bbb    H12   6224 0.06265900   1.008000   ; qtot 0.441955
 6225         c3    214    bbb     C7   6225 0.05858200  12.010000   ; qtot 0.500537
 6226         h1    214    bbb    H13   6226 0.06123400   1.008000   ; qtot 0.561771
 6227         h1    214    bbb    H14   6227 0.06123400   1.008000   ; qtot 0.623005
 6228         c3    214    bbb     C8   6228 -0.72423400  12.010000   ; qtot -0.101229
 6229         h1    214    bbb    H15   6229 0.25637600   1.008000   ; qtot 0.155147
 6230         h1    214    bbb    H16   6230 0.25637600   1.008000   ; qtot 0.411523
 6231         c3    214    bbb     C9   6231 -0.72423400  12.010000   ; qtot -0.312711
 6232         h1    214    bbb    H17   6232 0.25637600   1.008000   ; qtot -0.056335
 6233         h1    214    bbb    H18   6233 0.25637600   1.008000   ; qtot 0.200041
 6234         os    214    bbb     O1   6234 -0.20025300  16.000000   ; qtot -0.000212
; residue  215 bbb rtp bbb q -0.0
 6235         n3    215    bbb     N1   6235 -0.59685800  14.010000   ; qtot -0.597070
 6236         c3    215    bbb     C1   6236 0.10137000  12.010000   ; qtot -0.495700
 6237         h1    215    bbb     H1   6237 0.04411300   1.008000   ; qtot -0.451587
 6238         h1    215    bbb     H2   6238 0.04411300   1.008000   ; qtot -0.407474
 6239         c3    215    bbb     C2   6239 0.10137000  12.010000   ; qtot -0.306104
 6240         h1    215    bbb     H3   6240 0.04411300   1.008000   ; qtot -0.261991
 6241         h1    215    bbb     H4   6241 0.04411300   1.008000   ; qtot -0.217878
 6242         c3    215    bbb     C3   6242 -0.00195300  12.010000   ; qtot -0.219831
 6243         h1    215    bbb     H5   6243 0.05064400   1.008000   ; qtot -0.169187
 6244         h1    215    bbb     H6   6244 0.05064400   1.008000   ; qtot -0.118543
 6245         c3    215    bbb     C4   6245 -0.01612100  12.010000   ; qtot -0.134664
 6246         hc    215    bbb     H7   6246 0.04936100   1.008000   ; qtot -0.085303
 6247         hc    215    bbb     H8   6247 0.04936100   1.008000   ; qtot -0.035942
 6248         c3    215    bbb     C5   6248 0.11363000  12.010000   ; qtot 0.077688
 6249         hc    215    bbb     H9   6249 0.06265900   1.008000   ; qtot 0.140347
 6250         hc    215    bbb    H10   6250 0.06265900   1.008000   ; qtot 0.203006
 6251         c3    215    bbb     C6   6251 0.11363000  12.010000   ; qtot 0.316636
 6252         hc    215    bbb    H11   6252 0.06265900   1.008000   ; qtot 0.379295
 6253         hc    215    bbb    H12   6253 0.06265900   1.008000   ; qtot 0.441954
 6254         c3    215    bbb     C7   6254 0.05858200  12.010000   ; qtot 0.500536
 6255         h1    215    bbb    H13   6255 0.06123400   1.008000   ; qtot 0.561770
 6256         h1    215    bbb    H14   6256 0.06123400   1.008000   ; qtot 0.623004
 6257         c3    215    bbb     C8   6257 -0.72423400  12.010000   ; qtot -0.101230
 6258         h1    215    bbb    H15   6258 0.25637600   1.008000   ; qtot 0.155146
 6259         h1    215    bbb    H16   6259 0.25637600   1.008000   ; qtot 0.411522
 6260         c3    215    bbb     C9   6260 -0.72423400  12.010000   ; qtot -0.312712
 6261         h1    215    bbb    H17   6261 0.25637600   1.008000   ; qtot -0.056336
 6262         h1    215    bbb    H18   6262 0.25637600   1.008000   ; qtot 0.200040
 6263         os    215    bbb     O1   6263 -0.20025300  16.000000   ; qtot -0.000213
; residue  216 bbb rtp bbb q -0.0
 6264         n3    216    bbb     N1   6264 -0.59685800  14.010000   ; qtot -0.597071
 6265         c3    216    bbb     C1   6265 0.10137000  12.010000   ; qtot -0.495701
 6266         h1    216    bbb     H1   6266 0.04411300   1.008000   ; qtot -0.451588
 6267         h1    216    bbb     H2   6267 0.04411300   1.008000   ; qtot -0.407475
 6268         c3    216    bbb     C2   6268 0.10137000  12.010000   ; qtot -0.306105
 6269         h1    216    bbb     H3   6269 0.04411300   1.008000   ; qtot -0.261992
 6270         h1    216    bbb     H4   6270 0.04411300   1.008000   ; qtot -0.217879
 6271         c3    216    bbb     C3   6271 -0.00195300  12.010000   ; qtot -0.219832
 6272         h1    216    bbb     H5   6272 0.05064400   1.008000   ; qtot -0.169188
 6273         h1    216    bbb     H6   6273 0.05064400   1.008000   ; qtot -0.118544
 6274         c3    216    bbb     C4   6274 -0.01612100  12.010000   ; qtot -0.134665
 6275         hc    216    bbb     H7   6275 0.04936100   1.008000   ; qtot -0.085304
 6276         hc    216    bbb     H8   6276 0.04936100   1.008000   ; qtot -0.035943
 6277         c3    216    bbb     C5   6277 0.11363000  12.010000   ; qtot 0.077687
 6278         hc    216    bbb     H9   6278 0.06265900   1.008000   ; qtot 0.140346
 6279         hc    216    bbb    H10   6279 0.06265900   1.008000   ; qtot 0.203005
 6280         c3    216    bbb     C6   6280 0.11363000  12.010000   ; qtot 0.316635
 6281         hc    216    bbb    H11   6281 0.06265900   1.008000   ; qtot 0.379294
 6282         hc    216    bbb    H12   6282 0.06265900   1.008000   ; qtot 0.441953
 6283         c3    216    bbb     C7   6283 0.05858200  12.010000   ; qtot 0.500535
 6284         h1    216    bbb    H13   6284 0.06123400   1.008000   ; qtot 0.561769
 6285         h1    216    bbb    H14   6285 0.06123400   1.008000   ; qtot 0.623003
 6286         c3    216    bbb     C8   6286 -0.72423400  12.010000   ; qtot -0.101231
 6287         h1    216    bbb    H15   6287 0.25637600   1.008000   ; qtot 0.155145
 6288         h1    216    bbb    H16   6288 0.25637600   1.008000   ; qtot 0.411521
 6289         c3    216    bbb     C9   6289 -0.72423400  12.010000   ; qtot -0.312713
 6290         h1    216    bbb    H17   6290 0.25637600   1.008000   ; qtot -0.056337
 6291         h1    216    bbb    H18   6291 0.25637600   1.008000   ; qtot 0.200039
 6292         os    216    bbb     O1   6292 -0.20025300  16.000000   ; qtot -0.000214
; residue  217 bbb rtp bbb q -0.0
 6293         n3    217    bbb     N1   6293 -0.59685800  14.010000   ; qtot -0.597072
 6294         c3    217    bbb     C1   6294 0.10137000  12.010000   ; qtot -0.495702
 6295         h1    217    bbb     H1   6295 0.04411300   1.008000   ; qtot -0.451589
 6296         h1    217    bbb     H2   6296 0.04411300   1.008000   ; qtot -0.407476
 6297         c3    217    bbb     C2   6297 0.10137000  12.010000   ; qtot -0.306106
 6298         h1    217    bbb     H3   6298 0.04411300   1.008000   ; qtot -0.261993
 6299         h1    217    bbb     H4   6299 0.04411300   1.008000   ; qtot -0.217880
 6300         c3    217    bbb     C3   6300 -0.00195300  12.010000   ; qtot -0.219833
 6301         h1    217    bbb     H5   6301 0.05064400   1.008000   ; qtot -0.169189
 6302         h1    217    bbb     H6   6302 0.05064400   1.008000   ; qtot -0.118545
 6303         c3    217    bbb     C4   6303 -0.01612100  12.010000   ; qtot -0.134666
 6304         hc    217    bbb     H7   6304 0.04936100   1.008000   ; qtot -0.085305
 6305         hc    217    bbb     H8   6305 0.04936100   1.008000   ; qtot -0.035944
 6306         c3    217    bbb     C5   6306 0.11363000  12.010000   ; qtot 0.077686
 6307         hc    217    bbb     H9   6307 0.06265900   1.008000   ; qtot 0.140345
 6308         hc    217    bbb    H10   6308 0.06265900   1.008000   ; qtot 0.203004
 6309         c3    217    bbb     C6   6309 0.11363000  12.010000   ; qtot 0.316634
 6310         hc    217    bbb    H11   6310 0.06265900   1.008000   ; qtot 0.379293
 6311         hc    217    bbb    H12   6311 0.06265900   1.008000   ; qtot 0.441952
 6312         c3    217    bbb     C7   6312 0.05858200  12.010000   ; qtot 0.500534
 6313         h1    217    bbb    H13   6313 0.06123400   1.008000   ; qtot 0.561768
 6314         h1    217    bbb    H14   6314 0.06123400   1.008000   ; qtot 0.623002
 6315         c3    217    bbb     C8   6315 -0.72423400  12.010000   ; qtot -0.101232
 6316         h1    217    bbb    H15   6316 0.25637600   1.008000   ; qtot 0.155144
 6317         h1    217    bbb    H16   6317 0.25637600   1.008000   ; qtot 0.411520
 6318         c3    217    bbb     C9   6318 -0.72423400  12.010000   ; qtot -0.312714
 6319         h1    217    bbb    H17   6319 0.25637600   1.008000   ; qtot -0.056338
 6320         h1    217    bbb    H18   6320 0.25637600   1.008000   ; qtot 0.200038
 6321         os    217    bbb     O1   6321 -0.20025300  16.000000   ; qtot -0.000215
; residue  218 bbb rtp bbb q -0.0
 6322         n3    218    bbb     N1   6322 -0.59685800  14.010000   ; qtot -0.597073
 6323         c3    218    bbb     C1   6323 0.10137000  12.010000   ; qtot -0.495703
 6324         h1    218    bbb     H1   6324 0.04411300   1.008000   ; qtot -0.451590
 6325         h1    218    bbb     H2   6325 0.04411300   1.008000   ; qtot -0.407477
 6326         c3    218    bbb     C2   6326 0.10137000  12.010000   ; qtot -0.306107
 6327         h1    218    bbb     H3   6327 0.04411300   1.008000   ; qtot -0.261994
 6328         h1    218    bbb     H4   6328 0.04411300   1.008000   ; qtot -0.217881
 6329         c3    218    bbb     C3   6329 -0.00195300  12.010000   ; qtot -0.219834
 6330         h1    218    bbb     H5   6330 0.05064400   1.008000   ; qtot -0.169190
 6331         h1    218    bbb     H6   6331 0.05064400   1.008000   ; qtot -0.118546
 6332         c3    218    bbb     C4   6332 -0.01612100  12.010000   ; qtot -0.134667
 6333         hc    218    bbb     H7   6333 0.04936100   1.008000   ; qtot -0.085306
 6334         hc    218    bbb     H8   6334 0.04936100   1.008000   ; qtot -0.035945
 6335         c3    218    bbb     C5   6335 0.11363000  12.010000   ; qtot 0.077685
 6336         hc    218    bbb     H9   6336 0.06265900   1.008000   ; qtot 0.140344
 6337         hc    218    bbb    H10   6337 0.06265900   1.008000   ; qtot 0.203003
 6338         c3    218    bbb     C6   6338 0.11363000  12.010000   ; qtot 0.316633
 6339         hc    218    bbb    H11   6339 0.06265900   1.008000   ; qtot 0.379292
 6340         hc    218    bbb    H12   6340 0.06265900   1.008000   ; qtot 0.441951
 6341         c3    218    bbb     C7   6341 0.05858200  12.010000   ; qtot 0.500533
 6342         h1    218    bbb    H13   6342 0.06123400   1.008000   ; qtot 0.561767
 6343         h1    218    bbb    H14   6343 0.06123400   1.008000   ; qtot 0.623001
 6344         c3    218    bbb     C8   6344 -0.72423400  12.010000   ; qtot -0.101233
 6345         h1    218    bbb    H15   6345 0.25637600   1.008000   ; qtot 0.155143
 6346         h1    218    bbb    H16   6346 0.25637600   1.008000   ; qtot 0.411519
 6347         c3    218    bbb     C9   6347 -0.72423400  12.010000   ; qtot -0.312715
 6348         h1    218    bbb    H17   6348 0.25637600   1.008000   ; qtot -0.056339
 6349         h1    218    bbb    H18   6349 0.25637600   1.008000   ; qtot 0.200037
 6350         os    218    bbb     O1   6350 -0.20025300  16.000000   ; qtot -0.000216
; residue  219 bbb rtp bbb q -0.0
 6351         n3    219    bbb     N1   6351 -0.59685800  14.010000   ; qtot -0.597074
 6352         c3    219    bbb     C1   6352 0.10137000  12.010000   ; qtot -0.495704
 6353         h1    219    bbb     H1   6353 0.04411300   1.008000   ; qtot -0.451591
 6354         h1    219    bbb     H2   6354 0.04411300   1.008000   ; qtot -0.407478
 6355         c3    219    bbb     C2   6355 0.10137000  12.010000   ; qtot -0.306108
 6356         h1    219    bbb     H3   6356 0.04411300   1.008000   ; qtot -0.261995
 6357         h1    219    bbb     H4   6357 0.04411300   1.008000   ; qtot -0.217882
 6358         c3    219    bbb     C3   6358 -0.00195300  12.010000   ; qtot -0.219835
 6359         h1    219    bbb     H5   6359 0.05064400   1.008000   ; qtot -0.169191
 6360         h1    219    bbb     H6   6360 0.05064400   1.008000   ; qtot -0.118547
 6361         c3    219    bbb     C4   6361 -0.01612100  12.010000   ; qtot -0.134668
 6362         hc    219    bbb     H7   6362 0.04936100   1.008000   ; qtot -0.085307
 6363         hc    219    bbb     H8   6363 0.04936100   1.008000   ; qtot -0.035946
 6364         c3    219    bbb     C5   6364 0.11363000  12.010000   ; qtot 0.077684
 6365         hc    219    bbb     H9   6365 0.06265900   1.008000   ; qtot 0.140343
 6366         hc    219    bbb    H10   6366 0.06265900   1.008000   ; qtot 0.203002
 6367         c3    219    bbb     C6   6367 0.11363000  12.010000   ; qtot 0.316632
 6368         hc    219    bbb    H11   6368 0.06265900   1.008000   ; qtot 0.379291
 6369         hc    219    bbb    H12   6369 0.06265900   1.008000   ; qtot 0.441950
 6370         c3    219    bbb     C7   6370 0.05858200  12.010000   ; qtot 0.500532
 6371         h1    219    bbb    H13   6371 0.06123400   1.008000   ; qtot 0.561766
 6372         h1    219    bbb    H14   6372 0.06123400   1.008000   ; qtot 0.623000
 6373         c3    219    bbb     C8   6373 -0.72423400  12.010000   ; qtot -0.101234
 6374         h1    219    bbb    H15   6374 0.25637600   1.008000   ; qtot 0.155142
 6375         h1    219    bbb    H16   6375 0.25637600   1.008000   ; qtot 0.411518
 6376         c3    219    bbb     C9   6376 -0.72423400  12.010000   ; qtot -0.312716
 6377         h1    219    bbb    H17   6377 0.25637600   1.008000   ; qtot -0.056340
 6378         h1    219    bbb    H18   6378 0.25637600   1.008000   ; qtot 0.200036
 6379         os    219    bbb     O1   6379 -0.20025300  16.000000   ; qtot -0.000217
; residue  220 bbb rtp bbb q -0.0
 6380         n3    220    bbb     N1   6380 -0.59685800  14.010000   ; qtot -0.597075
 6381         c3    220    bbb     C1   6381 0.10137000  12.010000   ; qtot -0.495705
 6382         h1    220    bbb     H1   6382 0.04411300   1.008000   ; qtot -0.451592
 6383         h1    220    bbb     H2   6383 0.04411300   1.008000   ; qtot -0.407479
 6384         c3    220    bbb     C2   6384 0.10137000  12.010000   ; qtot -0.306109
 6385         h1    220    bbb     H3   6385 0.04411300   1.008000   ; qtot -0.261996
 6386         h1    220    bbb     H4   6386 0.04411300   1.008000   ; qtot -0.217883
 6387         c3    220    bbb     C3   6387 -0.00195300  12.010000   ; qtot -0.219836
 6388         h1    220    bbb     H5   6388 0.05064400   1.008000   ; qtot -0.169192
 6389         h1    220    bbb     H6   6389 0.05064400   1.008000   ; qtot -0.118548
 6390         c3    220    bbb     C4   6390 -0.01612100  12.010000   ; qtot -0.134669
 6391         hc    220    bbb     H7   6391 0.04936100   1.008000   ; qtot -0.085308
 6392         hc    220    bbb     H8   6392 0.04936100   1.008000   ; qtot -0.035947
 6393         c3    220    bbb     C5   6393 0.11363000  12.010000   ; qtot 0.077683
 6394         hc    220    bbb     H9   6394 0.06265900   1.008000   ; qtot 0.140342
 6395         hc    220    bbb    H10   6395 0.06265900   1.008000   ; qtot 0.203001
 6396         c3    220    bbb     C6   6396 0.11363000  12.010000   ; qtot 0.316631
 6397         hc    220    bbb    H11   6397 0.06265900   1.008000   ; qtot 0.379290
 6398         hc    220    bbb    H12   6398 0.06265900   1.008000   ; qtot 0.441949
 6399         c3    220    bbb     C7   6399 0.05858200  12.010000   ; qtot 0.500531
 6400         h1    220    bbb    H13   6400 0.06123400   1.008000   ; qtot 0.561765
 6401         h1    220    bbb    H14   6401 0.06123400   1.008000   ; qtot 0.622999
 6402         c3    220    bbb     C8   6402 -0.72423400  12.010000   ; qtot -0.101235
 6403         h1    220    bbb    H15   6403 0.25637600   1.008000   ; qtot 0.155141
 6404         h1    220    bbb    H16   6404 0.25637600   1.008000   ; qtot 0.411517
 6405         c3    220    bbb     C9   6405 -0.72423400  12.010000   ; qtot -0.312717
 6406         h1    220    bbb    H17   6406 0.25637600   1.008000   ; qtot -0.056341
 6407         h1    220    bbb    H18   6407 0.25637600   1.008000   ; qtot 0.200035
 6408         os    220    bbb     O1   6408 -0.20025300  16.000000   ; qtot -0.000218
; residue  221 bbb rtp bbb q -0.0
 6409         n3    221    bbb     N1   6409 -0.59685800  14.010000   ; qtot -0.597076
 6410         c3    221    bbb     C1   6410 0.10137000  12.010000   ; qtot -0.495706
 6411         h1    221    bbb     H1   6411 0.04411300   1.008000   ; qtot -0.451593
 6412         h1    221    bbb     H2   6412 0.04411300   1.008000   ; qtot -0.407480
 6413         c3    221    bbb     C2   6413 0.10137000  12.010000   ; qtot -0.306110
 6414         h1    221    bbb     H3   6414 0.04411300   1.008000   ; qtot -0.261997
 6415         h1    221    bbb     H4   6415 0.04411300   1.008000   ; qtot -0.217884
 6416         c3    221    bbb     C3   6416 -0.00195300  12.010000   ; qtot -0.219837
 6417         h1    221    bbb     H5   6417 0.05064400   1.008000   ; qtot -0.169193
 6418         h1    221    bbb     H6   6418 0.05064400   1.008000   ; qtot -0.118549
 6419         c3    221    bbb     C4   6419 -0.01612100  12.010000   ; qtot -0.134670
 6420         hc    221    bbb     H7   6420 0.04936100   1.008000   ; qtot -0.085309
 6421         hc    221    bbb     H8   6421 0.04936100   1.008000   ; qtot -0.035948
 6422         c3    221    bbb     C5   6422 0.11363000  12.010000   ; qtot 0.077682
 6423         hc    221    bbb     H9   6423 0.06265900   1.008000   ; qtot 0.140341
 6424         hc    221    bbb    H10   6424 0.06265900   1.008000   ; qtot 0.203000
 6425         c3    221    bbb     C6   6425 0.11363000  12.010000   ; qtot 0.316630
 6426         hc    221    bbb    H11   6426 0.06265900   1.008000   ; qtot 0.379289
 6427         hc    221    bbb    H12   6427 0.06265900   1.008000   ; qtot 0.441948
 6428         c3    221    bbb     C7   6428 0.05858200  12.010000   ; qtot 0.500530
 6429         h1    221    bbb    H13   6429 0.06123400   1.008000   ; qtot 0.561764
 6430         h1    221    bbb    H14   6430 0.06123400   1.008000   ; qtot 0.622998
 6431         c3    221    bbb     C8   6431 -0.72423400  12.010000   ; qtot -0.101236
 6432         h1    221    bbb    H15   6432 0.25637600   1.008000   ; qtot 0.155140
 6433         h1    221    bbb    H16   6433 0.25637600   1.008000   ; qtot 0.411516
 6434         c3    221    bbb     C9   6434 -0.72423400  12.010000   ; qtot -0.312718
 6435         h1    221    bbb    H17   6435 0.25637600   1.008000   ; qtot -0.056342
 6436         h1    221    bbb    H18   6436 0.25637600   1.008000   ; qtot 0.200034
 6437         os    221    bbb     O1   6437 -0.20025300  16.000000   ; qtot -0.000219
; residue  222 bbb rtp bbb q -0.0
 6438         n3    222    bbb     N1   6438 -0.59685800  14.010000   ; qtot -0.597077
 6439         c3    222    bbb     C1   6439 0.10137000  12.010000   ; qtot -0.495707
 6440         h1    222    bbb     H1   6440 0.04411300   1.008000   ; qtot -0.451594
 6441         h1    222    bbb     H2   6441 0.04411300   1.008000   ; qtot -0.407481
 6442         c3    222    bbb     C2   6442 0.10137000  12.010000   ; qtot -0.306111
 6443         h1    222    bbb     H3   6443 0.04411300   1.008000   ; qtot -0.261998
 6444         h1    222    bbb     H4   6444 0.04411300   1.008000   ; qtot -0.217885
 6445         c3    222    bbb     C3   6445 -0.00195300  12.010000   ; qtot -0.219838
 6446         h1    222    bbb     H5   6446 0.05064400   1.008000   ; qtot -0.169194
 6447         h1    222    bbb     H6   6447 0.05064400   1.008000   ; qtot -0.118550
 6448         c3    222    bbb     C4   6448 -0.01612100  12.010000   ; qtot -0.134671
 6449         hc    222    bbb     H7   6449 0.04936100   1.008000   ; qtot -0.085310
 6450         hc    222    bbb     H8   6450 0.04936100   1.008000   ; qtot -0.035949
 6451         c3    222    bbb     C5   6451 0.11363000  12.010000   ; qtot 0.077681
 6452         hc    222    bbb     H9   6452 0.06265900   1.008000   ; qtot 0.140340
 6453         hc    222    bbb    H10   6453 0.06265900   1.008000   ; qtot 0.202999
 6454         c3    222    bbb     C6   6454 0.11363000  12.010000   ; qtot 0.316629
 6455         hc    222    bbb    H11   6455 0.06265900   1.008000   ; qtot 0.379288
 6456         hc    222    bbb    H12   6456 0.06265900   1.008000   ; qtot 0.441947
 6457         c3    222    bbb     C7   6457 0.05858200  12.010000   ; qtot 0.500529
 6458         h1    222    bbb    H13   6458 0.06123400   1.008000   ; qtot 0.561763
 6459         h1    222    bbb    H14   6459 0.06123400   1.008000   ; qtot 0.622997
 6460         c3    222    bbb     C8   6460 -0.72423400  12.010000   ; qtot -0.101237
 6461         h1    222    bbb    H15   6461 0.25637600   1.008000   ; qtot 0.155139
 6462         h1    222    bbb    H16   6462 0.25637600   1.008000   ; qtot 0.411515
 6463         c3    222    bbb     C9   6463 -0.72423400  12.010000   ; qtot -0.312719
 6464         h1    222    bbb    H17   6464 0.25637600   1.008000   ; qtot -0.056343
 6465         h1    222    bbb    H18   6465 0.25637600   1.008000   ; qtot 0.200033
 6466         os    222    bbb     O1   6466 -0.20025300  16.000000   ; qtot -0.000220
; residue  223 bbb rtp bbb q -0.0
 6467         n3    223    bbb     N1   6467 -0.59685800  14.010000   ; qtot -0.597078
 6468         c3    223    bbb     C1   6468 0.10137000  12.010000   ; qtot -0.495708
 6469         h1    223    bbb     H1   6469 0.04411300   1.008000   ; qtot -0.451595
 6470         h1    223    bbb     H2   6470 0.04411300   1.008000   ; qtot -0.407482
 6471         c3    223    bbb     C2   6471 0.10137000  12.010000   ; qtot -0.306112
 6472         h1    223    bbb     H3   6472 0.04411300   1.008000   ; qtot -0.261999
 6473         h1    223    bbb     H4   6473 0.04411300   1.008000   ; qtot -0.217886
 6474         c3    223    bbb     C3   6474 -0.00195300  12.010000   ; qtot -0.219839
 6475         h1    223    bbb     H5   6475 0.05064400   1.008000   ; qtot -0.169195
 6476         h1    223    bbb     H6   6476 0.05064400   1.008000   ; qtot -0.118551
 6477         c3    223    bbb     C4   6477 -0.01612100  12.010000   ; qtot -0.134672
 6478         hc    223    bbb     H7   6478 0.04936100   1.008000   ; qtot -0.085311
 6479         hc    223    bbb     H8   6479 0.04936100   1.008000   ; qtot -0.035950
 6480         c3    223    bbb     C5   6480 0.11363000  12.010000   ; qtot 0.077680
 6481         hc    223    bbb     H9   6481 0.06265900   1.008000   ; qtot 0.140339
 6482         hc    223    bbb    H10   6482 0.06265900   1.008000   ; qtot 0.202998
 6483         c3    223    bbb     C6   6483 0.11363000  12.010000   ; qtot 0.316628
 6484         hc    223    bbb    H11   6484 0.06265900   1.008000   ; qtot 0.379287
 6485         hc    223    bbb    H12   6485 0.06265900   1.008000   ; qtot 0.441946
 6486         c3    223    bbb     C7   6486 0.05858200  12.010000   ; qtot 0.500528
 6487         h1    223    bbb    H13   6487 0.06123400   1.008000   ; qtot 0.561762
 6488         h1    223    bbb    H14   6488 0.06123400   1.008000   ; qtot 0.622996
 6489         c3    223    bbb     C8   6489 -0.72423400  12.010000   ; qtot -0.101238
 6490         h1    223    bbb    H15   6490 0.25637600   1.008000   ; qtot 0.155138
 6491         h1    223    bbb    H16   6491 0.25637600   1.008000   ; qtot 0.411514
 6492         c3    223    bbb     C9   6492 -0.72423400  12.010000   ; qtot -0.312720
 6493         h1    223    bbb    H17   6493 0.25637600   1.008000   ; qtot -0.056344
 6494         h1    223    bbb    H18   6494 0.25637600   1.008000   ; qtot 0.200032
 6495         os    223    bbb     O1   6495 -0.20025300  16.000000   ; qtot -0.000221
; residue  224 bbb rtp bbb q -0.0
 6496         n3    224    bbb     N1   6496 -0.59685800  14.010000   ; qtot -0.597079
 6497         c3    224    bbb     C1   6497 0.10137000  12.010000   ; qtot -0.495709
 6498         h1    224    bbb     H1   6498 0.04411300   1.008000   ; qtot -0.451596
 6499         h1    224    bbb     H2   6499 0.04411300   1.008000   ; qtot -0.407483
 6500         c3    224    bbb     C2   6500 0.10137000  12.010000   ; qtot -0.306113
 6501         h1    224    bbb     H3   6501 0.04411300   1.008000   ; qtot -0.262000
 6502         h1    224    bbb     H4   6502 0.04411300   1.008000   ; qtot -0.217887
 6503         c3    224    bbb     C3   6503 -0.00195300  12.010000   ; qtot -0.219840
 6504         h1    224    bbb     H5   6504 0.05064400   1.008000   ; qtot -0.169196
 6505         h1    224    bbb     H6   6505 0.05064400   1.008000   ; qtot -0.118552
 6506         c3    224    bbb     C4   6506 -0.01612100  12.010000   ; qtot -0.134673
 6507         hc    224    bbb     H7   6507 0.04936100   1.008000   ; qtot -0.085312
 6508         hc    224    bbb     H8   6508 0.04936100   1.008000   ; qtot -0.035951
 6509         c3    224    bbb     C5   6509 0.11363000  12.010000   ; qtot 0.077679
 6510         hc    224    bbb     H9   6510 0.06265900   1.008000   ; qtot 0.140338
 6511         hc    224    bbb    H10   6511 0.06265900   1.008000   ; qtot 0.202997
 6512         c3    224    bbb     C6   6512 0.11363000  12.010000   ; qtot 0.316627
 6513         hc    224    bbb    H11   6513 0.06265900   1.008000   ; qtot 0.379286
 6514         hc    224    bbb    H12   6514 0.06265900   1.008000   ; qtot 0.441945
 6515         c3    224    bbb     C7   6515 0.05858200  12.010000   ; qtot 0.500527
 6516         h1    224    bbb    H13   6516 0.06123400   1.008000   ; qtot 0.561761
 6517         h1    224    bbb    H14   6517 0.06123400   1.008000   ; qtot 0.622995
 6518         c3    224    bbb     C8   6518 -0.72423400  12.010000   ; qtot -0.101239
 6519         h1    224    bbb    H15   6519 0.25637600   1.008000   ; qtot 0.155137
 6520         h1    224    bbb    H16   6520 0.25637600   1.008000   ; qtot 0.411513
 6521         c3    224    bbb     C9   6521 -0.72423400  12.010000   ; qtot -0.312721
 6522         h1    224    bbb    H17   6522 0.25637600   1.008000   ; qtot -0.056345
 6523         h1    224    bbb    H18   6523 0.25637600   1.008000   ; qtot 0.200031
 6524         os    224    bbb     O1   6524 -0.20025300  16.000000   ; qtot -0.000222
; residue  225 bbb rtp bbb q -0.0
 6525         n3    225    bbb     N1   6525 -0.59685800  14.010000   ; qtot -0.597080
 6526         c3    225    bbb     C1   6526 0.10137000  12.010000   ; qtot -0.495710
 6527         h1    225    bbb     H1   6527 0.04411300   1.008000   ; qtot -0.451597
 6528         h1    225    bbb     H2   6528 0.04411300   1.008000   ; qtot -0.407484
 6529         c3    225    bbb     C2   6529 0.10137000  12.010000   ; qtot -0.306114
 6530         h1    225    bbb     H3   6530 0.04411300   1.008000   ; qtot -0.262001
 6531         h1    225    bbb     H4   6531 0.04411300   1.008000   ; qtot -0.217888
 6532         c3    225    bbb     C3   6532 -0.00195300  12.010000   ; qtot -0.219841
 6533         h1    225    bbb     H5   6533 0.05064400   1.008000   ; qtot -0.169197
 6534         h1    225    bbb     H6   6534 0.05064400   1.008000   ; qtot -0.118553
 6535         c3    225    bbb     C4   6535 -0.01612100  12.010000   ; qtot -0.134674
 6536         hc    225    bbb     H7   6536 0.04936100   1.008000   ; qtot -0.085313
 6537         hc    225    bbb     H8   6537 0.04936100   1.008000   ; qtot -0.035952
 6538         c3    225    bbb     C5   6538 0.11363000  12.010000   ; qtot 0.077678
 6539         hc    225    bbb     H9   6539 0.06265900   1.008000   ; qtot 0.140337
 6540         hc    225    bbb    H10   6540 0.06265900   1.008000   ; qtot 0.202996
 6541         c3    225    bbb     C6   6541 0.11363000  12.010000   ; qtot 0.316626
 6542         hc    225    bbb    H11   6542 0.06265900   1.008000   ; qtot 0.379285
 6543         hc    225    bbb    H12   6543 0.06265900   1.008000   ; qtot 0.441944
 6544         c3    225    bbb     C7   6544 0.05858200  12.010000   ; qtot 0.500526
 6545         h1    225    bbb    H13   6545 0.06123400   1.008000   ; qtot 0.561760
 6546         h1    225    bbb    H14   6546 0.06123400   1.008000   ; qtot 0.622994
 6547         c3    225    bbb     C8   6547 -0.72423400  12.010000   ; qtot -0.101240
 6548         h1    225    bbb    H15   6548 0.25637600   1.008000   ; qtot 0.155136
 6549         h1    225    bbb    H16   6549 0.25637600   1.008000   ; qtot 0.411512
 6550         c3    225    bbb     C9   6550 -0.72423400  12.010000   ; qtot -0.312722
 6551         h1    225    bbb    H17   6551 0.25637600   1.008000   ; qtot -0.056346
 6552         h1    225    bbb    H18   6552 0.25637600   1.008000   ; qtot 0.200030
 6553         os    225    bbb     O1   6553 -0.20025300  16.000000   ; qtot -0.000223
; residue  226 bbb rtp bbb q -0.0
 6554         n3    226    bbb     N1   6554 -0.59685800  14.010000   ; qtot -0.597081
 6555         c3    226    bbb     C1   6555 0.10137000  12.010000   ; qtot -0.495711
 6556         h1    226    bbb     H1   6556 0.04411300   1.008000   ; qtot -0.451598
 6557         h1    226    bbb     H2   6557 0.04411300   1.008000   ; qtot -0.407485
 6558         c3    226    bbb     C2   6558 0.10137000  12.010000   ; qtot -0.306115
 6559         h1    226    bbb     H3   6559 0.04411300   1.008000   ; qtot -0.262002
 6560         h1    226    bbb     H4   6560 0.04411300   1.008000   ; qtot -0.217889
 6561         c3    226    bbb     C3   6561 -0.00195300  12.010000   ; qtot -0.219842
 6562         h1    226    bbb     H5   6562 0.05064400   1.008000   ; qtot -0.169198
 6563         h1    226    bbb     H6   6563 0.05064400   1.008000   ; qtot -0.118554
 6564         c3    226    bbb     C4   6564 -0.01612100  12.010000   ; qtot -0.134675
 6565         hc    226    bbb     H7   6565 0.04936100   1.008000   ; qtot -0.085314
 6566         hc    226    bbb     H8   6566 0.04936100   1.008000   ; qtot -0.035953
 6567         c3    226    bbb     C5   6567 0.11363000  12.010000   ; qtot 0.077677
 6568         hc    226    bbb     H9   6568 0.06265900   1.008000   ; qtot 0.140336
 6569         hc    226    bbb    H10   6569 0.06265900   1.008000   ; qtot 0.202995
 6570         c3    226    bbb     C6   6570 0.11363000  12.010000   ; qtot 0.316625
 6571         hc    226    bbb    H11   6571 0.06265900   1.008000   ; qtot 0.379284
 6572         hc    226    bbb    H12   6572 0.06265900   1.008000   ; qtot 0.441943
 6573         c3    226    bbb     C7   6573 0.05858200  12.010000   ; qtot 0.500525
 6574         h1    226    bbb    H13   6574 0.06123400   1.008000   ; qtot 0.561759
 6575         h1    226    bbb    H14   6575 0.06123400   1.008000   ; qtot 0.622993
 6576         c3    226    bbb     C8   6576 -0.72423400  12.010000   ; qtot -0.101241
 6577         h1    226    bbb    H15   6577 0.25637600   1.008000   ; qtot 0.155135
 6578         h1    226    bbb    H16   6578 0.25637600   1.008000   ; qtot 0.411511
 6579         c3    226    bbb     C9   6579 -0.72423400  12.010000   ; qtot -0.312723
 6580         h1    226    bbb    H17   6580 0.25637600   1.008000   ; qtot -0.056347
 6581         h1    226    bbb    H18   6581 0.25637600   1.008000   ; qtot 0.200029
 6582         os    226    bbb     O1   6582 -0.20025300  16.000000   ; qtot -0.000224
; residue  227 bbb rtp bbb q -0.0
 6583         n3    227    bbb     N1   6583 -0.59685800  14.010000   ; qtot -0.597082
 6584         c3    227    bbb     C1   6584 0.10137000  12.010000   ; qtot -0.495712
 6585         h1    227    bbb     H1   6585 0.04411300   1.008000   ; qtot -0.451599
 6586         h1    227    bbb     H2   6586 0.04411300   1.008000   ; qtot -0.407486
 6587         c3    227    bbb     C2   6587 0.10137000  12.010000   ; qtot -0.306116
 6588         h1    227    bbb     H3   6588 0.04411300   1.008000   ; qtot -0.262003
 6589         h1    227    bbb     H4   6589 0.04411300   1.008000   ; qtot -0.217890
 6590         c3    227    bbb     C3   6590 -0.00195300  12.010000   ; qtot -0.219843
 6591         h1    227    bbb     H5   6591 0.05064400   1.008000   ; qtot -0.169199
 6592         h1    227    bbb     H6   6592 0.05064400   1.008000   ; qtot -0.118555
 6593         c3    227    bbb     C4   6593 -0.01612100  12.010000   ; qtot -0.134676
 6594         hc    227    bbb     H7   6594 0.04936100   1.008000   ; qtot -0.085315
 6595         hc    227    bbb     H8   6595 0.04936100   1.008000   ; qtot -0.035954
 6596         c3    227    bbb     C5   6596 0.11363000  12.010000   ; qtot 0.077676
 6597         hc    227    bbb     H9   6597 0.06265900   1.008000   ; qtot 0.140335
 6598         hc    227    bbb    H10   6598 0.06265900   1.008000   ; qtot 0.202994
 6599         c3    227    bbb     C6   6599 0.11363000  12.010000   ; qtot 0.316624
 6600         hc    227    bbb    H11   6600 0.06265900   1.008000   ; qtot 0.379283
 6601         hc    227    bbb    H12   6601 0.06265900   1.008000   ; qtot 0.441942
 6602         c3    227    bbb     C7   6602 0.05858200  12.010000   ; qtot 0.500524
 6603         h1    227    bbb    H13   6603 0.06123400   1.008000   ; qtot 0.561758
 6604         h1    227    bbb    H14   6604 0.06123400   1.008000   ; qtot 0.622992
 6605         c3    227    bbb     C8   6605 -0.72423400  12.010000   ; qtot -0.101242
 6606         h1    227    bbb    H15   6606 0.25637600   1.008000   ; qtot 0.155134
 6607         h1    227    bbb    H16   6607 0.25637600   1.008000   ; qtot 0.411510
 6608         c3    227    bbb     C9   6608 -0.72423400  12.010000   ; qtot -0.312724
 6609         h1    227    bbb    H17   6609 0.25637600   1.008000   ; qtot -0.056348
 6610         h1    227    bbb    H18   6610 0.25637600   1.008000   ; qtot 0.200028
 6611         os    227    bbb     O1   6611 -0.20025300  16.000000   ; qtot -0.000225
; residue  228 bbb rtp bbb q -0.0
 6612         n3    228    bbb     N1   6612 -0.59685800  14.010000   ; qtot -0.597083
 6613         c3    228    bbb     C1   6613 0.10137000  12.010000   ; qtot -0.495713
 6614         h1    228    bbb     H1   6614 0.04411300   1.008000   ; qtot -0.451600
 6615         h1    228    bbb     H2   6615 0.04411300   1.008000   ; qtot -0.407487
 6616         c3    228    bbb     C2   6616 0.10137000  12.010000   ; qtot -0.306117
 6617         h1    228    bbb     H3   6617 0.04411300   1.008000   ; qtot -0.262004
 6618         h1    228    bbb     H4   6618 0.04411300   1.008000   ; qtot -0.217891
 6619         c3    228    bbb     C3   6619 -0.00195300  12.010000   ; qtot -0.219844
 6620         h1    228    bbb     H5   6620 0.05064400   1.008000   ; qtot -0.169200
 6621         h1    228    bbb     H6   6621 0.05064400   1.008000   ; qtot -0.118556
 6622         c3    228    bbb     C4   6622 -0.01612100  12.010000   ; qtot -0.134677
 6623         hc    228    bbb     H7   6623 0.04936100   1.008000   ; qtot -0.085316
 6624         hc    228    bbb     H8   6624 0.04936100   1.008000   ; qtot -0.035955
 6625         c3    228    bbb     C5   6625 0.11363000  12.010000   ; qtot 0.077675
 6626         hc    228    bbb     H9   6626 0.06265900   1.008000   ; qtot 0.140334
 6627         hc    228    bbb    H10   6627 0.06265900   1.008000   ; qtot 0.202993
 6628         c3    228    bbb     C6   6628 0.11363000  12.010000   ; qtot 0.316623
 6629         hc    228    bbb    H11   6629 0.06265900   1.008000   ; qtot 0.379282
 6630         hc    228    bbb    H12   6630 0.06265900   1.008000   ; qtot 0.441941
 6631         c3    228    bbb     C7   6631 0.05858200  12.010000   ; qtot 0.500523
 6632         h1    228    bbb    H13   6632 0.06123400   1.008000   ; qtot 0.561757
 6633         h1    228    bbb    H14   6633 0.06123400   1.008000   ; qtot 0.622991
 6634         c3    228    bbb     C8   6634 -0.72423400  12.010000   ; qtot -0.101243
 6635         h1    228    bbb    H15   6635 0.25637600   1.008000   ; qtot 0.155133
 6636         h1    228    bbb    H16   6636 0.25637600   1.008000   ; qtot 0.411509
 6637         c3    228    bbb     C9   6637 -0.72423400  12.010000   ; qtot -0.312725
 6638         h1    228    bbb    H17   6638 0.25637600   1.008000   ; qtot -0.056349
 6639         h1    228    bbb    H18   6639 0.25637600   1.008000   ; qtot 0.200027
 6640         os    228    bbb     O1   6640 -0.20025300  16.000000   ; qtot -0.000226
; residue  229 bbb rtp bbb q -0.0
 6641         n3    229    bbb     N1   6641 -0.59685800  14.010000   ; qtot -0.597084
 6642         c3    229    bbb     C1   6642 0.10137000  12.010000   ; qtot -0.495714
 6643         h1    229    bbb     H1   6643 0.04411300   1.008000   ; qtot -0.451601
 6644         h1    229    bbb     H2   6644 0.04411300   1.008000   ; qtot -0.407488
 6645         c3    229    bbb     C2   6645 0.10137000  12.010000   ; qtot -0.306118
 6646         h1    229    bbb     H3   6646 0.04411300   1.008000   ; qtot -0.262005
 6647         h1    229    bbb     H4   6647 0.04411300   1.008000   ; qtot -0.217892
 6648         c3    229    bbb     C3   6648 -0.00195300  12.010000   ; qtot -0.219845
 6649         h1    229    bbb     H5   6649 0.05064400   1.008000   ; qtot -0.169201
 6650         h1    229    bbb     H6   6650 0.05064400   1.008000   ; qtot -0.118557
 6651         c3    229    bbb     C4   6651 -0.01612100  12.010000   ; qtot -0.134678
 6652         hc    229    bbb     H7   6652 0.04936100   1.008000   ; qtot -0.085317
 6653         hc    229    bbb     H8   6653 0.04936100   1.008000   ; qtot -0.035956
 6654         c3    229    bbb     C5   6654 0.11363000  12.010000   ; qtot 0.077674
 6655         hc    229    bbb     H9   6655 0.06265900   1.008000   ; qtot 0.140333
 6656         hc    229    bbb    H10   6656 0.06265900   1.008000   ; qtot 0.202992
 6657         c3    229    bbb     C6   6657 0.11363000  12.010000   ; qtot 0.316622
 6658         hc    229    bbb    H11   6658 0.06265900   1.008000   ; qtot 0.379281
 6659         hc    229    bbb    H12   6659 0.06265900   1.008000   ; qtot 0.441940
 6660         c3    229    bbb     C7   6660 0.05858200  12.010000   ; qtot 0.500522
 6661         h1    229    bbb    H13   6661 0.06123400   1.008000   ; qtot 0.561756
 6662         h1    229    bbb    H14   6662 0.06123400   1.008000   ; qtot 0.622990
 6663         c3    229    bbb     C8   6663 -0.72423400  12.010000   ; qtot -0.101244
 6664         h1    229    bbb    H15   6664 0.25637600   1.008000   ; qtot 0.155132
 6665         h1    229    bbb    H16   6665 0.25637600   1.008000   ; qtot 0.411508
 6666         c3    229    bbb     C9   6666 -0.72423400  12.010000   ; qtot -0.312726
 6667         h1    229    bbb    H17   6667 0.25637600   1.008000   ; qtot -0.056350
 6668         h1    229    bbb    H18   6668 0.25637600   1.008000   ; qtot 0.200026
 6669         os    229    bbb     O1   6669 -0.20025300  16.000000   ; qtot -0.000227
; residue  230 bbb rtp bbb q -0.0
 6670         n3    230    bbb     N1   6670 -0.59685800  14.010000   ; qtot -0.597085
 6671         c3    230    bbb     C1   6671 0.10137000  12.010000   ; qtot -0.495715
 6672         h1    230    bbb     H1   6672 0.04411300   1.008000   ; qtot -0.451602
 6673         h1    230    bbb     H2   6673 0.04411300   1.008000   ; qtot -0.407489
 6674         c3    230    bbb     C2   6674 0.10137000  12.010000   ; qtot -0.306119
 6675         h1    230    bbb     H3   6675 0.04411300   1.008000   ; qtot -0.262006
 6676         h1    230    bbb     H4   6676 0.04411300   1.008000   ; qtot -0.217893
 6677         c3    230    bbb     C3   6677 -0.00195300  12.010000   ; qtot -0.219846
 6678         h1    230    bbb     H5   6678 0.05064400   1.008000   ; qtot -0.169202
 6679         h1    230    bbb     H6   6679 0.05064400   1.008000   ; qtot -0.118558
 6680         c3    230    bbb     C4   6680 -0.01612100  12.010000   ; qtot -0.134679
 6681         hc    230    bbb     H7   6681 0.04936100   1.008000   ; qtot -0.085318
 6682         hc    230    bbb     H8   6682 0.04936100   1.008000   ; qtot -0.035957
 6683         c3    230    bbb     C5   6683 0.11363000  12.010000   ; qtot 0.077673
 6684         hc    230    bbb     H9   6684 0.06265900   1.008000   ; qtot 0.140332
 6685         hc    230    bbb    H10   6685 0.06265900   1.008000   ; qtot 0.202991
 6686         c3    230    bbb     C6   6686 0.11363000  12.010000   ; qtot 0.316621
 6687         hc    230    bbb    H11   6687 0.06265900   1.008000   ; qtot 0.379280
 6688         hc    230    bbb    H12   6688 0.06265900   1.008000   ; qtot 0.441939
 6689         c3    230    bbb     C7   6689 0.05858200  12.010000   ; qtot 0.500521
 6690         h1    230    bbb    H13   6690 0.06123400   1.008000   ; qtot 0.561755
 6691         h1    230    bbb    H14   6691 0.06123400   1.008000   ; qtot 0.622989
 6692         c3    230    bbb     C8   6692 -0.72423400  12.010000   ; qtot -0.101245
 6693         h1    230    bbb    H15   6693 0.25637600   1.008000   ; qtot 0.155131
 6694         h1    230    bbb    H16   6694 0.25637600   1.008000   ; qtot 0.411507
 6695         c3    230    bbb     C9   6695 -0.72423400  12.010000   ; qtot -0.312727
 6696         h1    230    bbb    H17   6696 0.25637600   1.008000   ; qtot -0.056351
 6697         h1    230    bbb    H18   6697 0.25637600   1.008000   ; qtot 0.200025
 6698         os    230    bbb     O1   6698 -0.20025300  16.000000   ; qtot -0.000228
; residue  231 bbb rtp bbb q -0.0
 6699         n3    231    bbb     N1   6699 -0.59685800  14.010000   ; qtot -0.597086
 6700         c3    231    bbb     C1   6700 0.10137000  12.010000   ; qtot -0.495716
 6701         h1    231    bbb     H1   6701 0.04411300   1.008000   ; qtot -0.451603
 6702         h1    231    bbb     H2   6702 0.04411300   1.008000   ; qtot -0.407490
 6703         c3    231    bbb     C2   6703 0.10137000  12.010000   ; qtot -0.306120
 6704         h1    231    bbb     H3   6704 0.04411300   1.008000   ; qtot -0.262007
 6705         h1    231    bbb     H4   6705 0.04411300   1.008000   ; qtot -0.217894
 6706         c3    231    bbb     C3   6706 -0.00195300  12.010000   ; qtot -0.219847
 6707         h1    231    bbb     H5   6707 0.05064400   1.008000   ; qtot -0.169203
 6708         h1    231    bbb     H6   6708 0.05064400   1.008000   ; qtot -0.118559
 6709         c3    231    bbb     C4   6709 -0.01612100  12.010000   ; qtot -0.134680
 6710         hc    231    bbb     H7   6710 0.04936100   1.008000   ; qtot -0.085319
 6711         hc    231    bbb     H8   6711 0.04936100   1.008000   ; qtot -0.035958
 6712         c3    231    bbb     C5   6712 0.11363000  12.010000   ; qtot 0.077672
 6713         hc    231    bbb     H9   6713 0.06265900   1.008000   ; qtot 0.140331
 6714         hc    231    bbb    H10   6714 0.06265900   1.008000   ; qtot 0.202990
 6715         c3    231    bbb     C6   6715 0.11363000  12.010000   ; qtot 0.316620
 6716         hc    231    bbb    H11   6716 0.06265900   1.008000   ; qtot 0.379279
 6717         hc    231    bbb    H12   6717 0.06265900   1.008000   ; qtot 0.441938
 6718         c3    231    bbb     C7   6718 0.05858200  12.010000   ; qtot 0.500520
 6719         h1    231    bbb    H13   6719 0.06123400   1.008000   ; qtot 0.561754
 6720         h1    231    bbb    H14   6720 0.06123400   1.008000   ; qtot 0.622988
 6721         c3    231    bbb     C8   6721 -0.72423400  12.010000   ; qtot -0.101246
 6722         h1    231    bbb    H15   6722 0.25637600   1.008000   ; qtot 0.155130
 6723         h1    231    bbb    H16   6723 0.25637600   1.008000   ; qtot 0.411506
 6724         c3    231    bbb     C9   6724 -0.72423400  12.010000   ; qtot -0.312728
 6725         h1    231    bbb    H17   6725 0.25637600   1.008000   ; qtot -0.056352
 6726         h1    231    bbb    H18   6726 0.25637600   1.008000   ; qtot 0.200024
 6727         os    231    bbb     O1   6727 -0.20025300  16.000000   ; qtot -0.000229
; residue  232 bbb rtp bbb q -0.0
 6728         n3    232    bbb     N1   6728 -0.59685800  14.010000   ; qtot -0.597087
 6729         c3    232    bbb     C1   6729 0.10137000  12.010000   ; qtot -0.495717
 6730         h1    232    bbb     H1   6730 0.04411300   1.008000   ; qtot -0.451604
 6731         h1    232    bbb     H2   6731 0.04411300   1.008000   ; qtot -0.407491
 6732         c3    232    bbb     C2   6732 0.10137000  12.010000   ; qtot -0.306121
 6733         h1    232    bbb     H3   6733 0.04411300   1.008000   ; qtot -0.262008
 6734         h1    232    bbb     H4   6734 0.04411300   1.008000   ; qtot -0.217895
 6735         c3    232    bbb     C3   6735 -0.00195300  12.010000   ; qtot -0.219848
 6736         h1    232    bbb     H5   6736 0.05064400   1.008000   ; qtot -0.169204
 6737         h1    232    bbb     H6   6737 0.05064400   1.008000   ; qtot -0.118560
 6738         c3    232    bbb     C4   6738 -0.01612100  12.010000   ; qtot -0.134681
 6739         hc    232    bbb     H7   6739 0.04936100   1.008000   ; qtot -0.085320
 6740         hc    232    bbb     H8   6740 0.04936100   1.008000   ; qtot -0.035959
 6741         c3    232    bbb     C5   6741 0.11363000  12.010000   ; qtot 0.077671
 6742         hc    232    bbb     H9   6742 0.06265900   1.008000   ; qtot 0.140330
 6743         hc    232    bbb    H10   6743 0.06265900   1.008000   ; qtot 0.202989
 6744         c3    232    bbb     C6   6744 0.11363000  12.010000   ; qtot 0.316619
 6745         hc    232    bbb    H11   6745 0.06265900   1.008000   ; qtot 0.379278
 6746         hc    232    bbb    H12   6746 0.06265900   1.008000   ; qtot 0.441937
 6747         c3    232    bbb     C7   6747 0.05858200  12.010000   ; qtot 0.500519
 6748         h1    232    bbb    H13   6748 0.06123400   1.008000   ; qtot 0.561753
 6749         h1    232    bbb    H14   6749 0.06123400   1.008000   ; qtot 0.622987
 6750         c3    232    bbb     C8   6750 -0.72423400  12.010000   ; qtot -0.101247
 6751         h1    232    bbb    H15   6751 0.25637600   1.008000   ; qtot 0.155129
 6752         h1    232    bbb    H16   6752 0.25637600   1.008000   ; qtot 0.411505
 6753         c3    232    bbb     C9   6753 -0.72423400  12.010000   ; qtot -0.312729
 6754         h1    232    bbb    H17   6754 0.25637600   1.008000   ; qtot -0.056353
 6755         h1    232    bbb    H18   6755 0.25637600   1.008000   ; qtot 0.200023
 6756         os    232    bbb     O1   6756 -0.20025300  16.000000   ; qtot -0.000230
; residue  233 bbb rtp bbb q -0.0
 6757         n3    233    bbb     N1   6757 -0.59685800  14.010000   ; qtot -0.597088
 6758         c3    233    bbb     C1   6758 0.10137000  12.010000   ; qtot -0.495718
 6759         h1    233    bbb     H1   6759 0.04411300   1.008000   ; qtot -0.451605
 6760         h1    233    bbb     H2   6760 0.04411300   1.008000   ; qtot -0.407492
 6761         c3    233    bbb     C2   6761 0.10137000  12.010000   ; qtot -0.306122
 6762         h1    233    bbb     H3   6762 0.04411300   1.008000   ; qtot -0.262009
 6763         h1    233    bbb     H4   6763 0.04411300   1.008000   ; qtot -0.217896
 6764         c3    233    bbb     C3   6764 -0.00195300  12.010000   ; qtot -0.219849
 6765         h1    233    bbb     H5   6765 0.05064400   1.008000   ; qtot -0.169205
 6766         h1    233    bbb     H6   6766 0.05064400   1.008000   ; qtot -0.118561
 6767         c3    233    bbb     C4   6767 -0.01612100  12.010000   ; qtot -0.134682
 6768         hc    233    bbb     H7   6768 0.04936100   1.008000   ; qtot -0.085321
 6769         hc    233    bbb     H8   6769 0.04936100   1.008000   ; qtot -0.035960
 6770         c3    233    bbb     C5   6770 0.11363000  12.010000   ; qtot 0.077670
 6771         hc    233    bbb     H9   6771 0.06265900   1.008000   ; qtot 0.140329
 6772         hc    233    bbb    H10   6772 0.06265900   1.008000   ; qtot 0.202988
 6773         c3    233    bbb     C6   6773 0.11363000  12.010000   ; qtot 0.316618
 6774         hc    233    bbb    H11   6774 0.06265900   1.008000   ; qtot 0.379277
 6775         hc    233    bbb    H12   6775 0.06265900   1.008000   ; qtot 0.441936
 6776         c3    233    bbb     C7   6776 0.05858200  12.010000   ; qtot 0.500518
 6777         h1    233    bbb    H13   6777 0.06123400   1.008000   ; qtot 0.561752
 6778         h1    233    bbb    H14   6778 0.06123400   1.008000   ; qtot 0.622986
 6779         c3    233    bbb     C8   6779 -0.72423400  12.010000   ; qtot -0.101248
 6780         h1    233    bbb    H15   6780 0.25637600   1.008000   ; qtot 0.155128
 6781         h1    233    bbb    H16   6781 0.25637600   1.008000   ; qtot 0.411504
 6782         c3    233    bbb     C9   6782 -0.72423400  12.010000   ; qtot -0.312730
 6783         h1    233    bbb    H17   6783 0.25637600   1.008000   ; qtot -0.056354
 6784         h1    233    bbb    H18   6784 0.25637600   1.008000   ; qtot 0.200022
 6785         os    233    bbb     O1   6785 -0.20025300  16.000000   ; qtot -0.000231
; residue  234 bbb rtp bbb q -0.0
 6786         n3    234    bbb     N1   6786 -0.59685800  14.010000   ; qtot -0.597089
 6787         c3    234    bbb     C1   6787 0.10137000  12.010000   ; qtot -0.495719
 6788         h1    234    bbb     H1   6788 0.04411300   1.008000   ; qtot -0.451606
 6789         h1    234    bbb     H2   6789 0.04411300   1.008000   ; qtot -0.407493
 6790         c3    234    bbb     C2   6790 0.10137000  12.010000   ; qtot -0.306123
 6791         h1    234    bbb     H3   6791 0.04411300   1.008000   ; qtot -0.262010
 6792         h1    234    bbb     H4   6792 0.04411300   1.008000   ; qtot -0.217897
 6793         c3    234    bbb     C3   6793 -0.00195300  12.010000   ; qtot -0.219850
 6794         h1    234    bbb     H5   6794 0.05064400   1.008000   ; qtot -0.169206
 6795         h1    234    bbb     H6   6795 0.05064400   1.008000   ; qtot -0.118562
 6796         c3    234    bbb     C4   6796 -0.01612100  12.010000   ; qtot -0.134683
 6797         hc    234    bbb     H7   6797 0.04936100   1.008000   ; qtot -0.085322
 6798         hc    234    bbb     H8   6798 0.04936100   1.008000   ; qtot -0.035961
 6799         c3    234    bbb     C5   6799 0.11363000  12.010000   ; qtot 0.077669
 6800         hc    234    bbb     H9   6800 0.06265900   1.008000   ; qtot 0.140328
 6801         hc    234    bbb    H10   6801 0.06265900   1.008000   ; qtot 0.202987
 6802         c3    234    bbb     C6   6802 0.11363000  12.010000   ; qtot 0.316617
 6803         hc    234    bbb    H11   6803 0.06265900   1.008000   ; qtot 0.379276
 6804         hc    234    bbb    H12   6804 0.06265900   1.008000   ; qtot 0.441935
 6805         c3    234    bbb     C7   6805 0.05858200  12.010000   ; qtot 0.500517
 6806         h1    234    bbb    H13   6806 0.06123400   1.008000   ; qtot 0.561751
 6807         h1    234    bbb    H14   6807 0.06123400   1.008000   ; qtot 0.622985
 6808         c3    234    bbb     C8   6808 -0.72423400  12.010000   ; qtot -0.101249
 6809         h1    234    bbb    H15   6809 0.25637600   1.008000   ; qtot 0.155127
 6810         h1    234    bbb    H16   6810 0.25637600   1.008000   ; qtot 0.411503
 6811         c3    234    bbb     C9   6811 -0.72423400  12.010000   ; qtot -0.312731
 6812         h1    234    bbb    H17   6812 0.25637600   1.008000   ; qtot -0.056355
 6813         h1    234    bbb    H18   6813 0.25637600   1.008000   ; qtot 0.200021
 6814         os    234    bbb     O1   6814 -0.20025300  16.000000   ; qtot -0.000232
; residue  235 bbb rtp bbb q -0.0
 6815         n3    235    bbb     N1   6815 -0.59685800  14.010000   ; qtot -0.597090
 6816         c3    235    bbb     C1   6816 0.10137000  12.010000   ; qtot -0.495720
 6817         h1    235    bbb     H1   6817 0.04411300   1.008000   ; qtot -0.451607
 6818         h1    235    bbb     H2   6818 0.04411300   1.008000   ; qtot -0.407494
 6819         c3    235    bbb     C2   6819 0.10137000  12.010000   ; qtot -0.306124
 6820         h1    235    bbb     H3   6820 0.04411300   1.008000   ; qtot -0.262011
 6821         h1    235    bbb     H4   6821 0.04411300   1.008000   ; qtot -0.217898
 6822         c3    235    bbb     C3   6822 -0.00195300  12.010000   ; qtot -0.219851
 6823         h1    235    bbb     H5   6823 0.05064400   1.008000   ; qtot -0.169207
 6824         h1    235    bbb     H6   6824 0.05064400   1.008000   ; qtot -0.118563
 6825         c3    235    bbb     C4   6825 -0.01612100  12.010000   ; qtot -0.134684
 6826         hc    235    bbb     H7   6826 0.04936100   1.008000   ; qtot -0.085323
 6827         hc    235    bbb     H8   6827 0.04936100   1.008000   ; qtot -0.035962
 6828         c3    235    bbb     C5   6828 0.11363000  12.010000   ; qtot 0.077668
 6829         hc    235    bbb     H9   6829 0.06265900   1.008000   ; qtot 0.140327
 6830         hc    235    bbb    H10   6830 0.06265900   1.008000   ; qtot 0.202986
 6831         c3    235    bbb     C6   6831 0.11363000  12.010000   ; qtot 0.316616
 6832         hc    235    bbb    H11   6832 0.06265900   1.008000   ; qtot 0.379275
 6833         hc    235    bbb    H12   6833 0.06265900   1.008000   ; qtot 0.441934
 6834         c3    235    bbb     C7   6834 0.05858200  12.010000   ; qtot 0.500516
 6835         h1    235    bbb    H13   6835 0.06123400   1.008000   ; qtot 0.561750
 6836         h1    235    bbb    H14   6836 0.06123400   1.008000   ; qtot 0.622984
 6837         c3    235    bbb     C8   6837 -0.72423400  12.010000   ; qtot -0.101250
 6838         h1    235    bbb    H15   6838 0.25637600   1.008000   ; qtot 0.155126
 6839         h1    235    bbb    H16   6839 0.25637600   1.008000   ; qtot 0.411502
 6840         c3    235    bbb     C9   6840 -0.72423400  12.010000   ; qtot -0.312732
 6841         h1    235    bbb    H17   6841 0.25637600   1.008000   ; qtot -0.056356
 6842         h1    235    bbb    H18   6842 0.25637600   1.008000   ; qtot 0.200020
 6843         os    235    bbb     O1   6843 -0.20025300  16.000000   ; qtot -0.000233
; residue  236 bbb rtp bbb q -0.0
 6844         n3    236    bbb     N1   6844 -0.59685800  14.010000   ; qtot -0.597091
 6845         c3    236    bbb     C1   6845 0.10137000  12.010000   ; qtot -0.495721
 6846         h1    236    bbb     H1   6846 0.04411300   1.008000   ; qtot -0.451608
 6847         h1    236    bbb     H2   6847 0.04411300   1.008000   ; qtot -0.407495
 6848         c3    236    bbb     C2   6848 0.10137000  12.010000   ; qtot -0.306125
 6849         h1    236    bbb     H3   6849 0.04411300   1.008000   ; qtot -0.262012
 6850         h1    236    bbb     H4   6850 0.04411300   1.008000   ; qtot -0.217899
 6851         c3    236    bbb     C3   6851 -0.00195300  12.010000   ; qtot -0.219852
 6852         h1    236    bbb     H5   6852 0.05064400   1.008000   ; qtot -0.169208
 6853         h1    236    bbb     H6   6853 0.05064400   1.008000   ; qtot -0.118564
 6854         c3    236    bbb     C4   6854 -0.01612100  12.010000   ; qtot -0.134685
 6855         hc    236    bbb     H7   6855 0.04936100   1.008000   ; qtot -0.085324
 6856         hc    236    bbb     H8   6856 0.04936100   1.008000   ; qtot -0.035963
 6857         c3    236    bbb     C5   6857 0.11363000  12.010000   ; qtot 0.077667
 6858         hc    236    bbb     H9   6858 0.06265900   1.008000   ; qtot 0.140326
 6859         hc    236    bbb    H10   6859 0.06265900   1.008000   ; qtot 0.202985
 6860         c3    236    bbb     C6   6860 0.11363000  12.010000   ; qtot 0.316615
 6861         hc    236    bbb    H11   6861 0.06265900   1.008000   ; qtot 0.379274
 6862         hc    236    bbb    H12   6862 0.06265900   1.008000   ; qtot 0.441933
 6863         c3    236    bbb     C7   6863 0.05858200  12.010000   ; qtot 0.500515
 6864         h1    236    bbb    H13   6864 0.06123400   1.008000   ; qtot 0.561749
 6865         h1    236    bbb    H14   6865 0.06123400   1.008000   ; qtot 0.622983
 6866         c3    236    bbb     C8   6866 -0.72423400  12.010000   ; qtot -0.101251
 6867         h1    236    bbb    H15   6867 0.25637600   1.008000   ; qtot 0.155125
 6868         h1    236    bbb    H16   6868 0.25637600   1.008000   ; qtot 0.411501
 6869         c3    236    bbb     C9   6869 -0.72423400  12.010000   ; qtot -0.312733
 6870         h1    236    bbb    H17   6870 0.25637600   1.008000   ; qtot -0.056357
 6871         h1    236    bbb    H18   6871 0.25637600   1.008000   ; qtot 0.200019
 6872         os    236    bbb     O1   6872 -0.20025300  16.000000   ; qtot -0.000234
; residue  237 bbb rtp bbb q -0.0
 6873         n3    237    bbb     N1   6873 -0.59685800  14.010000   ; qtot -0.597092
 6874         c3    237    bbb     C1   6874 0.10137000  12.010000   ; qtot -0.495722
 6875         h1    237    bbb     H1   6875 0.04411300   1.008000   ; qtot -0.451609
 6876         h1    237    bbb     H2   6876 0.04411300   1.008000   ; qtot -0.407496
 6877         c3    237    bbb     C2   6877 0.10137000  12.010000   ; qtot -0.306126
 6878         h1    237    bbb     H3   6878 0.04411300   1.008000   ; qtot -0.262013
 6879         h1    237    bbb     H4   6879 0.04411300   1.008000   ; qtot -0.217900
 6880         c3    237    bbb     C3   6880 -0.00195300  12.010000   ; qtot -0.219853
 6881         h1    237    bbb     H5   6881 0.05064400   1.008000   ; qtot -0.169209
 6882         h1    237    bbb     H6   6882 0.05064400   1.008000   ; qtot -0.118565
 6883         c3    237    bbb     C4   6883 -0.01612100  12.010000   ; qtot -0.134686
 6884         hc    237    bbb     H7   6884 0.04936100   1.008000   ; qtot -0.085325
 6885         hc    237    bbb     H8   6885 0.04936100   1.008000   ; qtot -0.035964
 6886         c3    237    bbb     C5   6886 0.11363000  12.010000   ; qtot 0.077666
 6887         hc    237    bbb     H9   6887 0.06265900   1.008000   ; qtot 0.140325
 6888         hc    237    bbb    H10   6888 0.06265900   1.008000   ; qtot 0.202984
 6889         c3    237    bbb     C6   6889 0.11363000  12.010000   ; qtot 0.316614
 6890         hc    237    bbb    H11   6890 0.06265900   1.008000   ; qtot 0.379273
 6891         hc    237    bbb    H12   6891 0.06265900   1.008000   ; qtot 0.441932
 6892         c3    237    bbb     C7   6892 0.05858200  12.010000   ; qtot 0.500514
 6893         h1    237    bbb    H13   6893 0.06123400   1.008000   ; qtot 0.561748
 6894         h1    237    bbb    H14   6894 0.06123400   1.008000   ; qtot 0.622982
 6895         c3    237    bbb     C8   6895 -0.72423400  12.010000   ; qtot -0.101252
 6896         h1    237    bbb    H15   6896 0.25637600   1.008000   ; qtot 0.155124
 6897         h1    237    bbb    H16   6897 0.25637600   1.008000   ; qtot 0.411500
 6898         c3    237    bbb     C9   6898 -0.72423400  12.010000   ; qtot -0.312734
 6899         h1    237    bbb    H17   6899 0.25637600   1.008000   ; qtot -0.056358
 6900         h1    237    bbb    H18   6900 0.25637600   1.008000   ; qtot 0.200018
 6901         os    237    bbb     O1   6901 -0.20025300  16.000000   ; qtot -0.000235
; residue  238 bbb rtp bbb q -0.0
 6902         n3    238    bbb     N1   6902 -0.59685800  14.010000   ; qtot -0.597093
 6903         c3    238    bbb     C1   6903 0.10137000  12.010000   ; qtot -0.495723
 6904         h1    238    bbb     H1   6904 0.04411300   1.008000   ; qtot -0.451610
 6905         h1    238    bbb     H2   6905 0.04411300   1.008000   ; qtot -0.407497
 6906         c3    238    bbb     C2   6906 0.10137000  12.010000   ; qtot -0.306127
 6907         h1    238    bbb     H3   6907 0.04411300   1.008000   ; qtot -0.262014
 6908         h1    238    bbb     H4   6908 0.04411300   1.008000   ; qtot -0.217901
 6909         c3    238    bbb     C3   6909 -0.00195300  12.010000   ; qtot -0.219854
 6910         h1    238    bbb     H5   6910 0.05064400   1.008000   ; qtot -0.169210
 6911         h1    238    bbb     H6   6911 0.05064400   1.008000   ; qtot -0.118566
 6912         c3    238    bbb     C4   6912 -0.01612100  12.010000   ; qtot -0.134687
 6913         hc    238    bbb     H7   6913 0.04936100   1.008000   ; qtot -0.085326
 6914         hc    238    bbb     H8   6914 0.04936100   1.008000   ; qtot -0.035965
 6915         c3    238    bbb     C5   6915 0.11363000  12.010000   ; qtot 0.077665
 6916         hc    238    bbb     H9   6916 0.06265900   1.008000   ; qtot 0.140324
 6917         hc    238    bbb    H10   6917 0.06265900   1.008000   ; qtot 0.202983
 6918         c3    238    bbb     C6   6918 0.11363000  12.010000   ; qtot 0.316613
 6919         hc    238    bbb    H11   6919 0.06265900   1.008000   ; qtot 0.379272
 6920         hc    238    bbb    H12   6920 0.06265900   1.008000   ; qtot 0.441931
 6921         c3    238    bbb     C7   6921 0.05858200  12.010000   ; qtot 0.500513
 6922         h1    238    bbb    H13   6922 0.06123400   1.008000   ; qtot 0.561747
 6923         h1    238    bbb    H14   6923 0.06123400   1.008000   ; qtot 0.622981
 6924         c3    238    bbb     C8   6924 -0.72423400  12.010000   ; qtot -0.101253
 6925         h1    238    bbb    H15   6925 0.25637600   1.008000   ; qtot 0.155123
 6926         h1    238    bbb    H16   6926 0.25637600   1.008000   ; qtot 0.411499
 6927         c3    238    bbb     C9   6927 -0.72423400  12.010000   ; qtot -0.312735
 6928         h1    238    bbb    H17   6928 0.25637600   1.008000   ; qtot -0.056359
 6929         h1    238    bbb    H18   6929 0.25637600   1.008000   ; qtot 0.200017
 6930         os    238    bbb     O1   6930 -0.20025300  16.000000   ; qtot -0.000236
; residue  239 bbb rtp bbb q -0.0
 6931         n3    239    bbb     N1   6931 -0.59685800  14.010000   ; qtot -0.597094
 6932         c3    239    bbb     C1   6932 0.10137000  12.010000   ; qtot -0.495724
 6933         h1    239    bbb     H1   6933 0.04411300   1.008000   ; qtot -0.451611
 6934         h1    239    bbb     H2   6934 0.04411300   1.008000   ; qtot -0.407498
 6935         c3    239    bbb     C2   6935 0.10137000  12.010000   ; qtot -0.306128
 6936         h1    239    bbb     H3   6936 0.04411300   1.008000   ; qtot -0.262015
 6937         h1    239    bbb     H4   6937 0.04411300   1.008000   ; qtot -0.217902
 6938         c3    239    bbb     C3   6938 -0.00195300  12.010000   ; qtot -0.219855
 6939         h1    239    bbb     H5   6939 0.05064400   1.008000   ; qtot -0.169211
 6940         h1    239    bbb     H6   6940 0.05064400   1.008000   ; qtot -0.118567
 6941         c3    239    bbb     C4   6941 -0.01612100  12.010000   ; qtot -0.134688
 6942         hc    239    bbb     H7   6942 0.04936100   1.008000   ; qtot -0.085327
 6943         hc    239    bbb     H8   6943 0.04936100   1.008000   ; qtot -0.035966
 6944         c3    239    bbb     C5   6944 0.11363000  12.010000   ; qtot 0.077664
 6945         hc    239    bbb     H9   6945 0.06265900   1.008000   ; qtot 0.140323
 6946         hc    239    bbb    H10   6946 0.06265900   1.008000   ; qtot 0.202982
 6947         c3    239    bbb     C6   6947 0.11363000  12.010000   ; qtot 0.316612
 6948         hc    239    bbb    H11   6948 0.06265900   1.008000   ; qtot 0.379271
 6949         hc    239    bbb    H12   6949 0.06265900   1.008000   ; qtot 0.441930
 6950         c3    239    bbb     C7   6950 0.05858200  12.010000   ; qtot 0.500512
 6951         h1    239    bbb    H13   6951 0.06123400   1.008000   ; qtot 0.561746
 6952         h1    239    bbb    H14   6952 0.06123400   1.008000   ; qtot 0.622980
 6953         c3    239    bbb     C8   6953 -0.72423400  12.010000   ; qtot -0.101254
 6954         h1    239    bbb    H15   6954 0.25637600   1.008000   ; qtot 0.155122
 6955         h1    239    bbb    H16   6955 0.25637600   1.008000   ; qtot 0.411498
 6956         c3    239    bbb     C9   6956 -0.72423400  12.010000   ; qtot -0.312736
 6957         h1    239    bbb    H17   6957 0.25637600   1.008000   ; qtot -0.056360
 6958         h1    239    bbb    H18   6958 0.25637600   1.008000   ; qtot 0.200016
 6959         os    239    bbb     O1   6959 -0.20025300  16.000000   ; qtot -0.000237
; residue  240 bbb rtp bbb q -0.0
 6960         n3    240    bbb     N1   6960 -0.59685800  14.010000   ; qtot -0.597095
 6961         c3    240    bbb     C1   6961 0.10137000  12.010000   ; qtot -0.495725
 6962         h1    240    bbb     H1   6962 0.04411300   1.008000   ; qtot -0.451612
 6963         h1    240    bbb     H2   6963 0.04411300   1.008000   ; qtot -0.407499
 6964         c3    240    bbb     C2   6964 0.10137000  12.010000   ; qtot -0.306129
 6965         h1    240    bbb     H3   6965 0.04411300   1.008000   ; qtot -0.262016
 6966         h1    240    bbb     H4   6966 0.04411300   1.008000   ; qtot -0.217903
 6967         c3    240    bbb     C3   6967 -0.00195300  12.010000   ; qtot -0.219856
 6968         h1    240    bbb     H5   6968 0.05064400   1.008000   ; qtot -0.169212
 6969         h1    240    bbb     H6   6969 0.05064400   1.008000   ; qtot -0.118568
 6970         c3    240    bbb     C4   6970 -0.01612100  12.010000   ; qtot -0.134689
 6971         hc    240    bbb     H7   6971 0.04936100   1.008000   ; qtot -0.085328
 6972         hc    240    bbb     H8   6972 0.04936100   1.008000   ; qtot -0.035967
 6973         c3    240    bbb     C5   6973 0.11363000  12.010000   ; qtot 0.077663
 6974         hc    240    bbb     H9   6974 0.06265900   1.008000   ; qtot 0.140322
 6975         hc    240    bbb    H10   6975 0.06265900   1.008000   ; qtot 0.202981
 6976         c3    240    bbb     C6   6976 0.11363000  12.010000   ; qtot 0.316611
 6977         hc    240    bbb    H11   6977 0.06265900   1.008000   ; qtot 0.379270
 6978         hc    240    bbb    H12   6978 0.06265900   1.008000   ; qtot 0.441929
 6979         c3    240    bbb     C7   6979 0.05858200  12.010000   ; qtot 0.500511
 6980         h1    240    bbb    H13   6980 0.06123400   1.008000   ; qtot 0.561745
 6981         h1    240    bbb    H14   6981 0.06123400   1.008000   ; qtot 0.622979
 6982         c3    240    bbb     C8   6982 -0.72423400  12.010000   ; qtot -0.101255
 6983         h1    240    bbb    H15   6983 0.25637600   1.008000   ; qtot 0.155121
 6984         h1    240    bbb    H16   6984 0.25637600   1.008000   ; qtot 0.411497
 6985         c3    240    bbb     C9   6985 -0.72423400  12.010000   ; qtot -0.312737
 6986         h1    240    bbb    H17   6986 0.25637600   1.008000   ; qtot -0.056361
 6987         h1    240    bbb    H18   6987 0.25637600   1.008000   ; qtot 0.200015
 6988         os    240    bbb     O1   6988 -0.20025300  16.000000   ; qtot -0.000238
; residue  241 bbb rtp bbb q -0.0
 6989         n3    241    bbb     N1   6989 -0.59685800  14.010000   ; qtot -0.597096
 6990         c3    241    bbb     C1   6990 0.10137000  12.010000   ; qtot -0.495726
 6991         h1    241    bbb     H1   6991 0.04411300   1.008000   ; qtot -0.451613
 6992         h1    241    bbb     H2   6992 0.04411300   1.008000   ; qtot -0.407500
 6993         c3    241    bbb     C2   6993 0.10137000  12.010000   ; qtot -0.306130
 6994         h1    241    bbb     H3   6994 0.04411300   1.008000   ; qtot -0.262017
 6995         h1    241    bbb     H4   6995 0.04411300   1.008000   ; qtot -0.217904
 6996         c3    241    bbb     C3   6996 -0.00195300  12.010000   ; qtot -0.219857
 6997         h1    241    bbb     H5   6997 0.05064400   1.008000   ; qtot -0.169213
 6998         h1    241    bbb     H6   6998 0.05064400   1.008000   ; qtot -0.118569
 6999         c3    241    bbb     C4   6999 -0.01612100  12.010000   ; qtot -0.134690
 7000         hc    241    bbb     H7   7000 0.04936100   1.008000   ; qtot -0.085329
 7001         hc    241    bbb     H8   7001 0.04936100   1.008000   ; qtot -0.035968
 7002         c3    241    bbb     C5   7002 0.11363000  12.010000   ; qtot 0.077662
 7003         hc    241    bbb     H9   7003 0.06265900   1.008000   ; qtot 0.140321
 7004         hc    241    bbb    H10   7004 0.06265900   1.008000   ; qtot 0.202980
 7005         c3    241    bbb     C6   7005 0.11363000  12.010000   ; qtot 0.316610
 7006         hc    241    bbb    H11   7006 0.06265900   1.008000   ; qtot 0.379269
 7007         hc    241    bbb    H12   7007 0.06265900   1.008000   ; qtot 0.441928
 7008         c3    241    bbb     C7   7008 0.05858200  12.010000   ; qtot 0.500510
 7009         h1    241    bbb    H13   7009 0.06123400   1.008000   ; qtot 0.561744
 7010         h1    241    bbb    H14   7010 0.06123400   1.008000   ; qtot 0.622978
 7011         c3    241    bbb     C8   7011 -0.72423400  12.010000   ; qtot -0.101256
 7012         h1    241    bbb    H15   7012 0.25637600   1.008000   ; qtot 0.155120
 7013         h1    241    bbb    H16   7013 0.25637600   1.008000   ; qtot 0.411496
 7014         c3    241    bbb     C9   7014 -0.72423400  12.010000   ; qtot -0.312738
 7015         h1    241    bbb    H17   7015 0.25637600   1.008000   ; qtot -0.056362
 7016         h1    241    bbb    H18   7016 0.25637600   1.008000   ; qtot 0.200014
 7017         os    241    bbb     O1   7017 -0.20025300  16.000000   ; qtot -0.000239
; residue  242 bbb rtp bbb q -0.0
 7018         n3    242    bbb     N1   7018 -0.59685800  14.010000   ; qtot -0.597097
 7019         c3    242    bbb     C1   7019 0.10137000  12.010000   ; qtot -0.495727
 7020         h1    242    bbb     H1   7020 0.04411300   1.008000   ; qtot -0.451614
 7021         h1    242    bbb     H2   7021 0.04411300   1.008000   ; qtot -0.407501
 7022         c3    242    bbb     C2   7022 0.10137000  12.010000   ; qtot -0.306131
 7023         h1    242    bbb     H3   7023 0.04411300   1.008000   ; qtot -0.262018
 7024         h1    242    bbb     H4   7024 0.04411300   1.008000   ; qtot -0.217905
 7025         c3    242    bbb     C3   7025 -0.00195300  12.010000   ; qtot -0.219858
 7026         h1    242    bbb     H5   7026 0.05064400   1.008000   ; qtot -0.169214
 7027         h1    242    bbb     H6   7027 0.05064400   1.008000   ; qtot -0.118570
 7028         c3    242    bbb     C4   7028 -0.01612100  12.010000   ; qtot -0.134691
 7029         hc    242    bbb     H7   7029 0.04936100   1.008000   ; qtot -0.085330
 7030         hc    242    bbb     H8   7030 0.04936100   1.008000   ; qtot -0.035969
 7031         c3    242    bbb     C5   7031 0.11363000  12.010000   ; qtot 0.077661
 7032         hc    242    bbb     H9   7032 0.06265900   1.008000   ; qtot 0.140320
 7033         hc    242    bbb    H10   7033 0.06265900   1.008000   ; qtot 0.202979
 7034         c3    242    bbb     C6   7034 0.11363000  12.010000   ; qtot 0.316609
 7035         hc    242    bbb    H11   7035 0.06265900   1.008000   ; qtot 0.379268
 7036         hc    242    bbb    H12   7036 0.06265900   1.008000   ; qtot 0.441927
 7037         c3    242    bbb     C7   7037 0.05858200  12.010000   ; qtot 0.500509
 7038         h1    242    bbb    H13   7038 0.06123400   1.008000   ; qtot 0.561743
 7039         h1    242    bbb    H14   7039 0.06123400   1.008000   ; qtot 0.622977
 7040         c3    242    bbb     C8   7040 -0.72423400  12.010000   ; qtot -0.101257
 7041         h1    242    bbb    H15   7041 0.25637600   1.008000   ; qtot 0.155119
 7042         h1    242    bbb    H16   7042 0.25637600   1.008000   ; qtot 0.411495
 7043         c3    242    bbb     C9   7043 -0.72423400  12.010000   ; qtot -0.312739
 7044         h1    242    bbb    H17   7044 0.25637600   1.008000   ; qtot -0.056363
 7045         h1    242    bbb    H18   7045 0.25637600   1.008000   ; qtot 0.200013
 7046         os    242    bbb     O1   7046 -0.20025300  16.000000   ; qtot -0.000240
; residue  243 bbb rtp bbb q -0.0
 7047         n3    243    bbb     N1   7047 -0.59685800  14.010000   ; qtot -0.597098
 7048         c3    243    bbb     C1   7048 0.10137000  12.010000   ; qtot -0.495728
 7049         h1    243    bbb     H1   7049 0.04411300   1.008000   ; qtot -0.451615
 7050         h1    243    bbb     H2   7050 0.04411300   1.008000   ; qtot -0.407502
 7051         c3    243    bbb     C2   7051 0.10137000  12.010000   ; qtot -0.306132
 7052         h1    243    bbb     H3   7052 0.04411300   1.008000   ; qtot -0.262019
 7053         h1    243    bbb     H4   7053 0.04411300   1.008000   ; qtot -0.217906
 7054         c3    243    bbb     C3   7054 -0.00195300  12.010000   ; qtot -0.219859
 7055         h1    243    bbb     H5   7055 0.05064400   1.008000   ; qtot -0.169215
 7056         h1    243    bbb     H6   7056 0.05064400   1.008000   ; qtot -0.118571
 7057         c3    243    bbb     C4   7057 -0.01612100  12.010000   ; qtot -0.134692
 7058         hc    243    bbb     H7   7058 0.04936100   1.008000   ; qtot -0.085331
 7059         hc    243    bbb     H8   7059 0.04936100   1.008000   ; qtot -0.035970
 7060         c3    243    bbb     C5   7060 0.11363000  12.010000   ; qtot 0.077660
 7061         hc    243    bbb     H9   7061 0.06265900   1.008000   ; qtot 0.140319
 7062         hc    243    bbb    H10   7062 0.06265900   1.008000   ; qtot 0.202978
 7063         c3    243    bbb     C6   7063 0.11363000  12.010000   ; qtot 0.316608
 7064         hc    243    bbb    H11   7064 0.06265900   1.008000   ; qtot 0.379267
 7065         hc    243    bbb    H12   7065 0.06265900   1.008000   ; qtot 0.441926
 7066         c3    243    bbb     C7   7066 0.05858200  12.010000   ; qtot 0.500508
 7067         h1    243    bbb    H13   7067 0.06123400   1.008000   ; qtot 0.561742
 7068         h1    243    bbb    H14   7068 0.06123400   1.008000   ; qtot 0.622976
 7069         c3    243    bbb     C8   7069 -0.72423400  12.010000   ; qtot -0.101258
 7070         h1    243    bbb    H15   7070 0.25637600   1.008000   ; qtot 0.155118
 7071         h1    243    bbb    H16   7071 0.25637600   1.008000   ; qtot 0.411494
 7072         c3    243    bbb     C9   7072 -0.72423400  12.010000   ; qtot -0.312740
 7073         h1    243    bbb    H17   7073 0.25637600   1.008000   ; qtot -0.056364
 7074         h1    243    bbb    H18   7074 0.25637600   1.008000   ; qtot 0.200012
 7075         os    243    bbb     O1   7075 -0.20025300  16.000000   ; qtot -0.000241
; residue  244 bbb rtp bbb q -0.0
 7076         n3    244    bbb     N1   7076 -0.59685800  14.010000   ; qtot -0.597099
 7077         c3    244    bbb     C1   7077 0.10137000  12.010000   ; qtot -0.495729
 7078         h1    244    bbb     H1   7078 0.04411300   1.008000   ; qtot -0.451616
 7079         h1    244    bbb     H2   7079 0.04411300   1.008000   ; qtot -0.407503
 7080         c3    244    bbb     C2   7080 0.10137000  12.010000   ; qtot -0.306133
 7081         h1    244    bbb     H3   7081 0.04411300   1.008000   ; qtot -0.262020
 7082         h1    244    bbb     H4   7082 0.04411300   1.008000   ; qtot -0.217907
 7083         c3    244    bbb     C3   7083 -0.00195300  12.010000   ; qtot -0.219860
 7084         h1    244    bbb     H5   7084 0.05064400   1.008000   ; qtot -0.169216
 7085         h1    244    bbb     H6   7085 0.05064400   1.008000   ; qtot -0.118572
 7086         c3    244    bbb     C4   7086 -0.01612100  12.010000   ; qtot -0.134693
 7087         hc    244    bbb     H7   7087 0.04936100   1.008000   ; qtot -0.085332
 7088         hc    244    bbb     H8   7088 0.04936100   1.008000   ; qtot -0.035971
 7089         c3    244    bbb     C5   7089 0.11363000  12.010000   ; qtot 0.077659
 7090         hc    244    bbb     H9   7090 0.06265900   1.008000   ; qtot 0.140318
 7091         hc    244    bbb    H10   7091 0.06265900   1.008000   ; qtot 0.202977
 7092         c3    244    bbb     C6   7092 0.11363000  12.010000   ; qtot 0.316607
 7093         hc    244    bbb    H11   7093 0.06265900   1.008000   ; qtot 0.379266
 7094         hc    244    bbb    H12   7094 0.06265900   1.008000   ; qtot 0.441925
 7095         c3    244    bbb     C7   7095 0.05858200  12.010000   ; qtot 0.500507
 7096         h1    244    bbb    H13   7096 0.06123400   1.008000   ; qtot 0.561741
 7097         h1    244    bbb    H14   7097 0.06123400   1.008000   ; qtot 0.622975
 7098         c3    244    bbb     C8   7098 -0.72423400  12.010000   ; qtot -0.101259
 7099         h1    244    bbb    H15   7099 0.25637600   1.008000   ; qtot 0.155117
 7100         h1    244    bbb    H16   7100 0.25637600   1.008000   ; qtot 0.411493
 7101         c3    244    bbb     C9   7101 -0.72423400  12.010000   ; qtot -0.312741
 7102         h1    244    bbb    H17   7102 0.25637600   1.008000   ; qtot -0.056365
 7103         h1    244    bbb    H18   7103 0.25637600   1.008000   ; qtot 0.200011
 7104         os    244    bbb     O1   7104 -0.20025300  16.000000   ; qtot -0.000242
; residue  245 bbb rtp bbb q -0.0
 7105         n3    245    bbb     N1   7105 -0.59685800  14.010000   ; qtot -0.597100
 7106         c3    245    bbb     C1   7106 0.10137000  12.010000   ; qtot -0.495730
 7107         h1    245    bbb     H1   7107 0.04411300   1.008000   ; qtot -0.451617
 7108         h1    245    bbb     H2   7108 0.04411300   1.008000   ; qtot -0.407504
 7109         c3    245    bbb     C2   7109 0.10137000  12.010000   ; qtot -0.306134
 7110         h1    245    bbb     H3   7110 0.04411300   1.008000   ; qtot -0.262021
 7111         h1    245    bbb     H4   7111 0.04411300   1.008000   ; qtot -0.217908
 7112         c3    245    bbb     C3   7112 -0.00195300  12.010000   ; qtot -0.219861
 7113         h1    245    bbb     H5   7113 0.05064400   1.008000   ; qtot -0.169217
 7114         h1    245    bbb     H6   7114 0.05064400   1.008000   ; qtot -0.118573
 7115         c3    245    bbb     C4   7115 -0.01612100  12.010000   ; qtot -0.134694
 7116         hc    245    bbb     H7   7116 0.04936100   1.008000   ; qtot -0.085333
 7117         hc    245    bbb     H8   7117 0.04936100   1.008000   ; qtot -0.035972
 7118         c3    245    bbb     C5   7118 0.11363000  12.010000   ; qtot 0.077658
 7119         hc    245    bbb     H9   7119 0.06265900   1.008000   ; qtot 0.140317
 7120         hc    245    bbb    H10   7120 0.06265900   1.008000   ; qtot 0.202976
 7121         c3    245    bbb     C6   7121 0.11363000  12.010000   ; qtot 0.316606
 7122         hc    245    bbb    H11   7122 0.06265900   1.008000   ; qtot 0.379265
 7123         hc    245    bbb    H12   7123 0.06265900   1.008000   ; qtot 0.441924
 7124         c3    245    bbb     C7   7124 0.05858200  12.010000   ; qtot 0.500506
 7125         h1    245    bbb    H13   7125 0.06123400   1.008000   ; qtot 0.561740
 7126         h1    245    bbb    H14   7126 0.06123400   1.008000   ; qtot 0.622974
 7127         c3    245    bbb     C8   7127 -0.72423400  12.010000   ; qtot -0.101260
 7128         h1    245    bbb    H15   7128 0.25637600   1.008000   ; qtot 0.155116
 7129         h1    245    bbb    H16   7129 0.25637600   1.008000   ; qtot 0.411492
 7130         c3    245    bbb     C9   7130 -0.72423400  12.010000   ; qtot -0.312742
 7131         h1    245    bbb    H17   7131 0.25637600   1.008000   ; qtot -0.056366
 7132         h1    245    bbb    H18   7132 0.25637600   1.008000   ; qtot 0.200010
 7133         os    245    bbb     O1   7133 -0.20025300  16.000000   ; qtot -0.000243
; residue  246 bbb rtp bbb q -0.0
 7134         n3    246    bbb     N1   7134 -0.59685800  14.010000   ; qtot -0.597101
 7135         c3    246    bbb     C1   7135 0.10137000  12.010000   ; qtot -0.495731
 7136         h1    246    bbb     H1   7136 0.04411300   1.008000   ; qtot -0.451618
 7137         h1    246    bbb     H2   7137 0.04411300   1.008000   ; qtot -0.407505
 7138         c3    246    bbb     C2   7138 0.10137000  12.010000   ; qtot -0.306135
 7139         h1    246    bbb     H3   7139 0.04411300   1.008000   ; qtot -0.262022
 7140         h1    246    bbb     H4   7140 0.04411300   1.008000   ; qtot -0.217909
 7141         c3    246    bbb     C3   7141 -0.00195300  12.010000   ; qtot -0.219862
 7142         h1    246    bbb     H5   7142 0.05064400   1.008000   ; qtot -0.169218
 7143         h1    246    bbb     H6   7143 0.05064400   1.008000   ; qtot -0.118574
 7144         c3    246    bbb     C4   7144 -0.01612100  12.010000   ; qtot -0.134695
 7145         hc    246    bbb     H7   7145 0.04936100   1.008000   ; qtot -0.085334
 7146         hc    246    bbb     H8   7146 0.04936100   1.008000   ; qtot -0.035973
 7147         c3    246    bbb     C5   7147 0.11363000  12.010000   ; qtot 0.077657
 7148         hc    246    bbb     H9   7148 0.06265900   1.008000   ; qtot 0.140316
 7149         hc    246    bbb    H10   7149 0.06265900   1.008000   ; qtot 0.202975
 7150         c3    246    bbb     C6   7150 0.11363000  12.010000   ; qtot 0.316605
 7151         hc    246    bbb    H11   7151 0.06265900   1.008000   ; qtot 0.379264
 7152         hc    246    bbb    H12   7152 0.06265900   1.008000   ; qtot 0.441923
 7153         c3    246    bbb     C7   7153 0.05858200  12.010000   ; qtot 0.500505
 7154         h1    246    bbb    H13   7154 0.06123400   1.008000   ; qtot 0.561739
 7155         h1    246    bbb    H14   7155 0.06123400   1.008000   ; qtot 0.622973
 7156         c3    246    bbb     C8   7156 -0.72423400  12.010000   ; qtot -0.101261
 7157         h1    246    bbb    H15   7157 0.25637600   1.008000   ; qtot 0.155115
 7158         h1    246    bbb    H16   7158 0.25637600   1.008000   ; qtot 0.411491
 7159         c3    246    bbb     C9   7159 -0.72423400  12.010000   ; qtot -0.312743
 7160         h1    246    bbb    H17   7160 0.25637600   1.008000   ; qtot -0.056367
 7161         h1    246    bbb    H18   7161 0.25637600   1.008000   ; qtot 0.200009
 7162         os    246    bbb     O1   7162 -0.20025300  16.000000   ; qtot -0.000244
; residue  247 bbb rtp bbb q -0.0
 7163         n3    247    bbb     N1   7163 -0.59685800  14.010000   ; qtot -0.597102
 7164         c3    247    bbb     C1   7164 0.10137000  12.010000   ; qtot -0.495732
 7165         h1    247    bbb     H1   7165 0.04411300   1.008000   ; qtot -0.451619
 7166         h1    247    bbb     H2   7166 0.04411300   1.008000   ; qtot -0.407506
 7167         c3    247    bbb     C2   7167 0.10137000  12.010000   ; qtot -0.306136
 7168         h1    247    bbb     H3   7168 0.04411300   1.008000   ; qtot -0.262023
 7169         h1    247    bbb     H4   7169 0.04411300   1.008000   ; qtot -0.217910
 7170         c3    247    bbb     C3   7170 -0.00195300  12.010000   ; qtot -0.219863
 7171         h1    247    bbb     H5   7171 0.05064400   1.008000   ; qtot -0.169219
 7172         h1    247    bbb     H6   7172 0.05064400   1.008000   ; qtot -0.118575
 7173         c3    247    bbb     C4   7173 -0.01612100  12.010000   ; qtot -0.134696
 7174         hc    247    bbb     H7   7174 0.04936100   1.008000   ; qtot -0.085335
 7175         hc    247    bbb     H8   7175 0.04936100   1.008000   ; qtot -0.035974
 7176         c3    247    bbb     C5   7176 0.11363000  12.010000   ; qtot 0.077656
 7177         hc    247    bbb     H9   7177 0.06265900   1.008000   ; qtot 0.140315
 7178         hc    247    bbb    H10   7178 0.06265900   1.008000   ; qtot 0.202974
 7179         c3    247    bbb     C6   7179 0.11363000  12.010000   ; qtot 0.316604
 7180         hc    247    bbb    H11   7180 0.06265900   1.008000   ; qtot 0.379263
 7181         hc    247    bbb    H12   7181 0.06265900   1.008000   ; qtot 0.441922
 7182         c3    247    bbb     C7   7182 0.05858200  12.010000   ; qtot 0.500504
 7183         h1    247    bbb    H13   7183 0.06123400   1.008000   ; qtot 0.561738
 7184         h1    247    bbb    H14   7184 0.06123400   1.008000   ; qtot 0.622972
 7185         c3    247    bbb     C8   7185 -0.72423400  12.010000   ; qtot -0.101262
 7186         h1    247    bbb    H15   7186 0.25637600   1.008000   ; qtot 0.155114
 7187         h1    247    bbb    H16   7187 0.25637600   1.008000   ; qtot 0.411490
 7188         c3    247    bbb     C9   7188 -0.72423400  12.010000   ; qtot -0.312744
 7189         h1    247    bbb    H17   7189 0.25637600   1.008000   ; qtot -0.056368
 7190         h1    247    bbb    H18   7190 0.25637600   1.008000   ; qtot 0.200008
 7191         os    247    bbb     O1   7191 -0.20025300  16.000000   ; qtot -0.000245
; residue  248 bbb rtp bbb q -0.0
 7192         n3    248    bbb     N1   7192 -0.59685800  14.010000   ; qtot -0.597103
 7193         c3    248    bbb     C1   7193 0.10137000  12.010000   ; qtot -0.495733
 7194         h1    248    bbb     H1   7194 0.04411300   1.008000   ; qtot -0.451620
 7195         h1    248    bbb     H2   7195 0.04411300   1.008000   ; qtot -0.407507
 7196         c3    248    bbb     C2   7196 0.10137000  12.010000   ; qtot -0.306137
 7197         h1    248    bbb     H3   7197 0.04411300   1.008000   ; qtot -0.262024
 7198         h1    248    bbb     H4   7198 0.04411300   1.008000   ; qtot -0.217911
 7199         c3    248    bbb     C3   7199 -0.00195300  12.010000   ; qtot -0.219864
 7200         h1    248    bbb     H5   7200 0.05064400   1.008000   ; qtot -0.169220
 7201         h1    248    bbb     H6   7201 0.05064400   1.008000   ; qtot -0.118576
 7202         c3    248    bbb     C4   7202 -0.01612100  12.010000   ; qtot -0.134697
 7203         hc    248    bbb     H7   7203 0.04936100   1.008000   ; qtot -0.085336
 7204         hc    248    bbb     H8   7204 0.04936100   1.008000   ; qtot -0.035975
 7205         c3    248    bbb     C5   7205 0.11363000  12.010000   ; qtot 0.077655
 7206         hc    248    bbb     H9   7206 0.06265900   1.008000   ; qtot 0.140314
 7207         hc    248    bbb    H10   7207 0.06265900   1.008000   ; qtot 0.202973
 7208         c3    248    bbb     C6   7208 0.11363000  12.010000   ; qtot 0.316603
 7209         hc    248    bbb    H11   7209 0.06265900   1.008000   ; qtot 0.379262
 7210         hc    248    bbb    H12   7210 0.06265900   1.008000   ; qtot 0.441921
 7211         c3    248    bbb     C7   7211 0.05858200  12.010000   ; qtot 0.500503
 7212         h1    248    bbb    H13   7212 0.06123400   1.008000   ; qtot 0.561737
 7213         h1    248    bbb    H14   7213 0.06123400   1.008000   ; qtot 0.622971
 7214         c3    248    bbb     C8   7214 -0.72423400  12.010000   ; qtot -0.101263
 7215         h1    248    bbb    H15   7215 0.25637600   1.008000   ; qtot 0.155113
 7216         h1    248    bbb    H16   7216 0.25637600   1.008000   ; qtot 0.411489
 7217         c3    248    bbb     C9   7217 -0.72423400  12.010000   ; qtot -0.312745
 7218         h1    248    bbb    H17   7218 0.25637600   1.008000   ; qtot -0.056369
 7219         h1    248    bbb    H18   7219 0.25637600   1.008000   ; qtot 0.200007
 7220         os    248    bbb     O1   7220 -0.20025300  16.000000   ; qtot -0.000246
; residue  249 bbb rtp bbb q -0.0
 7221         n3    249    bbb     N1   7221 -0.59685800  14.010000   ; qtot -0.597104
 7222         c3    249    bbb     C1   7222 0.10137000  12.010000   ; qtot -0.495734
 7223         h1    249    bbb     H1   7223 0.04411300   1.008000   ; qtot -0.451621
 7224         h1    249    bbb     H2   7224 0.04411300   1.008000   ; qtot -0.407508
 7225         c3    249    bbb     C2   7225 0.10137000  12.010000   ; qtot -0.306138
 7226         h1    249    bbb     H3   7226 0.04411300   1.008000   ; qtot -0.262025
 7227         h1    249    bbb     H4   7227 0.04411300   1.008000   ; qtot -0.217912
 7228         c3    249    bbb     C3   7228 -0.00195300  12.010000   ; qtot -0.219865
 7229         h1    249    bbb     H5   7229 0.05064400   1.008000   ; qtot -0.169221
 7230         h1    249    bbb     H6   7230 0.05064400   1.008000   ; qtot -0.118577
 7231         c3    249    bbb     C4   7231 -0.01612100  12.010000   ; qtot -0.134698
 7232         hc    249    bbb     H7   7232 0.04936100   1.008000   ; qtot -0.085337
 7233         hc    249    bbb     H8   7233 0.04936100   1.008000   ; qtot -0.035976
 7234         c3    249    bbb     C5   7234 0.11363000  12.010000   ; qtot 0.077654
 7235         hc    249    bbb     H9   7235 0.06265900   1.008000   ; qtot 0.140313
 7236         hc    249    bbb    H10   7236 0.06265900   1.008000   ; qtot 0.202972
 7237         c3    249    bbb     C6   7237 0.11363000  12.010000   ; qtot 0.316602
 7238         hc    249    bbb    H11   7238 0.06265900   1.008000   ; qtot 0.379261
 7239         hc    249    bbb    H12   7239 0.06265900   1.008000   ; qtot 0.441920
 7240         c3    249    bbb     C7   7240 0.05858200  12.010000   ; qtot 0.500502
 7241         h1    249    bbb    H13   7241 0.06123400   1.008000   ; qtot 0.561736
 7242         h1    249    bbb    H14   7242 0.06123400   1.008000   ; qtot 0.622970
 7243         c3    249    bbb     C8   7243 -0.72423400  12.010000   ; qtot -0.101264
 7244         h1    249    bbb    H15   7244 0.25637600   1.008000   ; qtot 0.155112
 7245         h1    249    bbb    H16   7245 0.25637600   1.008000   ; qtot 0.411488
 7246         c3    249    bbb     C9   7246 -0.72423400  12.010000   ; qtot -0.312746
 7247         h1    249    bbb    H17   7247 0.25637600   1.008000   ; qtot -0.056370
 7248         h1    249    bbb    H18   7248 0.25637600   1.008000   ; qtot 0.200006
 7249         os    249    bbb     O1   7249 -0.20025300  16.000000   ; qtot -0.000247
; residue  250 bbb rtp bbb q -0.0
 7250         n3    250    bbb     N1   7250 -0.59685800  14.010000   ; qtot -0.597105
 7251         c3    250    bbb     C1   7251 0.10137000  12.010000   ; qtot -0.495735
 7252         h1    250    bbb     H1   7252 0.04411300   1.008000   ; qtot -0.451622
 7253         h1    250    bbb     H2   7253 0.04411300   1.008000   ; qtot -0.407509
 7254         c3    250    bbb     C2   7254 0.10137000  12.010000   ; qtot -0.306139
 7255         h1    250    bbb     H3   7255 0.04411300   1.008000   ; qtot -0.262026
 7256         h1    250    bbb     H4   7256 0.04411300   1.008000   ; qtot -0.217913
 7257         c3    250    bbb     C3   7257 -0.00195300  12.010000   ; qtot -0.219866
 7258         h1    250    bbb     H5   7258 0.05064400   1.008000   ; qtot -0.169222
 7259         h1    250    bbb     H6   7259 0.05064400   1.008000   ; qtot -0.118578
 7260         c3    250    bbb     C4   7260 -0.01612100  12.010000   ; qtot -0.134699
 7261         hc    250    bbb     H7   7261 0.04936100   1.008000   ; qtot -0.085338
 7262         hc    250    bbb     H8   7262 0.04936100   1.008000   ; qtot -0.035977
 7263         c3    250    bbb     C5   7263 0.11363000  12.010000   ; qtot 0.077653
 7264         hc    250    bbb     H9   7264 0.06265900   1.008000   ; qtot 0.140312
 7265         hc    250    bbb    H10   7265 0.06265900   1.008000   ; qtot 0.202971
 7266         c3    250    bbb     C6   7266 0.11363000  12.010000   ; qtot 0.316601
 7267         hc    250    bbb    H11   7267 0.06265900   1.008000   ; qtot 0.379260
 7268         hc    250    bbb    H12   7268 0.06265900   1.008000   ; qtot 0.441919
 7269         c3    250    bbb     C7   7269 0.05858200  12.010000   ; qtot 0.500501
 7270         h1    250    bbb    H13   7270 0.06123400   1.008000   ; qtot 0.561735
 7271         h1    250    bbb    H14   7271 0.06123400   1.008000   ; qtot 0.622969
 7272         c3    250    bbb     C8   7272 -0.72423400  12.010000   ; qtot -0.101265
 7273         h1    250    bbb    H15   7273 0.25637600   1.008000   ; qtot 0.155111
 7274         h1    250    bbb    H16   7274 0.25637600   1.008000   ; qtot 0.411487
 7275         c3    250    bbb     C9   7275 -0.72423400  12.010000   ; qtot -0.312747
 7276         h1    250    bbb    H17   7276 0.25637600   1.008000   ; qtot -0.056371
 7277         h1    250    bbb    H18   7277 0.25637600   1.008000   ; qtot 0.200005
 7278         os    250    bbb     O1   7278 -0.20025300  16.000000   ; qtot -0.000248
; residue  251 bbb rtp bbb q -0.0
 7279         n3    251    bbb     N1   7279 -0.59685800  14.010000   ; qtot -0.597106
 7280         c3    251    bbb     C1   7280 0.10137000  12.010000   ; qtot -0.495736
 7281         h1    251    bbb     H1   7281 0.04411300   1.008000   ; qtot -0.451623
 7282         h1    251    bbb     H2   7282 0.04411300   1.008000   ; qtot -0.407510
 7283         c3    251    bbb     C2   7283 0.10137000  12.010000   ; qtot -0.306140
 7284         h1    251    bbb     H3   7284 0.04411300   1.008000   ; qtot -0.262027
 7285         h1    251    bbb     H4   7285 0.04411300   1.008000   ; qtot -0.217914
 7286         c3    251    bbb     C3   7286 -0.00195300  12.010000   ; qtot -0.219867
 7287         h1    251    bbb     H5   7287 0.05064400   1.008000   ; qtot -0.169223
 7288         h1    251    bbb     H6   7288 0.05064400   1.008000   ; qtot -0.118579
 7289         c3    251    bbb     C4   7289 -0.01612100  12.010000   ; qtot -0.134700
 7290         hc    251    bbb     H7   7290 0.04936100   1.008000   ; qtot -0.085339
 7291         hc    251    bbb     H8   7291 0.04936100   1.008000   ; qtot -0.035978
 7292         c3    251    bbb     C5   7292 0.11363000  12.010000   ; qtot 0.077652
 7293         hc    251    bbb     H9   7293 0.06265900   1.008000   ; qtot 0.140311
 7294         hc    251    bbb    H10   7294 0.06265900   1.008000   ; qtot 0.202970
 7295         c3    251    bbb     C6   7295 0.11363000  12.010000   ; qtot 0.316600
 7296         hc    251    bbb    H11   7296 0.06265900   1.008000   ; qtot 0.379259
 7297         hc    251    bbb    H12   7297 0.06265900   1.008000   ; qtot 0.441918
 7298         c3    251    bbb     C7   7298 0.05858200  12.010000   ; qtot 0.500500
 7299         h1    251    bbb    H13   7299 0.06123400   1.008000   ; qtot 0.561734
 7300         h1    251    bbb    H14   7300 0.06123400   1.008000   ; qtot 0.622968
 7301         c3    251    bbb     C8   7301 -0.72423400  12.010000   ; qtot -0.101266
 7302         h1    251    bbb    H15   7302 0.25637600   1.008000   ; qtot 0.155110
 7303         h1    251    bbb    H16   7303 0.25637600   1.008000   ; qtot 0.411486
 7304         c3    251    bbb     C9   7304 -0.72423400  12.010000   ; qtot -0.312748
 7305         h1    251    bbb    H17   7305 0.25637600   1.008000   ; qtot -0.056372
 7306         h1    251    bbb    H18   7306 0.25637600   1.008000   ; qtot 0.200004
 7307         os    251    bbb     O1   7307 -0.20025300  16.000000   ; qtot -0.000249
; residue  252 bbb rtp bbb q -0.0
 7308         n3    252    bbb     N1   7308 -0.59685800  14.010000   ; qtot -0.597107
 7309         c3    252    bbb     C1   7309 0.10137000  12.010000   ; qtot -0.495737
 7310         h1    252    bbb     H1   7310 0.04411300   1.008000   ; qtot -0.451624
 7311         h1    252    bbb     H2   7311 0.04411300   1.008000   ; qtot -0.407511
 7312         c3    252    bbb     C2   7312 0.10137000  12.010000   ; qtot -0.306141
 7313         h1    252    bbb     H3   7313 0.04411300   1.008000   ; qtot -0.262028
 7314         h1    252    bbb     H4   7314 0.04411300   1.008000   ; qtot -0.217915
 7315         c3    252    bbb     C3   7315 -0.00195300  12.010000   ; qtot -0.219868
 7316         h1    252    bbb     H5   7316 0.05064400   1.008000   ; qtot -0.169224
 7317         h1    252    bbb     H6   7317 0.05064400   1.008000   ; qtot -0.118580
 7318         c3    252    bbb     C4   7318 -0.01612100  12.010000   ; qtot -0.134701
 7319         hc    252    bbb     H7   7319 0.04936100   1.008000   ; qtot -0.085340
 7320         hc    252    bbb     H8   7320 0.04936100   1.008000   ; qtot -0.035979
 7321         c3    252    bbb     C5   7321 0.11363000  12.010000   ; qtot 0.077651
 7322         hc    252    bbb     H9   7322 0.06265900   1.008000   ; qtot 0.140310
 7323         hc    252    bbb    H10   7323 0.06265900   1.008000   ; qtot 0.202969
 7324         c3    252    bbb     C6   7324 0.11363000  12.010000   ; qtot 0.316599
 7325         hc    252    bbb    H11   7325 0.06265900   1.008000   ; qtot 0.379258
 7326         hc    252    bbb    H12   7326 0.06265900   1.008000   ; qtot 0.441917
 7327         c3    252    bbb     C7   7327 0.05858200  12.010000   ; qtot 0.500499
 7328         h1    252    bbb    H13   7328 0.06123400   1.008000   ; qtot 0.561733
 7329         h1    252    bbb    H14   7329 0.06123400   1.008000   ; qtot 0.622967
 7330         c3    252    bbb     C8   7330 -0.72423400  12.010000   ; qtot -0.101267
 7331         h1    252    bbb    H15   7331 0.25637600   1.008000   ; qtot 0.155109
 7332         h1    252    bbb    H16   7332 0.25637600   1.008000   ; qtot 0.411485
 7333         c3    252    bbb     C9   7333 -0.72423400  12.010000   ; qtot -0.312749
 7334         h1    252    bbb    H17   7334 0.25637600   1.008000   ; qtot -0.056373
 7335         h1    252    bbb    H18   7335 0.25637600   1.008000   ; qtot 0.200003
 7336         os    252    bbb     O1   7336 -0.20025300  16.000000   ; qtot -0.000250
; residue  253 bbb rtp bbb q -0.0
 7337         n3    253    bbb     N1   7337 -0.59685800  14.010000   ; qtot -0.597108
 7338         c3    253    bbb     C1   7338 0.10137000  12.010000   ; qtot -0.495738
 7339         h1    253    bbb     H1   7339 0.04411300   1.008000   ; qtot -0.451625
 7340         h1    253    bbb     H2   7340 0.04411300   1.008000   ; qtot -0.407512
 7341         c3    253    bbb     C2   7341 0.10137000  12.010000   ; qtot -0.306142
 7342         h1    253    bbb     H3   7342 0.04411300   1.008000   ; qtot -0.262029
 7343         h1    253    bbb     H4   7343 0.04411300   1.008000   ; qtot -0.217916
 7344         c3    253    bbb     C3   7344 -0.00195300  12.010000   ; qtot -0.219869
 7345         h1    253    bbb     H5   7345 0.05064400   1.008000   ; qtot -0.169225
 7346         h1    253    bbb     H6   7346 0.05064400   1.008000   ; qtot -0.118581
 7347         c3    253    bbb     C4   7347 -0.01612100  12.010000   ; qtot -0.134702
 7348         hc    253    bbb     H7   7348 0.04936100   1.008000   ; qtot -0.085341
 7349         hc    253    bbb     H8   7349 0.04936100   1.008000   ; qtot -0.035980
 7350         c3    253    bbb     C5   7350 0.11363000  12.010000   ; qtot 0.077650
 7351         hc    253    bbb     H9   7351 0.06265900   1.008000   ; qtot 0.140309
 7352         hc    253    bbb    H10   7352 0.06265900   1.008000   ; qtot 0.202968
 7353         c3    253    bbb     C6   7353 0.11363000  12.010000   ; qtot 0.316598
 7354         hc    253    bbb    H11   7354 0.06265900   1.008000   ; qtot 0.379257
 7355         hc    253    bbb    H12   7355 0.06265900   1.008000   ; qtot 0.441916
 7356         c3    253    bbb     C7   7356 0.05858200  12.010000   ; qtot 0.500498
 7357         h1    253    bbb    H13   7357 0.06123400   1.008000   ; qtot 0.561732
 7358         h1    253    bbb    H14   7358 0.06123400   1.008000   ; qtot 0.622966
 7359         c3    253    bbb     C8   7359 -0.72423400  12.010000   ; qtot -0.101268
 7360         h1    253    bbb    H15   7360 0.25637600   1.008000   ; qtot 0.155108
 7361         h1    253    bbb    H16   7361 0.25637600   1.008000   ; qtot 0.411484
 7362         c3    253    bbb     C9   7362 -0.72423400  12.010000   ; qtot -0.312750
 7363         h1    253    bbb    H17   7363 0.25637600   1.008000   ; qtot -0.056374
 7364         h1    253    bbb    H18   7364 0.25637600   1.008000   ; qtot 0.200002
 7365         os    253    bbb     O1   7365 -0.20025300  16.000000   ; qtot -0.000251
; residue  254 ccc rtp ccc q 0.0
 7366         c3    254    ccc     C1   7366 -0.33178800  12.010000   ; qtot -0.332039
 7367         c3    254    ccc     C2   7367 0.30606500  12.010000   ; qtot -0.025974
 7368         h1    254    ccc     H1   7368 0.11662300   1.008000   ; qtot 0.090649
 7369         h1    254    ccc     H2   7369 0.11526800   1.008000   ; qtot 0.205917
 7370         c3    254    ccc     C3   7370 0.15592700  12.010000   ; qtot 0.361844
 7371         c3    254    ccc     C4   7371 0.28383300  12.010000   ; qtot 0.645677
 7372         c3    254    ccc     C5   7372 0.32403300  12.010000   ; qtot 0.969710
 7373         h1    254    ccc     H3   7373 0.13386900   1.008000   ; qtot 1.103579
 7374         h1    254    ccc     H4   7374 0.10146700   1.008000   ; qtot 1.205046
 7375         h2    254    ccc     H5   7375 0.10960400   1.008000   ; qtot 1.314650
 7376         os    254    ccc     O1   7376 -0.28650000  16.000000   ; qtot 1.028150
 7377         oh    254    ccc     O2   7377 -0.86012500  16.000000   ; qtot 0.168025
 7378         oh    254    ccc     O3   7378 -0.83772800  16.000000   ; qtot -0.669703
 7379         oh    254    ccc     O4   7379 -0.77449700  16.000000   ; qtot -1.444200
 7380         c3    254    ccc     C6   7380 0.37576500  12.010000   ; qtot -1.068435
 7381         ho    254    ccc     H6   7381 0.53656000   1.008000   ; qtot -0.531875
 7382         ho    254    ccc     H7   7382 0.49492100   1.008000   ; qtot -0.036954
 7383         ho    254    ccc     H8   7383 0.51297200   1.008000   ; qtot 0.476018
 7384         h1    254    ccc     H9   7384 0.05653400   1.008000   ; qtot 0.532552
 7385         h1    254    ccc    H10   7385 0.05653400   1.008000   ; qtot 0.589086
 7386         oh    254    ccc     O5   7386 -0.84113600  16.000000   ; qtot -0.252050
 7387         ho    254    ccc    H11   7387 0.51201600   1.008000   ; qtot 0.259966
 7388         os    254    ccc     O6   7388 -0.26013600  16.000000   ; qtot -0.000170
; residue  255 ccc rtp ccc q 0.0
 7389         c3    255    ccc     C1   7389 -0.33178800  12.010000   ; qtot -0.331958
 7390         c3    255    ccc     C2   7390 0.30606500  12.010000   ; qtot -0.025893
 7391         h1    255    ccc     H1   7391 0.11662300   1.008000   ; qtot 0.090730
 7392         h1    255    ccc     H2   7392 0.11526800   1.008000   ; qtot 0.205998
 7393         c3    255    ccc     C3   7393 0.15592700  12.010000   ; qtot 0.361925
 7394         c3    255    ccc     C4   7394 0.28383300  12.010000   ; qtot 0.645758
 7395         c3    255    ccc     C5   7395 0.32403300  12.010000   ; qtot 0.969791
 7396         h1    255    ccc     H3   7396 0.13386900   1.008000   ; qtot 1.103660
 7397         h1    255    ccc     H4   7397 0.10146700   1.008000   ; qtot 1.205127
 7398         h2    255    ccc     H5   7398 0.10960400   1.008000   ; qtot 1.314731
 7399         os    255    ccc     O1   7399 -0.28650000  16.000000   ; qtot 1.028231
 7400         oh    255    ccc     O2   7400 -0.86012500  16.000000   ; qtot 0.168106
 7401         oh    255    ccc     O3   7401 -0.83772800  16.000000   ; qtot -0.669622
 7402         oh    255    ccc     O4   7402 -0.77449700  16.000000   ; qtot -1.444119
 7403         c3    255    ccc     C6   7403 0.37576500  12.010000   ; qtot -1.068354
 7404         ho    255    ccc     H6   7404 0.53656000   1.008000   ; qtot -0.531794
 7405         ho    255    ccc     H7   7405 0.49492100   1.008000   ; qtot -0.036873
 7406         ho    255    ccc     H8   7406 0.51297200   1.008000   ; qtot 0.476099
 7407         h1    255    ccc     H9   7407 0.05653400   1.008000   ; qtot 0.532633
 7408         h1    255    ccc    H10   7408 0.05653400   1.008000   ; qtot 0.589167
 7409         oh    255    ccc     O5   7409 -0.84113600  16.000000   ; qtot -0.251969
 7410         ho    255    ccc    H11   7410 0.51201600   1.008000   ; qtot 0.260047
 7411         os    255    ccc     O6   7411 -0.26013600  16.000000   ; qtot -0.000089
; residue  256 ccc rtp ccc q 0.0
 7412         c3    256    ccc     C1   7412 -0.33178800  12.010000   ; qtot -0.331877
 7413         c3    256    ccc     C2   7413 0.30606500  12.010000   ; qtot -0.025812
 7414         h1    256    ccc     H1   7414 0.11662300   1.008000   ; qtot 0.090811
 7415         h1    256    ccc     H2   7415 0.11526800   1.008000   ; qtot 0.206079
 7416         c3    256    ccc     C3   7416 0.15592700  12.010000   ; qtot 0.362006
 7417         c3    256    ccc     C4   7417 0.28383300  12.010000   ; qtot 0.645839
 7418         c3    256    ccc     C5   7418 0.32403300  12.010000   ; qtot 0.969872
 7419         h1    256    ccc     H3   7419 0.13386900   1.008000   ; qtot 1.103741
 7420         h1    256    ccc     H4   7420 0.10146700   1.008000   ; qtot 1.205208
 7421         h2    256    ccc     H5   7421 0.10960400   1.008000   ; qtot 1.314812
 7422         os    256    ccc     O1   7422 -0.28650000  16.000000   ; qtot 1.028312
 7423         oh    256    ccc     O2   7423 -0.86012500  16.000000   ; qtot 0.168187
 7424         oh    256    ccc     O3   7424 -0.83772800  16.000000   ; qtot -0.669541
 7425         oh    256    ccc     O4   7425 -0.77449700  16.000000   ; qtot -1.444038
 7426         c3    256    ccc     C6   7426 0.37576500  12.010000   ; qtot -1.068273
 7427         ho    256    ccc     H6   7427 0.53656000   1.008000   ; qtot -0.531713
 7428         ho    256    ccc     H7   7428 0.49492100   1.008000   ; qtot -0.036792
 7429         ho    256    ccc     H8   7429 0.51297200   1.008000   ; qtot 0.476180
 7430         h1    256    ccc     H9   7430 0.05653400   1.008000   ; qtot 0.532714
 7431         h1    256    ccc    H10   7431 0.05653400   1.008000   ; qtot 0.589248
 7432         oh    256    ccc     O5   7432 -0.84113600  16.000000   ; qtot -0.251888
 7433         ho    256    ccc    H11   7433 0.51201600   1.008000   ; qtot 0.260128
 7434         os    256    ccc     O6   7434 -0.26013600  16.000000   ; qtot -0.000008
; residue  257 ccc rtp ccc q 0.0
 7435         c3    257    ccc     C1   7435 -0.33178800  12.010000   ; qtot -0.331796
 7436         c3    257    ccc     C2   7436 0.30606500  12.010000   ; qtot -0.025731
 7437         h1    257    ccc     H1   7437 0.11662300   1.008000   ; qtot 0.090892
 7438         h1    257    ccc     H2   7438 0.11526800   1.008000   ; qtot 0.206160
 7439         c3    257    ccc     C3   7439 0.15592700  12.010000   ; qtot 0.362087
 7440         c3    257    ccc     C4   7440 0.28383300  12.010000   ; qtot 0.645920
 7441         c3    257    ccc     C5   7441 0.32403300  12.010000   ; qtot 0.969953
 7442         h1    257    ccc     H3   7442 0.13386900   1.008000   ; qtot 1.103822
 7443         h1    257    ccc     H4   7443 0.10146700   1.008000   ; qtot 1.205289
 7444         h2    257    ccc     H5   7444 0.10960400   1.008000   ; qtot 1.314893
 7445         os    257    ccc     O1   7445 -0.28650000  16.000000   ; qtot 1.028393
 7446         oh    257    ccc     O2   7446 -0.86012500  16.000000   ; qtot 0.168268
 7447         oh    257    ccc     O3   7447 -0.83772800  16.000000   ; qtot -0.669460
 7448         oh    257    ccc     O4   7448 -0.77449700  16.000000   ; qtot -1.443957
 7449         c3    257    ccc     C6   7449 0.37576500  12.010000   ; qtot -1.068192
 7450         ho    257    ccc     H6   7450 0.53656000   1.008000   ; qtot -0.531632
 7451         ho    257    ccc     H7   7451 0.49492100   1.008000   ; qtot -0.036711
 7452         ho    257    ccc     H8   7452 0.51297200   1.008000   ; qtot 0.476261
 7453         h1    257    ccc     H9   7453 0.05653400   1.008000   ; qtot 0.532795
 7454         h1    257    ccc    H10   7454 0.05653400   1.008000   ; qtot 0.589329
 7455         oh    257    ccc     O5   7455 -0.84113600  16.000000   ; qtot -0.251807
 7456         ho    257    ccc    H11   7456 0.51201600   1.008000   ; qtot 0.260209
 7457         os    257    ccc     O6   7457 -0.26013600  16.000000   ; qtot 0.000073
; residue  258 ccc rtp ccc q 0.0
 7458         c3    258    ccc     C1   7458 -0.33178800  12.010000   ; qtot -0.331715
 7459         c3    258    ccc     C2   7459 0.30606500  12.010000   ; qtot -0.025650
 7460         h1    258    ccc     H1   7460 0.11662300   1.008000   ; qtot 0.090973
 7461         h1    258    ccc     H2   7461 0.11526800   1.008000   ; qtot 0.206241
 7462         c3    258    ccc     C3   7462 0.15592700  12.010000   ; qtot 0.362168
 7463         c3    258    ccc     C4   7463 0.28383300  12.010000   ; qtot 0.646001
 7464         c3    258    ccc     C5   7464 0.32403300  12.010000   ; qtot 0.970034
 7465         h1    258    ccc     H3   7465 0.13386900   1.008000   ; qtot 1.103903
 7466         h1    258    ccc     H4   7466 0.10146700   1.008000   ; qtot 1.205370
 7467         h2    258    ccc     H5   7467 0.10960400   1.008000   ; qtot 1.314974
 7468         os    258    ccc     O1   7468 -0.28650000  16.000000   ; qtot 1.028474
 7469         oh    258    ccc     O2   7469 -0.86012500  16.000000   ; qtot 0.168349
 7470         oh    258    ccc     O3   7470 -0.83772800  16.000000   ; qtot -0.669379
 7471         oh    258    ccc     O4   7471 -0.77449700  16.000000   ; qtot -1.443876
 7472         c3    258    ccc     C6   7472 0.37576500  12.010000   ; qtot -1.068111
 7473         ho    258    ccc     H6   7473 0.53656000   1.008000   ; qtot -0.531551
 7474         ho    258    ccc     H7   7474 0.49492100   1.008000   ; qtot -0.036630
 7475         ho    258    ccc     H8   7475 0.51297200   1.008000   ; qtot 0.476342
 7476         h1    258    ccc     H9   7476 0.05653400   1.008000   ; qtot 0.532876
 7477         h1    258    ccc    H10   7477 0.05653400   1.008000   ; qtot 0.589410
 7478         oh    258    ccc     O5   7478 -0.84113600  16.000000   ; qtot -0.251726
 7479         ho    258    ccc    H11   7479 0.51201600   1.008000   ; qtot 0.260290
 7480         os    258    ccc     O6   7480 -0.26013600  16.000000   ; qtot 0.000154
; residue  259 ccc rtp ccc q 0.0
 7481         c3    259    ccc     C1   7481 -0.33178800  12.010000   ; qtot -0.331634
 7482         c3    259    ccc     C2   7482 0.30606500  12.010000   ; qtot -0.025569
 7483         h1    259    ccc     H1   7483 0.11662300   1.008000   ; qtot 0.091054
 7484         h1    259    ccc     H2   7484 0.11526800   1.008000   ; qtot 0.206322
 7485         c3    259    ccc     C3   7485 0.15592700  12.010000   ; qtot 0.362249
 7486         c3    259    ccc     C4   7486 0.28383300  12.010000   ; qtot 0.646082
 7487         c3    259    ccc     C5   7487 0.32403300  12.010000   ; qtot 0.970115
 7488         h1    259    ccc     H3   7488 0.13386900   1.008000   ; qtot 1.103984
 7489         h1    259    ccc     H4   7489 0.10146700   1.008000   ; qtot 1.205451
 7490         h2    259    ccc     H5   7490 0.10960400   1.008000   ; qtot 1.315055
 7491         os    259    ccc     O1   7491 -0.28650000  16.000000   ; qtot 1.028555
 7492         oh    259    ccc     O2   7492 -0.86012500  16.000000   ; qtot 0.168430
 7493         oh    259    ccc     O3   7493 -0.83772800  16.000000   ; qtot -0.669298
 7494         oh    259    ccc     O4   7494 -0.77449700  16.000000   ; qtot -1.443795
 7495         c3    259    ccc     C6   7495 0.37576500  12.010000   ; qtot -1.068030
 7496         ho    259    ccc     H6   7496 0.53656000   1.008000   ; qtot -0.531470
 7497         ho    259    ccc     H7   7497 0.49492100   1.008000   ; qtot -0.036549
 7498         ho    259    ccc     H8   7498 0.51297200   1.008000   ; qtot 0.476423
 7499         h1    259    ccc     H9   7499 0.05653400   1.008000   ; qtot 0.532957
 7500         h1    259    ccc    H10   7500 0.05653400   1.008000   ; qtot 0.589491
 7501         oh    259    ccc     O5   7501 -0.84113600  16.000000   ; qtot -0.251645
 7502         ho    259    ccc    H11   7502 0.51201600   1.008000   ; qtot 0.260371
 7503         os    259    ccc     O6   7503 -0.26013600  16.000000   ; qtot 0.000235
; residue  260 ccc rtp ccc q 0.0
 7504         c3    260    ccc     C1   7504 -0.33178800  12.010000   ; qtot -0.331553
 7505         c3    260    ccc     C2   7505 0.30606500  12.010000   ; qtot -0.025488
 7506         h1    260    ccc     H1   7506 0.11662300   1.008000   ; qtot 0.091135
 7507         h1    260    ccc     H2   7507 0.11526800   1.008000   ; qtot 0.206403
 7508         c3    260    ccc     C3   7508 0.15592700  12.010000   ; qtot 0.362330
 7509         c3    260    ccc     C4   7509 0.28383300  12.010000   ; qtot 0.646163
 7510         c3    260    ccc     C5   7510 0.32403300  12.010000   ; qtot 0.970196
 7511         h1    260    ccc     H3   7511 0.13386900   1.008000   ; qtot 1.104065
 7512         h1    260    ccc     H4   7512 0.10146700   1.008000   ; qtot 1.205532
 7513         h2    260    ccc     H5   7513 0.10960400   1.008000   ; qtot 1.315136
 7514         os    260    ccc     O1   7514 -0.28650000  16.000000   ; qtot 1.028636
 7515         oh    260    ccc     O2   7515 -0.86012500  16.000000   ; qtot 0.168511
 7516         oh    260    ccc     O3   7516 -0.83772800  16.000000   ; qtot -0.669217
 7517         oh    260    ccc     O4   7517 -0.77449700  16.000000   ; qtot -1.443714
 7518         c3    260    ccc     C6   7518 0.37576500  12.010000   ; qtot -1.067949
 7519         ho    260    ccc     H6   7519 0.53656000   1.008000   ; qtot -0.531389
 7520         ho    260    ccc     H7   7520 0.49492100   1.008000   ; qtot -0.036468
 7521         ho    260    ccc     H8   7521 0.51297200   1.008000   ; qtot 0.476504
 7522         h1    260    ccc     H9   7522 0.05653400   1.008000   ; qtot 0.533038
 7523         h1    260    ccc    H10   7523 0.05653400   1.008000   ; qtot 0.589572
 7524         oh    260    ccc     O5   7524 -0.84113600  16.000000   ; qtot -0.251564
 7525         ho    260    ccc    H11   7525 0.51201600   1.008000   ; qtot 0.260452
 7526         os    260    ccc     O6   7526 -0.26013600  16.000000   ; qtot 0.000316
; residue  261 ccc rtp ccc q 0.0
 7527         c3    261    ccc     C1   7527 -0.33178800  12.010000   ; qtot -0.331472
 7528         c3    261    ccc     C2   7528 0.30606500  12.010000   ; qtot -0.025407
 7529         h1    261    ccc     H1   7529 0.11662300   1.008000   ; qtot 0.091216
 7530         h1    261    ccc     H2   7530 0.11526800   1.008000   ; qtot 0.206484
 7531         c3    261    ccc     C3   7531 0.15592700  12.010000   ; qtot 0.362411
 7532         c3    261    ccc     C4   7532 0.28383300  12.010000   ; qtot 0.646244
 7533         c3    261    ccc     C5   7533 0.32403300  12.010000   ; qtot 0.970277
 7534         h1    261    ccc     H3   7534 0.13386900   1.008000   ; qtot 1.104146
 7535         h1    261    ccc     H4   7535 0.10146700   1.008000   ; qtot 1.205613
 7536         h2    261    ccc     H5   7536 0.10960400   1.008000   ; qtot 1.315217
 7537         os    261    ccc     O1   7537 -0.28650000  16.000000   ; qtot 1.028717
 7538         oh    261    ccc     O2   7538 -0.86012500  16.000000   ; qtot 0.168592
 7539         oh    261    ccc     O3   7539 -0.83772800  16.000000   ; qtot -0.669136
 7540         oh    261    ccc     O4   7540 -0.77449700  16.000000   ; qtot -1.443633
 7541         c3    261    ccc     C6   7541 0.37576500  12.010000   ; qtot -1.067868
 7542         ho    261    ccc     H6   7542 0.53656000   1.008000   ; qtot -0.531308
 7543         ho    261    ccc     H7   7543 0.49492100   1.008000   ; qtot -0.036387
 7544         ho    261    ccc     H8   7544 0.51297200   1.008000   ; qtot 0.476585
 7545         h1    261    ccc     H9   7545 0.05653400   1.008000   ; qtot 0.533119
 7546         h1    261    ccc    H10   7546 0.05653400   1.008000   ; qtot 0.589653
 7547         oh    261    ccc     O5   7547 -0.84113600  16.000000   ; qtot -0.251483
 7548         ho    261    ccc    H11   7548 0.51201600   1.008000   ; qtot 0.260533
 7549         os    261    ccc     O6   7549 -0.26013600  16.000000   ; qtot 0.000397
; residue  262 ccc rtp ccc q 0.0
 7550         c3    262    ccc     C1   7550 -0.33178800  12.010000   ; qtot -0.331391
 7551         c3    262    ccc     C2   7551 0.30606500  12.010000   ; qtot -0.025326
 7552         h1    262    ccc     H1   7552 0.11662300   1.008000   ; qtot 0.091297
 7553         h1    262    ccc     H2   7553 0.11526800   1.008000   ; qtot 0.206565
 7554         c3    262    ccc     C3   7554 0.15592700  12.010000   ; qtot 0.362492
 7555         c3    262    ccc     C4   7555 0.28383300  12.010000   ; qtot 0.646325
 7556         c3    262    ccc     C5   7556 0.32403300  12.010000   ; qtot 0.970358
 7557         h1    262    ccc     H3   7557 0.13386900   1.008000   ; qtot 1.104227
 7558         h1    262    ccc     H4   7558 0.10146700   1.008000   ; qtot 1.205694
 7559         h2    262    ccc     H5   7559 0.10960400   1.008000   ; qtot 1.315298
 7560         os    262    ccc     O1   7560 -0.28650000  16.000000   ; qtot 1.028798
 7561         oh    262    ccc     O2   7561 -0.86012500  16.000000   ; qtot 0.168673
 7562         oh    262    ccc     O3   7562 -0.83772800  16.000000   ; qtot -0.669055
 7563         oh    262    ccc     O4   7563 -0.77449700  16.000000   ; qtot -1.443552
 7564         c3    262    ccc     C6   7564 0.37576500  12.010000   ; qtot -1.067787
 7565         ho    262    ccc     H6   7565 0.53656000   1.008000   ; qtot -0.531227
 7566         ho    262    ccc     H7   7566 0.49492100   1.008000   ; qtot -0.036306
 7567         ho    262    ccc     H8   7567 0.51297200   1.008000   ; qtot 0.476666
 7568         h1    262    ccc     H9   7568 0.05653400   1.008000   ; qtot 0.533200
 7569         h1    262    ccc    H10   7569 0.05653400   1.008000   ; qtot 0.589734
 7570         oh    262    ccc     O5   7570 -0.84113600  16.000000   ; qtot -0.251402
 7571         ho    262    ccc    H11   7571 0.51201600   1.008000   ; qtot 0.260614
 7572         os    262    ccc     O6   7572 -0.26013600  16.000000   ; qtot 0.000478
; residue  263 ccc rtp ccc q 0.0
 7573         c3    263    ccc     C1   7573 -0.33178800  12.010000   ; qtot -0.331310
 7574         c3    263    ccc     C2   7574 0.30606500  12.010000   ; qtot -0.025245
 7575         h1    263    ccc     H1   7575 0.11662300   1.008000   ; qtot 0.091378
 7576         h1    263    ccc     H2   7576 0.11526800   1.008000   ; qtot 0.206646
 7577         c3    263    ccc     C3   7577 0.15592700  12.010000   ; qtot 0.362573
 7578         c3    263    ccc     C4   7578 0.28383300  12.010000   ; qtot 0.646406
 7579         c3    263    ccc     C5   7579 0.32403300  12.010000   ; qtot 0.970439
 7580         h1    263    ccc     H3   7580 0.13386900   1.008000   ; qtot 1.104308
 7581         h1    263    ccc     H4   7581 0.10146700   1.008000   ; qtot 1.205775
 7582         h2    263    ccc     H5   7582 0.10960400   1.008000   ; qtot 1.315379
 7583         os    263    ccc     O1   7583 -0.28650000  16.000000   ; qtot 1.028879
 7584         oh    263    ccc     O2   7584 -0.86012500  16.000000   ; qtot 0.168754
 7585         oh    263    ccc     O3   7585 -0.83772800  16.000000   ; qtot -0.668974
 7586         oh    263    ccc     O4   7586 -0.77449700  16.000000   ; qtot -1.443471
 7587         c3    263    ccc     C6   7587 0.37576500  12.010000   ; qtot -1.067706
 7588         ho    263    ccc     H6   7588 0.53656000   1.008000   ; qtot -0.531146
 7589         ho    263    ccc     H7   7589 0.49492100   1.008000   ; qtot -0.036225
 7590         ho    263    ccc     H8   7590 0.51297200   1.008000   ; qtot 0.476747
 7591         h1    263    ccc     H9   7591 0.05653400   1.008000   ; qtot 0.533281
 7592         h1    263    ccc    H10   7592 0.05653400   1.008000   ; qtot 0.589815
 7593         oh    263    ccc     O5   7593 -0.84113600  16.000000   ; qtot -0.251321
 7594         ho    263    ccc    H11   7594 0.51201600   1.008000   ; qtot 0.260695
 7595         os    263    ccc     O6   7595 -0.26013600  16.000000   ; qtot 0.000559
; residue  264 ccc rtp ccc q 0.0
 7596         c3    264    ccc     C1   7596 -0.33178800  12.010000   ; qtot -0.331229
 7597         c3    264    ccc     C2   7597 0.30606500  12.010000   ; qtot -0.025164
 7598         h1    264    ccc     H1   7598 0.11662300   1.008000   ; qtot 0.091459
 7599         h1    264    ccc     H2   7599 0.11526800   1.008000   ; qtot 0.206727
 7600         c3    264    ccc     C3   7600 0.15592700  12.010000   ; qtot 0.362654
 7601         c3    264    ccc     C4   7601 0.28383300  12.010000   ; qtot 0.646487
 7602         c3    264    ccc     C5   7602 0.32403300  12.010000   ; qtot 0.970520
 7603         h1    264    ccc     H3   7603 0.13386900   1.008000   ; qtot 1.104389
 7604         h1    264    ccc     H4   7604 0.10146700   1.008000   ; qtot 1.205856
 7605         h2    264    ccc     H5   7605 0.10960400   1.008000   ; qtot 1.315460
 7606         os    264    ccc     O1   7606 -0.28650000  16.000000   ; qtot 1.028960
 7607         oh    264    ccc     O2   7607 -0.86012500  16.000000   ; qtot 0.168835
 7608         oh    264    ccc     O3   7608 -0.83772800  16.000000   ; qtot -0.668893
 7609         oh    264    ccc     O4   7609 -0.77449700  16.000000   ; qtot -1.443390
 7610         c3    264    ccc     C6   7610 0.37576500  12.010000   ; qtot -1.067625
 7611         ho    264    ccc     H6   7611 0.53656000   1.008000   ; qtot -0.531065
 7612         ho    264    ccc     H7   7612 0.49492100   1.008000   ; qtot -0.036144
 7613         ho    264    ccc     H8   7613 0.51297200   1.008000   ; qtot 0.476828
 7614         h1    264    ccc     H9   7614 0.05653400   1.008000   ; qtot 0.533362
 7615         h1    264    ccc    H10   7615 0.05653400   1.008000   ; qtot 0.589896
 7616         oh    264    ccc     O5   7616 -0.84113600  16.000000   ; qtot -0.251240
 7617         ho    264    ccc    H11   7617 0.51201600   1.008000   ; qtot 0.260776
 7618         os    264    ccc     O6   7618 -0.26013600  16.000000   ; qtot 0.000640
; residue  265 ccc rtp ccc q 0.0
 7619         c3    265    ccc     C1   7619 -0.33178800  12.010000   ; qtot -0.331148
 7620         c3    265    ccc     C2   7620 0.30606500  12.010000   ; qtot -0.025083
 7621         h1    265    ccc     H1   7621 0.11662300   1.008000   ; qtot 0.091540
 7622         h1    265    ccc     H2   7622 0.11526800   1.008000   ; qtot 0.206808
 7623         c3    265    ccc     C3   7623 0.15592700  12.010000   ; qtot 0.362735
 7624         c3    265    ccc     C4   7624 0.28383300  12.010000   ; qtot 0.646568
 7625         c3    265    ccc     C5   7625 0.32403300  12.010000   ; qtot 0.970601
 7626         h1    265    ccc     H3   7626 0.13386900   1.008000   ; qtot 1.104470
 7627         h1    265    ccc     H4   7627 0.10146700   1.008000   ; qtot 1.205937
 7628         h2    265    ccc     H5   7628 0.10960400   1.008000   ; qtot 1.315541
 7629         os    265    ccc     O1   7629 -0.28650000  16.000000   ; qtot 1.029041
 7630         oh    265    ccc     O2   7630 -0.86012500  16.000000   ; qtot 0.168916
 7631         oh    265    ccc     O3   7631 -0.83772800  16.000000   ; qtot -0.668812
 7632         oh    265    ccc     O4   7632 -0.77449700  16.000000   ; qtot -1.443309
 7633         c3    265    ccc     C6   7633 0.37576500  12.010000   ; qtot -1.067544
 7634         ho    265    ccc     H6   7634 0.53656000   1.008000   ; qtot -0.530984
 7635         ho    265    ccc     H7   7635 0.49492100   1.008000   ; qtot -0.036063
 7636         ho    265    ccc     H8   7636 0.51297200   1.008000   ; qtot 0.476909
 7637         h1    265    ccc     H9   7637 0.05653400   1.008000   ; qtot 0.533443
 7638         h1    265    ccc    H10   7638 0.05653400   1.008000   ; qtot 0.589977
 7639         oh    265    ccc     O5   7639 -0.84113600  16.000000   ; qtot -0.251159
 7640         ho    265    ccc    H11   7640 0.51201600   1.008000   ; qtot 0.260857
 7641         os    265    ccc     O6   7641 -0.26013600  16.000000   ; qtot 0.000721
; residue  266 ccc rtp ccc q 0.0
 7642         c3    266    ccc     C1   7642 -0.33178800  12.010000   ; qtot -0.331067
 7643         c3    266    ccc     C2   7643 0.30606500  12.010000   ; qtot -0.025002
 7644         h1    266    ccc     H1   7644 0.11662300   1.008000   ; qtot 0.091621
 7645         h1    266    ccc     H2   7645 0.11526800   1.008000   ; qtot 0.206889
 7646         c3    266    ccc     C3   7646 0.15592700  12.010000   ; qtot 0.362816
 7647         c3    266    ccc     C4   7647 0.28383300  12.010000   ; qtot 0.646649
 7648         c3    266    ccc     C5   7648 0.32403300  12.010000   ; qtot 0.970682
 7649         h1    266    ccc     H3   7649 0.13386900   1.008000   ; qtot 1.104551
 7650         h1    266    ccc     H4   7650 0.10146700   1.008000   ; qtot 1.206018
 7651         h2    266    ccc     H5   7651 0.10960400   1.008000   ; qtot 1.315622
 7652         os    266    ccc     O1   7652 -0.28650000  16.000000   ; qtot 1.029122
 7653         oh    266    ccc     O2   7653 -0.86012500  16.000000   ; qtot 0.168997
 7654         oh    266    ccc     O3   7654 -0.83772800  16.000000   ; qtot -0.668731
 7655         oh    266    ccc     O4   7655 -0.77449700  16.000000   ; qtot -1.443228
 7656         c3    266    ccc     C6   7656 0.37576500  12.010000   ; qtot -1.067463
 7657         ho    266    ccc     H6   7657 0.53656000   1.008000   ; qtot -0.530903
 7658         ho    266    ccc     H7   7658 0.49492100   1.008000   ; qtot -0.035982
 7659         ho    266    ccc     H8   7659 0.51297200   1.008000   ; qtot 0.476990
 7660         h1    266    ccc     H9   7660 0.05653400   1.008000   ; qtot 0.533524
 7661         h1    266    ccc    H10   7661 0.05653400   1.008000   ; qtot 0.590058
 7662         oh    266    ccc     O5   7662 -0.84113600  16.000000   ; qtot -0.251078
 7663         ho    266    ccc    H11   7663 0.51201600   1.008000   ; qtot 0.260938
 7664         os    266    ccc     O6   7664 -0.26013600  16.000000   ; qtot 0.000802
; residue  267 ccc rtp ccc q 0.0
 7665         c3    267    ccc     C1   7665 -0.33178800  12.010000   ; qtot -0.330986
 7666         c3    267    ccc     C2   7666 0.30606500  12.010000   ; qtot -0.024921
 7667         h1    267    ccc     H1   7667 0.11662300   1.008000   ; qtot 0.091702
 7668         h1    267    ccc     H2   7668 0.11526800   1.008000   ; qtot 0.206970
 7669         c3    267    ccc     C3   7669 0.15592700  12.010000   ; qtot 0.362897
 7670         c3    267    ccc     C4   7670 0.28383300  12.010000   ; qtot 0.646730
 7671         c3    267    ccc     C5   7671 0.32403300  12.010000   ; qtot 0.970763
 7672         h1    267    ccc     H3   7672 0.13386900   1.008000   ; qtot 1.104632
 7673         h1    267    ccc     H4   7673 0.10146700   1.008000   ; qtot 1.206099
 7674         h2    267    ccc     H5   7674 0.10960400   1.008000   ; qtot 1.315703
 7675         os    267    ccc     O1   7675 -0.28650000  16.000000   ; qtot 1.029203
 7676         oh    267    ccc     O2   7676 -0.86012500  16.000000   ; qtot 0.169078
 7677         oh    267    ccc     O3   7677 -0.83772800  16.000000   ; qtot -0.668650
 7678         oh    267    ccc     O4   7678 -0.77449700  16.000000   ; qtot -1.443147
 7679         c3    267    ccc     C6   7679 0.37576500  12.010000   ; qtot -1.067382
 7680         ho    267    ccc     H6   7680 0.53656000   1.008000   ; qtot -0.530822
 7681         ho    267    ccc     H7   7681 0.49492100   1.008000   ; qtot -0.035901
 7682         ho    267    ccc     H8   7682 0.51297200   1.008000   ; qtot 0.477071
 7683         h1    267    ccc     H9   7683 0.05653400   1.008000   ; qtot 0.533605
 7684         h1    267    ccc    H10   7684 0.05653400   1.008000   ; qtot 0.590139
 7685         oh    267    ccc     O5   7685 -0.84113600  16.000000   ; qtot -0.250997
 7686         ho    267    ccc    H11   7686 0.51201600   1.008000   ; qtot 0.261019
 7687         os    267    ccc     O6   7687 -0.26013600  16.000000   ; qtot 0.000883
; residue  268 ccc rtp ccc q 0.0
 7688         c3    268    ccc     C1   7688 -0.33178800  12.010000   ; qtot -0.330905
 7689         c3    268    ccc     C2   7689 0.30606500  12.010000   ; qtot -0.024840
 7690         h1    268    ccc     H1   7690 0.11662300   1.008000   ; qtot 0.091783
 7691         h1    268    ccc     H2   7691 0.11526800   1.008000   ; qtot 0.207051
 7692         c3    268    ccc     C3   7692 0.15592700  12.010000   ; qtot 0.362978
 7693         c3    268    ccc     C4   7693 0.28383300  12.010000   ; qtot 0.646811
 7694         c3    268    ccc     C5   7694 0.32403300  12.010000   ; qtot 0.970844
 7695         h1    268    ccc     H3   7695 0.13386900   1.008000   ; qtot 1.104713
 7696         h1    268    ccc     H4   7696 0.10146700   1.008000   ; qtot 1.206180
 7697         h2    268    ccc     H5   7697 0.10960400   1.008000   ; qtot 1.315784
 7698         os    268    ccc     O1   7698 -0.28650000  16.000000   ; qtot 1.029284
 7699         oh    268    ccc     O2   7699 -0.86012500  16.000000   ; qtot 0.169159
 7700         oh    268    ccc     O3   7700 -0.83772800  16.000000   ; qtot -0.668569
 7701         oh    268    ccc     O4   7701 -0.77449700  16.000000   ; qtot -1.443066
 7702         c3    268    ccc     C6   7702 0.37576500  12.010000   ; qtot -1.067301
 7703         ho    268    ccc     H6   7703 0.53656000   1.008000   ; qtot -0.530741
 7704         ho    268    ccc     H7   7704 0.49492100   1.008000   ; qtot -0.035820
 7705         ho    268    ccc     H8   7705 0.51297200   1.008000   ; qtot 0.477152
 7706         h1    268    ccc     H9   7706 0.05653400   1.008000   ; qtot 0.533686
 7707         h1    268    ccc    H10   7707 0.05653400   1.008000   ; qtot 0.590220
 7708         oh    268    ccc     O5   7708 -0.84113600  16.000000   ; qtot -0.250916
 7709         ho    268    ccc    H11   7709 0.51201600   1.008000   ; qtot 0.261100
 7710         os    268    ccc     O6   7710 -0.26013600  16.000000   ; qtot 0.000964
; residue  269 ccc rtp ccc q 0.0
 7711         c3    269    ccc     C1   7711 -0.33178800  12.010000   ; qtot -0.330824
 7712         c3    269    ccc     C2   7712 0.30606500  12.010000   ; qtot -0.024759
 7713         h1    269    ccc     H1   7713 0.11662300   1.008000   ; qtot 0.091864
 7714         h1    269    ccc     H2   7714 0.11526800   1.008000   ; qtot 0.207132
 7715         c3    269    ccc     C3   7715 0.15592700  12.010000   ; qtot 0.363059
 7716         c3    269    ccc     C4   7716 0.28383300  12.010000   ; qtot 0.646892
 7717         c3    269    ccc     C5   7717 0.32403300  12.010000   ; qtot 0.970925
 7718         h1    269    ccc     H3   7718 0.13386900   1.008000   ; qtot 1.104794
 7719         h1    269    ccc     H4   7719 0.10146700   1.008000   ; qtot 1.206261
 7720         h2    269    ccc     H5   7720 0.10960400   1.008000   ; qtot 1.315865
 7721         os    269    ccc     O1   7721 -0.28650000  16.000000   ; qtot 1.029365
 7722         oh    269    ccc     O2   7722 -0.86012500  16.000000   ; qtot 0.169240
 7723         oh    269    ccc     O3   7723 -0.83772800  16.000000   ; qtot -0.668488
 7724         oh    269    ccc     O4   7724 -0.77449700  16.000000   ; qtot -1.442985
 7725         c3    269    ccc     C6   7725 0.37576500  12.010000   ; qtot -1.067220
 7726         ho    269    ccc     H6   7726 0.53656000   1.008000   ; qtot -0.530660
 7727         ho    269    ccc     H7   7727 0.49492100   1.008000   ; qtot -0.035739
 7728         ho    269    ccc     H8   7728 0.51297200   1.008000   ; qtot 0.477233
 7729         h1    269    ccc     H9   7729 0.05653400   1.008000   ; qtot 0.533767
 7730         h1    269    ccc    H10   7730 0.05653400   1.008000   ; qtot 0.590301
 7731         oh    269    ccc     O5   7731 -0.84113600  16.000000   ; qtot -0.250835
 7732         ho    269    ccc    H11   7732 0.51201600   1.008000   ; qtot 0.261181
 7733         os    269    ccc     O6   7733 -0.26013600  16.000000   ; qtot 0.001045
; residue  270 ccc rtp ccc q 0.0
 7734         c3    270    ccc     C1   7734 -0.33178800  12.010000   ; qtot -0.330743
 7735         c3    270    ccc     C2   7735 0.30606500  12.010000   ; qtot -0.024678
 7736         h1    270    ccc     H1   7736 0.11662300   1.008000   ; qtot 0.091945
 7737         h1    270    ccc     H2   7737 0.11526800   1.008000   ; qtot 0.207213
 7738         c3    270    ccc     C3   7738 0.15592700  12.010000   ; qtot 0.363140
 7739         c3    270    ccc     C4   7739 0.28383300  12.010000   ; qtot 0.646973
 7740         c3    270    ccc     C5   7740 0.32403300  12.010000   ; qtot 0.971006
 7741         h1    270    ccc     H3   7741 0.13386900   1.008000   ; qtot 1.104875
 7742         h1    270    ccc     H4   7742 0.10146700   1.008000   ; qtot 1.206342
 7743         h2    270    ccc     H5   7743 0.10960400   1.008000   ; qtot 1.315946
 7744         os    270    ccc     O1   7744 -0.28650000  16.000000   ; qtot 1.029446
 7745         oh    270    ccc     O2   7745 -0.86012500  16.000000   ; qtot 0.169321
 7746         oh    270    ccc     O3   7746 -0.83772800  16.000000   ; qtot -0.668407
 7747         oh    270    ccc     O4   7747 -0.77449700  16.000000   ; qtot -1.442904
 7748         c3    270    ccc     C6   7748 0.37576500  12.010000   ; qtot -1.067139
 7749         ho    270    ccc     H6   7749 0.53656000   1.008000   ; qtot -0.530579
 7750         ho    270    ccc     H7   7750 0.49492100   1.008000   ; qtot -0.035658
 7751         ho    270    ccc     H8   7751 0.51297200   1.008000   ; qtot 0.477314
 7752         h1    270    ccc     H9   7752 0.05653400   1.008000   ; qtot 0.533848
 7753         h1    270    ccc    H10   7753 0.05653400   1.008000   ; qtot 0.590382
 7754         oh    270    ccc     O5   7754 -0.84113600  16.000000   ; qtot -0.250754
 7755         ho    270    ccc    H11   7755 0.51201600   1.008000   ; qtot 0.261262
 7756         os    270    ccc     O6   7756 -0.26013600  16.000000   ; qtot 0.001126
; residue  271 ccc rtp ccc q 0.0
 7757         c3    271    ccc     C1   7757 -0.33178800  12.010000   ; qtot -0.330662
 7758         c3    271    ccc     C2   7758 0.30606500  12.010000   ; qtot -0.024597
 7759         h1    271    ccc     H1   7759 0.11662300   1.008000   ; qtot 0.092026
 7760         h1    271    ccc     H2   7760 0.11526800   1.008000   ; qtot 0.207294
 7761         c3    271    ccc     C3   7761 0.15592700  12.010000   ; qtot 0.363221
 7762         c3    271    ccc     C4   7762 0.28383300  12.010000   ; qtot 0.647054
 7763         c3    271    ccc     C5   7763 0.32403300  12.010000   ; qtot 0.971087
 7764         h1    271    ccc     H3   7764 0.13386900   1.008000   ; qtot 1.104956
 7765         h1    271    ccc     H4   7765 0.10146700   1.008000   ; qtot 1.206423
 7766         h2    271    ccc     H5   7766 0.10960400   1.008000   ; qtot 1.316027
 7767         os    271    ccc     O1   7767 -0.28650000  16.000000   ; qtot 1.029527
 7768         oh    271    ccc     O2   7768 -0.86012500  16.000000   ; qtot 0.169402
 7769         oh    271    ccc     O3   7769 -0.83772800  16.000000   ; qtot -0.668326
 7770         oh    271    ccc     O4   7770 -0.77449700  16.000000   ; qtot -1.442823
 7771         c3    271    ccc     C6   7771 0.37576500  12.010000   ; qtot -1.067058
 7772         ho    271    ccc     H6   7772 0.53656000   1.008000   ; qtot -0.530498
 7773         ho    271    ccc     H7   7773 0.49492100   1.008000   ; qtot -0.035577
 7774         ho    271    ccc     H8   7774 0.51297200   1.008000   ; qtot 0.477395
 7775         h1    271    ccc     H9   7775 0.05653400   1.008000   ; qtot 0.533929
 7776         h1    271    ccc    H10   7776 0.05653400   1.008000   ; qtot 0.590463
 7777         oh    271    ccc     O5   7777 -0.84113600  16.000000   ; qtot -0.250673
 7778         ho    271    ccc    H11   7778 0.51201600   1.008000   ; qtot 0.261343
 7779         os    271    ccc     O6   7779 -0.26013600  16.000000   ; qtot 0.001207
; residue  272 ccc rtp ccc q 0.0
 7780         c3    272    ccc     C1   7780 -0.33178800  12.010000   ; qtot -0.330581
 7781         c3    272    ccc     C2   7781 0.30606500  12.010000   ; qtot -0.024516
 7782         h1    272    ccc     H1   7782 0.11662300   1.008000   ; qtot 0.092107
 7783         h1    272    ccc     H2   7783 0.11526800   1.008000   ; qtot 0.207375
 7784         c3    272    ccc     C3   7784 0.15592700  12.010000   ; qtot 0.363302
 7785         c3    272    ccc     C4   7785 0.28383300  12.010000   ; qtot 0.647135
 7786         c3    272    ccc     C5   7786 0.32403300  12.010000   ; qtot 0.971168
 7787         h1    272    ccc     H3   7787 0.13386900   1.008000   ; qtot 1.105037
 7788         h1    272    ccc     H4   7788 0.10146700   1.008000   ; qtot 1.206504
 7789         h2    272    ccc     H5   7789 0.10960400   1.008000   ; qtot 1.316108
 7790         os    272    ccc     O1   7790 -0.28650000  16.000000   ; qtot 1.029608
 7791         oh    272    ccc     O2   7791 -0.86012500  16.000000   ; qtot 0.169483
 7792         oh    272    ccc     O3   7792 -0.83772800  16.000000   ; qtot -0.668245
 7793         oh    272    ccc     O4   7793 -0.77449700  16.000000   ; qtot -1.442742
 7794         c3    272    ccc     C6   7794 0.37576500  12.010000   ; qtot -1.066977
 7795         ho    272    ccc     H6   7795 0.53656000   1.008000   ; qtot -0.530417
 7796         ho    272    ccc     H7   7796 0.49492100   1.008000   ; qtot -0.035496
 7797         ho    272    ccc     H8   7797 0.51297200   1.008000   ; qtot 0.477476
 7798         h1    272    ccc     H9   7798 0.05653400   1.008000   ; qtot 0.534010
 7799         h1    272    ccc    H10   7799 0.05653400   1.008000   ; qtot 0.590544
 7800         oh    272    ccc     O5   7800 -0.84113600  16.000000   ; qtot -0.250592
 7801         ho    272    ccc    H11   7801 0.51201600   1.008000   ; qtot 0.261424
 7802         os    272    ccc     O6   7802 -0.26013600  16.000000   ; qtot 0.001288
; residue  273 ccc rtp ccc q 0.0
 7803         c3    273    ccc     C1   7803 -0.33178800  12.010000   ; qtot -0.330500
 7804         c3    273    ccc     C2   7804 0.30606500  12.010000   ; qtot -0.024435
 7805         h1    273    ccc     H1   7805 0.11662300   1.008000   ; qtot 0.092188
 7806         h1    273    ccc     H2   7806 0.11526800   1.008000   ; qtot 0.207456
 7807         c3    273    ccc     C3   7807 0.15592700  12.010000   ; qtot 0.363383
 7808         c3    273    ccc     C4   7808 0.28383300  12.010000   ; qtot 0.647216
 7809         c3    273    ccc     C5   7809 0.32403300  12.010000   ; qtot 0.971249
 7810         h1    273    ccc     H3   7810 0.13386900   1.008000   ; qtot 1.105118
 7811         h1    273    ccc     H4   7811 0.10146700   1.008000   ; qtot 1.206585
 7812         h2    273    ccc     H5   7812 0.10960400   1.008000   ; qtot 1.316189
 7813         os    273    ccc     O1   7813 -0.28650000  16.000000   ; qtot 1.029689
 7814         oh    273    ccc     O2   7814 -0.86012500  16.000000   ; qtot 0.169564
 7815         oh    273    ccc     O3   7815 -0.83772800  16.000000   ; qtot -0.668164
 7816         oh    273    ccc     O4   7816 -0.77449700  16.000000   ; qtot -1.442661
 7817         c3    273    ccc     C6   7817 0.37576500  12.010000   ; qtot -1.066896
 7818         ho    273    ccc     H6   7818 0.53656000   1.008000   ; qtot -0.530336
 7819         ho    273    ccc     H7   7819 0.49492100   1.008000   ; qtot -0.035415
 7820         ho    273    ccc     H8   7820 0.51297200   1.008000   ; qtot 0.477557
 7821         h1    273    ccc     H9   7821 0.05653400   1.008000   ; qtot 0.534091
 7822         h1    273    ccc    H10   7822 0.05653400   1.008000   ; qtot 0.590625
 7823         oh    273    ccc     O5   7823 -0.84113600  16.000000   ; qtot -0.250511
 7824         ho    273    ccc    H11   7824 0.51201600   1.008000   ; qtot 0.261505
 7825         os    273    ccc     O6   7825 -0.26013600  16.000000   ; qtot 0.001369
; residue  274 ccc rtp ccc q 0.0
 7826         c3    274    ccc     C1   7826 -0.33178800  12.010000   ; qtot -0.330419
 7827         c3    274    ccc     C2   7827 0.30606500  12.010000   ; qtot -0.024354
 7828         h1    274    ccc     H1   7828 0.11662300   1.008000   ; qtot 0.092269
 7829         h1    274    ccc     H2   7829 0.11526800   1.008000   ; qtot 0.207537
 7830         c3    274    ccc     C3   7830 0.15592700  12.010000   ; qtot 0.363464
 7831         c3    274    ccc     C4   7831 0.28383300  12.010000   ; qtot 0.647297
 7832         c3    274    ccc     C5   7832 0.32403300  12.010000   ; qtot 0.971330
 7833         h1    274    ccc     H3   7833 0.13386900   1.008000   ; qtot 1.105199
 7834         h1    274    ccc     H4   7834 0.10146700   1.008000   ; qtot 1.206666
 7835         h2    274    ccc     H5   7835 0.10960400   1.008000   ; qtot 1.316270
 7836         os    274    ccc     O1   7836 -0.28650000  16.000000   ; qtot 1.029770
 7837         oh    274    ccc     O2   7837 -0.86012500  16.000000   ; qtot 0.169645
 7838         oh    274    ccc     O3   7838 -0.83772800  16.000000   ; qtot -0.668083
 7839         oh    274    ccc     O4   7839 -0.77449700  16.000000   ; qtot -1.442580
 7840         c3    274    ccc     C6   7840 0.37576500  12.010000   ; qtot -1.066815
 7841         ho    274    ccc     H6   7841 0.53656000   1.008000   ; qtot -0.530255
 7842         ho    274    ccc     H7   7842 0.49492100   1.008000   ; qtot -0.035334
 7843         ho    274    ccc     H8   7843 0.51297200   1.008000   ; qtot 0.477638
 7844         h1    274    ccc     H9   7844 0.05653400   1.008000   ; qtot 0.534172
 7845         h1    274    ccc    H10   7845 0.05653400   1.008000   ; qtot 0.590706
 7846         oh    274    ccc     O5   7846 -0.84113600  16.000000   ; qtot -0.250430
 7847         ho    274    ccc    H11   7847 0.51201600   1.008000   ; qtot 0.261586
 7848         os    274    ccc     O6   7848 -0.26013600  16.000000   ; qtot 0.001450
; residue  275 ccc rtp ccc q 0.0
 7849         c3    275    ccc     C1   7849 -0.33178800  12.010000   ; qtot -0.330338
 7850         c3    275    ccc     C2   7850 0.30606500  12.010000   ; qtot -0.024273
 7851         h1    275    ccc     H1   7851 0.11662300   1.008000   ; qtot 0.092350
 7852         h1    275    ccc     H2   7852 0.11526800   1.008000   ; qtot 0.207618
 7853         c3    275    ccc     C3   7853 0.15592700  12.010000   ; qtot 0.363545
 7854         c3    275    ccc     C4   7854 0.28383300  12.010000   ; qtot 0.647378
 7855         c3    275    ccc     C5   7855 0.32403300  12.010000   ; qtot 0.971411
 7856         h1    275    ccc     H3   7856 0.13386900   1.008000   ; qtot 1.105280
 7857         h1    275    ccc     H4   7857 0.10146700   1.008000   ; qtot 1.206747
 7858         h2    275    ccc     H5   7858 0.10960400   1.008000   ; qtot 1.316351
 7859         os    275    ccc     O1   7859 -0.28650000  16.000000   ; qtot 1.029851
 7860         oh    275    ccc     O2   7860 -0.86012500  16.000000   ; qtot 0.169726
 7861         oh    275    ccc     O3   7861 -0.83772800  16.000000   ; qtot -0.668002
 7862         oh    275    ccc     O4   7862 -0.77449700  16.000000   ; qtot -1.442499
 7863         c3    275    ccc     C6   7863 0.37576500  12.010000   ; qtot -1.066734
 7864         ho    275    ccc     H6   7864 0.53656000   1.008000   ; qtot -0.530174
 7865         ho    275    ccc     H7   7865 0.49492100   1.008000   ; qtot -0.035253
 7866         ho    275    ccc     H8   7866 0.51297200   1.008000   ; qtot 0.477719
 7867         h1    275    ccc     H9   7867 0.05653400   1.008000   ; qtot 0.534253
 7868         h1    275    ccc    H10   7868 0.05653400   1.008000   ; qtot 0.590787
 7869         oh    275    ccc     O5   7869 -0.84113600  16.000000   ; qtot -0.250349
 7870         ho    275    ccc    H11   7870 0.51201600   1.008000   ; qtot 0.261667
 7871         os    275    ccc     O6   7871 -0.26013600  16.000000   ; qtot 0.001531
; residue  276 ccc rtp ccc q 0.0
 7872         c3    276    ccc     C1   7872 -0.33178800  12.010000   ; qtot -0.330257
 7873         c3    276    ccc     C2   7873 0.30606500  12.010000   ; qtot -0.024192
 7874         h1    276    ccc     H1   7874 0.11662300   1.008000   ; qtot 0.092431
 7875         h1    276    ccc     H2   7875 0.11526800   1.008000   ; qtot 0.207699
 7876         c3    276    ccc     C3   7876 0.15592700  12.010000   ; qtot 0.363626
 7877         c3    276    ccc     C4   7877 0.28383300  12.010000   ; qtot 0.647459
 7878         c3    276    ccc     C5   7878 0.32403300  12.010000   ; qtot 0.971492
 7879         h1    276    ccc     H3   7879 0.13386900   1.008000   ; qtot 1.105361
 7880         h1    276    ccc     H4   7880 0.10146700   1.008000   ; qtot 1.206828
 7881         h2    276    ccc     H5   7881 0.10960400   1.008000   ; qtot 1.316432
 7882         os    276    ccc     O1   7882 -0.28650000  16.000000   ; qtot 1.029932
 7883         oh    276    ccc     O2   7883 -0.86012500  16.000000   ; qtot 0.169807
 7884         oh    276    ccc     O3   7884 -0.83772800  16.000000   ; qtot -0.667921
 7885         oh    276    ccc     O4   7885 -0.77449700  16.000000   ; qtot -1.442418
 7886         c3    276    ccc     C6   7886 0.37576500  12.010000   ; qtot -1.066653
 7887         ho    276    ccc     H6   7887 0.53656000   1.008000   ; qtot -0.530093
 7888         ho    276    ccc     H7   7888 0.49492100   1.008000   ; qtot -0.035172
 7889         ho    276    ccc     H8   7889 0.51297200   1.008000   ; qtot 0.477800
 7890         h1    276    ccc     H9   7890 0.05653400   1.008000   ; qtot 0.534334
 7891         h1    276    ccc    H10   7891 0.05653400   1.008000   ; qtot 0.590868
 7892         oh    276    ccc     O5   7892 -0.84113600  16.000000   ; qtot -0.250268
 7893         ho    276    ccc    H11   7893 0.51201600   1.008000   ; qtot 0.261748
 7894         os    276    ccc     O6   7894 -0.26013600  16.000000   ; qtot 0.001612
; residue  277 ccc rtp ccc q 0.0
 7895         c3    277    ccc     C1   7895 -0.33178800  12.010000   ; qtot -0.330176
 7896         c3    277    ccc     C2   7896 0.30606500  12.010000   ; qtot -0.024111
 7897         h1    277    ccc     H1   7897 0.11662300   1.008000   ; qtot 0.092512
 7898         h1    277    ccc     H2   7898 0.11526800   1.008000   ; qtot 0.207780
 7899         c3    277    ccc     C3   7899 0.15592700  12.010000   ; qtot 0.363707
 7900         c3    277    ccc     C4   7900 0.28383300  12.010000   ; qtot 0.647540
 7901         c3    277    ccc     C5   7901 0.32403300  12.010000   ; qtot 0.971573
 7902         h1    277    ccc     H3   7902 0.13386900   1.008000   ; qtot 1.105442
 7903         h1    277    ccc     H4   7903 0.10146700   1.008000   ; qtot 1.206909
 7904         h2    277    ccc     H5   7904 0.10960400   1.008000   ; qtot 1.316513
 7905         os    277    ccc     O1   7905 -0.28650000  16.000000   ; qtot 1.030013
 7906         oh    277    ccc     O2   7906 -0.86012500  16.000000   ; qtot 0.169888
 7907         oh    277    ccc     O3   7907 -0.83772800  16.000000   ; qtot -0.667840
 7908         oh    277    ccc     O4   7908 -0.77449700  16.000000   ; qtot -1.442337
 7909         c3    277    ccc     C6   7909 0.37576500  12.010000   ; qtot -1.066572
 7910         ho    277    ccc     H6   7910 0.53656000   1.008000   ; qtot -0.530012
 7911         ho    277    ccc     H7   7911 0.49492100   1.008000   ; qtot -0.035091
 7912         ho    277    ccc     H8   7912 0.51297200   1.008000   ; qtot 0.477881
 7913         h1    277    ccc     H9   7913 0.05653400   1.008000   ; qtot 0.534415
 7914         h1    277    ccc    H10   7914 0.05653400   1.008000   ; qtot 0.590949
 7915         oh    277    ccc     O5   7915 -0.84113600  16.000000   ; qtot -0.250187
 7916         ho    277    ccc    H11   7916 0.51201600   1.008000   ; qtot 0.261829
 7917         os    277    ccc     O6   7917 -0.26013600  16.000000   ; qtot 0.001693
; residue  278 ccc rtp ccc q 0.0
 7918         c3    278    ccc     C1   7918 -0.33178800  12.010000   ; qtot -0.330095
 7919         c3    278    ccc     C2   7919 0.30606500  12.010000   ; qtot -0.024030
 7920         h1    278    ccc     H1   7920 0.11662300   1.008000   ; qtot 0.092593
 7921         h1    278    ccc     H2   7921 0.11526800   1.008000   ; qtot 0.207861
 7922         c3    278    ccc     C3   7922 0.15592700  12.010000   ; qtot 0.363788
 7923         c3    278    ccc     C4   7923 0.28383300  12.010000   ; qtot 0.647621
 7924         c3    278    ccc     C5   7924 0.32403300  12.010000   ; qtot 0.971654
 7925         h1    278    ccc     H3   7925 0.13386900   1.008000   ; qtot 1.105523
 7926         h1    278    ccc     H4   7926 0.10146700   1.008000   ; qtot 1.206990
 7927         h2    278    ccc     H5   7927 0.10960400   1.008000   ; qtot 1.316594
 7928         os    278    ccc     O1   7928 -0.28650000  16.000000   ; qtot 1.030094
 7929         oh    278    ccc     O2   7929 -0.86012500  16.000000   ; qtot 0.169969
 7930         oh    278    ccc     O3   7930 -0.83772800  16.000000   ; qtot -0.667759
 7931         oh    278    ccc     O4   7931 -0.77449700  16.000000   ; qtot -1.442256
 7932         c3    278    ccc     C6   7932 0.37576500  12.010000   ; qtot -1.066491
 7933         ho    278    ccc     H6   7933 0.53656000   1.008000   ; qtot -0.529931
 7934         ho    278    ccc     H7   7934 0.49492100   1.008000   ; qtot -0.035010
 7935         ho    278    ccc     H8   7935 0.51297200   1.008000   ; qtot 0.477962
 7936         h1    278    ccc     H9   7936 0.05653400   1.008000   ; qtot 0.534496
 7937         h1    278    ccc    H10   7937 0.05653400   1.008000   ; qtot 0.591030
 7938         oh    278    ccc     O5   7938 -0.84113600  16.000000   ; qtot -0.250106
 7939         ho    278    ccc    H11   7939 0.51201600   1.008000   ; qtot 0.261910
 7940         os    278    ccc     O6   7940 -0.26013600  16.000000   ; qtot 0.001774
; residue  279 ccc rtp ccc q 0.0
 7941         c3    279    ccc     C1   7941 -0.33178800  12.010000   ; qtot -0.330014
 7942         c3    279    ccc     C2   7942 0.30606500  12.010000   ; qtot -0.023949
 7943         h1    279    ccc     H1   7943 0.11662300   1.008000   ; qtot 0.092674
 7944         h1    279    ccc     H2   7944 0.11526800   1.008000   ; qtot 0.207942
 7945         c3    279    ccc     C3   7945 0.15592700  12.010000   ; qtot 0.363869
 7946         c3    279    ccc     C4   7946 0.28383300  12.010000   ; qtot 0.647702
 7947         c3    279    ccc     C5   7947 0.32403300  12.010000   ; qtot 0.971735
 7948         h1    279    ccc     H3   7948 0.13386900   1.008000   ; qtot 1.105604
 7949         h1    279    ccc     H4   7949 0.10146700   1.008000   ; qtot 1.207071
 7950         h2    279    ccc     H5   7950 0.10960400   1.008000   ; qtot 1.316675
 7951         os    279    ccc     O1   7951 -0.28650000  16.000000   ; qtot 1.030175
 7952         oh    279    ccc     O2   7952 -0.86012500  16.000000   ; qtot 0.170050
 7953         oh    279    ccc     O3   7953 -0.83772800  16.000000   ; qtot -0.667678
 7954         oh    279    ccc     O4   7954 -0.77449700  16.000000   ; qtot -1.442175
 7955         c3    279    ccc     C6   7955 0.37576500  12.010000   ; qtot -1.066410
 7956         ho    279    ccc     H6   7956 0.53656000   1.008000   ; qtot -0.529850
 7957         ho    279    ccc     H7   7957 0.49492100   1.008000   ; qtot -0.034929
 7958         ho    279    ccc     H8   7958 0.51297200   1.008000   ; qtot 0.478043
 7959         h1    279    ccc     H9   7959 0.05653400   1.008000   ; qtot 0.534577
 7960         h1    279    ccc    H10   7960 0.05653400   1.008000   ; qtot 0.591111
 7961         oh    279    ccc     O5   7961 -0.84113600  16.000000   ; qtot -0.250025
 7962         ho    279    ccc    H11   7962 0.51201600   1.008000   ; qtot 0.261991
 7963         os    279    ccc     O6   7963 -0.26013600  16.000000   ; qtot 0.001855
; residue  280 ccc rtp ccc q 0.0
 7964         c3    280    ccc     C1   7964 -0.33178800  12.010000   ; qtot -0.329933
 7965         c3    280    ccc     C2   7965 0.30606500  12.010000   ; qtot -0.023868
 7966         h1    280    ccc     H1   7966 0.11662300   1.008000   ; qtot 0.092755
 7967         h1    280    ccc     H2   7967 0.11526800   1.008000   ; qtot 0.208023
 7968         c3    280    ccc     C3   7968 0.15592700  12.010000   ; qtot 0.363950
 7969         c3    280    ccc     C4   7969 0.28383300  12.010000   ; qtot 0.647783
 7970         c3    280    ccc     C5   7970 0.32403300  12.010000   ; qtot 0.971816
 7971         h1    280    ccc     H3   7971 0.13386900   1.008000   ; qtot 1.105685
 7972         h1    280    ccc     H4   7972 0.10146700   1.008000   ; qtot 1.207152
 7973         h2    280    ccc     H5   7973 0.10960400   1.008000   ; qtot 1.316756
 7974         os    280    ccc     O1   7974 -0.28650000  16.000000   ; qtot 1.030256
 7975         oh    280    ccc     O2   7975 -0.86012500  16.000000   ; qtot 0.170131
 7976         oh    280    ccc     O3   7976 -0.83772800  16.000000   ; qtot -0.667597
 7977         oh    280    ccc     O4   7977 -0.77449700  16.000000   ; qtot -1.442094
 7978         c3    280    ccc     C6   7978 0.37576500  12.010000   ; qtot -1.066329
 7979         ho    280    ccc     H6   7979 0.53656000   1.008000   ; qtot -0.529769
 7980         ho    280    ccc     H7   7980 0.49492100   1.008000   ; qtot -0.034848
 7981         ho    280    ccc     H8   7981 0.51297200   1.008000   ; qtot 0.478124
 7982         h1    280    ccc     H9   7982 0.05653400   1.008000   ; qtot 0.534658
 7983         h1    280    ccc    H10   7983 0.05653400   1.008000   ; qtot 0.591192
 7984         oh    280    ccc     O5   7984 -0.84113600  16.000000   ; qtot -0.249944
 7985         ho    280    ccc    H11   7985 0.51201600   1.008000   ; qtot 0.262072
 7986         os    280    ccc     O6   7986 -0.26013600  16.000000   ; qtot 0.001936
; residue  281 ccc rtp ccc q 0.0
 7987         c3    281    ccc     C1   7987 -0.33178800  12.010000   ; qtot -0.329852
 7988         c3    281    ccc     C2   7988 0.30606500  12.010000   ; qtot -0.023787
 7989         h1    281    ccc     H1   7989 0.11662300   1.008000   ; qtot 0.092836
 7990         h1    281    ccc     H2   7990 0.11526800   1.008000   ; qtot 0.208104
 7991         c3    281    ccc     C3   7991 0.15592700  12.010000   ; qtot 0.364031
 7992         c3    281    ccc     C4   7992 0.28383300  12.010000   ; qtot 0.647864
 7993         c3    281    ccc     C5   7993 0.32403300  12.010000   ; qtot 0.971897
 7994         h1    281    ccc     H3   7994 0.13386900   1.008000   ; qtot 1.105766
 7995         h1    281    ccc     H4   7995 0.10146700   1.008000   ; qtot 1.207233
 7996         h2    281    ccc     H5   7996 0.10960400   1.008000   ; qtot 1.316837
 7997         os    281    ccc     O1   7997 -0.28650000  16.000000   ; qtot 1.030337
 7998         oh    281    ccc     O2   7998 -0.86012500  16.000000   ; qtot 0.170212
 7999         oh    281    ccc     O3   7999 -0.83772800  16.000000   ; qtot -0.667516
 8000         oh    281    ccc     O4   8000 -0.77449700  16.000000   ; qtot -1.442013
 8001         c3    281    ccc     C6   8001 0.37576500  12.010000   ; qtot -1.066248
 8002         ho    281    ccc     H6   8002 0.53656000   1.008000   ; qtot -0.529688
 8003         ho    281    ccc     H7   8003 0.49492100   1.008000   ; qtot -0.034767
 8004         ho    281    ccc     H8   8004 0.51297200   1.008000   ; qtot 0.478205
 8005         h1    281    ccc     H9   8005 0.05653400   1.008000   ; qtot 0.534739
 8006         h1    281    ccc    H10   8006 0.05653400   1.008000   ; qtot 0.591273
 8007         oh    281    ccc     O5   8007 -0.84113600  16.000000   ; qtot -0.249863
 8008         ho    281    ccc    H11   8008 0.51201600   1.008000   ; qtot 0.262153
 8009         os    281    ccc     O6   8009 -0.26013600  16.000000   ; qtot 0.002017
; residue  282 ccc rtp ccc q 0.0
 8010         c3    282    ccc     C1   8010 -0.33178800  12.010000   ; qtot -0.329771
 8011         c3    282    ccc     C2   8011 0.30606500  12.010000   ; qtot -0.023706
 8012         h1    282    ccc     H1   8012 0.11662300   1.008000   ; qtot 0.092917
 8013         h1    282    ccc     H2   8013 0.11526800   1.008000   ; qtot 0.208185
 8014         c3    282    ccc     C3   8014 0.15592700  12.010000   ; qtot 0.364112
 8015         c3    282    ccc     C4   8015 0.28383300  12.010000   ; qtot 0.647945
 8016         c3    282    ccc     C5   8016 0.32403300  12.010000   ; qtot 0.971978
 8017         h1    282    ccc     H3   8017 0.13386900   1.008000   ; qtot 1.105847
 8018         h1    282    ccc     H4   8018 0.10146700   1.008000   ; qtot 1.207314
 8019         h2    282    ccc     H5   8019 0.10960400   1.008000   ; qtot 1.316918
 8020         os    282    ccc     O1   8020 -0.28650000  16.000000   ; qtot 1.030418
 8021         oh    282    ccc     O2   8021 -0.86012500  16.000000   ; qtot 0.170293
 8022         oh    282    ccc     O3   8022 -0.83772800  16.000000   ; qtot -0.667435
 8023         oh    282    ccc     O4   8023 -0.77449700  16.000000   ; qtot -1.441932
 8024         c3    282    ccc     C6   8024 0.37576500  12.010000   ; qtot -1.066167
 8025         ho    282    ccc     H6   8025 0.53656000   1.008000   ; qtot -0.529607
 8026         ho    282    ccc     H7   8026 0.49492100   1.008000   ; qtot -0.034686
 8027         ho    282    ccc     H8   8027 0.51297200   1.008000   ; qtot 0.478286
 8028         h1    282    ccc     H9   8028 0.05653400   1.008000   ; qtot 0.534820
 8029         h1    282    ccc    H10   8029 0.05653400   1.008000   ; qtot 0.591354
 8030         oh    282    ccc     O5   8030 -0.84113600  16.000000   ; qtot -0.249782
 8031         ho    282    ccc    H11   8031 0.51201600   1.008000   ; qtot 0.262234
 8032         os    282    ccc     O6   8032 -0.26013600  16.000000   ; qtot 0.002098
; residue  283 ccc rtp ccc q 0.0
 8033         c3    283    ccc     C1   8033 -0.33178800  12.010000   ; qtot -0.329690
 8034         c3    283    ccc     C2   8034 0.30606500  12.010000   ; qtot -0.023625
 8035         h1    283    ccc     H1   8035 0.11662300   1.008000   ; qtot 0.092998
 8036         h1    283    ccc     H2   8036 0.11526800   1.008000   ; qtot 0.208266
 8037         c3    283    ccc     C3   8037 0.15592700  12.010000   ; qtot 0.364193
 8038         c3    283    ccc     C4   8038 0.28383300  12.010000   ; qtot 0.648026
 8039         c3    283    ccc     C5   8039 0.32403300  12.010000   ; qtot 0.972059
 8040         h1    283    ccc     H3   8040 0.13386900   1.008000   ; qtot 1.105928
 8041         h1    283    ccc     H4   8041 0.10146700   1.008000   ; qtot 1.207395
 8042         h2    283    ccc     H5   8042 0.10960400   1.008000   ; qtot 1.316999
 8043         os    283    ccc     O1   8043 -0.28650000  16.000000   ; qtot 1.030499
 8044         oh    283    ccc     O2   8044 -0.86012500  16.000000   ; qtot 0.170374
 8045         oh    283    ccc     O3   8045 -0.83772800  16.000000   ; qtot -0.667354
 8046         oh    283    ccc     O4   8046 -0.77449700  16.000000   ; qtot -1.441851
 8047         c3    283    ccc     C6   8047 0.37576500  12.010000   ; qtot -1.066086
 8048         ho    283    ccc     H6   8048 0.53656000   1.008000   ; qtot -0.529526
 8049         ho    283    ccc     H7   8049 0.49492100   1.008000   ; qtot -0.034605
 8050         ho    283    ccc     H8   8050 0.51297200   1.008000   ; qtot 0.478367
 8051         h1    283    ccc     H9   8051 0.05653400   1.008000   ; qtot 0.534901
 8052         h1    283    ccc    H10   8052 0.05653400   1.008000   ; qtot 0.591435
 8053         oh    283    ccc     O5   8053 -0.84113600  16.000000   ; qtot -0.249701
 8054         ho    283    ccc    H11   8054 0.51201600   1.008000   ; qtot 0.262315
 8055         os    283    ccc     O6   8055 -0.26013600  16.000000   ; qtot 0.002179
; residue  284 ccc rtp ccc q 0.0
 8056         c3    284    ccc     C1   8056 -0.33178800  12.010000   ; qtot -0.329609
 8057         c3    284    ccc     C2   8057 0.30606500  12.010000   ; qtot -0.023544
 8058         h1    284    ccc     H1   8058 0.11662300   1.008000   ; qtot 0.093079
 8059         h1    284    ccc     H2   8059 0.11526800   1.008000   ; qtot 0.208347
 8060         c3    284    ccc     C3   8060 0.15592700  12.010000   ; qtot 0.364274
 8061         c3    284    ccc     C4   8061 0.28383300  12.010000   ; qtot 0.648107
 8062         c3    284    ccc     C5   8062 0.32403300  12.010000   ; qtot 0.972140
 8063         h1    284    ccc     H3   8063 0.13386900   1.008000   ; qtot 1.106009
 8064         h1    284    ccc     H4   8064 0.10146700   1.008000   ; qtot 1.207476
 8065         h2    284    ccc     H5   8065 0.10960400   1.008000   ; qtot 1.317080
 8066         os    284    ccc     O1   8066 -0.28650000  16.000000   ; qtot 1.030580
 8067         oh    284    ccc     O2   8067 -0.86012500  16.000000   ; qtot 0.170455
 8068         oh    284    ccc     O3   8068 -0.83772800  16.000000   ; qtot -0.667273
 8069         oh    284    ccc     O4   8069 -0.77449700  16.000000   ; qtot -1.441770
 8070         c3    284    ccc     C6   8070 0.37576500  12.010000   ; qtot -1.066005
 8071         ho    284    ccc     H6   8071 0.53656000   1.008000   ; qtot -0.529445
 8072         ho    284    ccc     H7   8072 0.49492100   1.008000   ; qtot -0.034524
 8073         ho    284    ccc     H8   8073 0.51297200   1.008000   ; qtot 0.478448
 8074         h1    284    ccc     H9   8074 0.05653400   1.008000   ; qtot 0.534982
 8075         h1    284    ccc    H10   8075 0.05653400   1.008000   ; qtot 0.591516
 8076         oh    284    ccc     O5   8076 -0.84113600  16.000000   ; qtot -0.249620
 8077         ho    284    ccc    H11   8077 0.51201600   1.008000   ; qtot 0.262396
 8078         os    284    ccc     O6   8078 -0.26013600  16.000000   ; qtot 0.002260
; residue  285 ccc rtp ccc q 0.0
 8079         c3    285    ccc     C1   8079 -0.33178800  12.010000   ; qtot -0.329528
 8080         c3    285    ccc     C2   8080 0.30606500  12.010000   ; qtot -0.023463
 8081         h1    285    ccc     H1   8081 0.11662300   1.008000   ; qtot 0.093160
 8082         h1    285    ccc     H2   8082 0.11526800   1.008000   ; qtot 0.208428
 8083         c3    285    ccc     C3   8083 0.15592700  12.010000   ; qtot 0.364355
 8084         c3    285    ccc     C4   8084 0.28383300  12.010000   ; qtot 0.648188
 8085         c3    285    ccc     C5   8085 0.32403300  12.010000   ; qtot 0.972221
 8086         h1    285    ccc     H3   8086 0.13386900   1.008000   ; qtot 1.106090
 8087         h1    285    ccc     H4   8087 0.10146700   1.008000   ; qtot 1.207557
 8088         h2    285    ccc     H5   8088 0.10960400   1.008000   ; qtot 1.317161
 8089         os    285    ccc     O1   8089 -0.28650000  16.000000   ; qtot 1.030661
 8090         oh    285    ccc     O2   8090 -0.86012500  16.000000   ; qtot 0.170536
 8091         oh    285    ccc     O3   8091 -0.83772800  16.000000   ; qtot -0.667192
 8092         oh    285    ccc     O4   8092 -0.77449700  16.000000   ; qtot -1.441689
 8093         c3    285    ccc     C6   8093 0.37576500  12.010000   ; qtot -1.065924
 8094         ho    285    ccc     H6   8094 0.53656000   1.008000   ; qtot -0.529364
 8095         ho    285    ccc     H7   8095 0.49492100   1.008000   ; qtot -0.034443
 8096         ho    285    ccc     H8   8096 0.51297200   1.008000   ; qtot 0.478529
 8097         h1    285    ccc     H9   8097 0.05653400   1.008000   ; qtot 0.535063
 8098         h1    285    ccc    H10   8098 0.05653400   1.008000   ; qtot 0.591597
 8099         oh    285    ccc     O5   8099 -0.84113600  16.000000   ; qtot -0.249539
 8100         ho    285    ccc    H11   8100 0.51201600   1.008000   ; qtot 0.262477
 8101         os    285    ccc     O6   8101 -0.26013600  16.000000   ; qtot 0.002341
; residue  286 ccc rtp ccc q 0.0
 8102         c3    286    ccc     C1   8102 -0.33178800  12.010000   ; qtot -0.329447
 8103         c3    286    ccc     C2   8103 0.30606500  12.010000   ; qtot -0.023382
 8104         h1    286    ccc     H1   8104 0.11662300   1.008000   ; qtot 0.093241
 8105         h1    286    ccc     H2   8105 0.11526800   1.008000   ; qtot 0.208509
 8106         c3    286    ccc     C3   8106 0.15592700  12.010000   ; qtot 0.364436
 8107         c3    286    ccc     C4   8107 0.28383300  12.010000   ; qtot 0.648269
 8108         c3    286    ccc     C5   8108 0.32403300  12.010000   ; qtot 0.972302
 8109         h1    286    ccc     H3   8109 0.13386900   1.008000   ; qtot 1.106171
 8110         h1    286    ccc     H4   8110 0.10146700   1.008000   ; qtot 1.207638
 8111         h2    286    ccc     H5   8111 0.10960400   1.008000   ; qtot 1.317242
 8112         os    286    ccc     O1   8112 -0.28650000  16.000000   ; qtot 1.030742
 8113         oh    286    ccc     O2   8113 -0.86012500  16.000000   ; qtot 0.170617
 8114         oh    286    ccc     O3   8114 -0.83772800  16.000000   ; qtot -0.667111
 8115         oh    286    ccc     O4   8115 -0.77449700  16.000000   ; qtot -1.441608
 8116         c3    286    ccc     C6   8116 0.37576500  12.010000   ; qtot -1.065843
 8117         ho    286    ccc     H6   8117 0.53656000   1.008000   ; qtot -0.529283
 8118         ho    286    ccc     H7   8118 0.49492100   1.008000   ; qtot -0.034362
 8119         ho    286    ccc     H8   8119 0.51297200   1.008000   ; qtot 0.478610
 8120         h1    286    ccc     H9   8120 0.05653400   1.008000   ; qtot 0.535144
 8121         h1    286    ccc    H10   8121 0.05653400   1.008000   ; qtot 0.591678
 8122         oh    286    ccc     O5   8122 -0.84113600  16.000000   ; qtot -0.249458
 8123         ho    286    ccc    H11   8123 0.51201600   1.008000   ; qtot 0.262558
 8124         os    286    ccc     O6   8124 -0.26013600  16.000000   ; qtot 0.002422
; residue  287 ccc rtp ccc q 0.0
 8125         c3    287    ccc     C1   8125 -0.33178800  12.010000   ; qtot -0.329366
 8126         c3    287    ccc     C2   8126 0.30606500  12.010000   ; qtot -0.023301
 8127         h1    287    ccc     H1   8127 0.11662300   1.008000   ; qtot 0.093322
 8128         h1    287    ccc     H2   8128 0.11526800   1.008000   ; qtot 0.208590
 8129         c3    287    ccc     C3   8129 0.15592700  12.010000   ; qtot 0.364517
 8130         c3    287    ccc     C4   8130 0.28383300  12.010000   ; qtot 0.648350
 8131         c3    287    ccc     C5   8131 0.32403300  12.010000   ; qtot 0.972383
 8132         h1    287    ccc     H3   8132 0.13386900   1.008000   ; qtot 1.106252
 8133         h1    287    ccc     H4   8133 0.10146700   1.008000   ; qtot 1.207719
 8134         h2    287    ccc     H5   8134 0.10960400   1.008000   ; qtot 1.317323
 8135         os    287    ccc     O1   8135 -0.28650000  16.000000   ; qtot 1.030823
 8136         oh    287    ccc     O2   8136 -0.86012500  16.000000   ; qtot 0.170698
 8137         oh    287    ccc     O3   8137 -0.83772800  16.000000   ; qtot -0.667030
 8138         oh    287    ccc     O4   8138 -0.77449700  16.000000   ; qtot -1.441527
 8139         c3    287    ccc     C6   8139 0.37576500  12.010000   ; qtot -1.065762
 8140         ho    287    ccc     H6   8140 0.53656000   1.008000   ; qtot -0.529202
 8141         ho    287    ccc     H7   8141 0.49492100   1.008000   ; qtot -0.034281
 8142         ho    287    ccc     H8   8142 0.51297200   1.008000   ; qtot 0.478691
 8143         h1    287    ccc     H9   8143 0.05653400   1.008000   ; qtot 0.535225
 8144         h1    287    ccc    H10   8144 0.05653400   1.008000   ; qtot 0.591759
 8145         oh    287    ccc     O5   8145 -0.84113600  16.000000   ; qtot -0.249377
 8146         ho    287    ccc    H11   8146 0.51201600   1.008000   ; qtot 0.262639
 8147         os    287    ccc     O6   8147 -0.26013600  16.000000   ; qtot 0.002503
; residue  288 ccc rtp ccc q 0.0
 8148         c3    288    ccc     C1   8148 -0.33178800  12.010000   ; qtot -0.329285
 8149         c3    288    ccc     C2   8149 0.30606500  12.010000   ; qtot -0.023220
 8150         h1    288    ccc     H1   8150 0.11662300   1.008000   ; qtot 0.093403
 8151         h1    288    ccc     H2   8151 0.11526800   1.008000   ; qtot 0.208671
 8152         c3    288    ccc     C3   8152 0.15592700  12.010000   ; qtot 0.364598
 8153         c3    288    ccc     C4   8153 0.28383300  12.010000   ; qtot 0.648431
 8154         c3    288    ccc     C5   8154 0.32403300  12.010000   ; qtot 0.972464
 8155         h1    288    ccc     H3   8155 0.13386900   1.008000   ; qtot 1.106333
 8156         h1    288    ccc     H4   8156 0.10146700   1.008000   ; qtot 1.207800
 8157         h2    288    ccc     H5   8157 0.10960400   1.008000   ; qtot 1.317404
 8158         os    288    ccc     O1   8158 -0.28650000  16.000000   ; qtot 1.030904
 8159         oh    288    ccc     O2   8159 -0.86012500  16.000000   ; qtot 0.170779
 8160         oh    288    ccc     O3   8160 -0.83772800  16.000000   ; qtot -0.666949
 8161         oh    288    ccc     O4   8161 -0.77449700  16.000000   ; qtot -1.441446
 8162         c3    288    ccc     C6   8162 0.37576500  12.010000   ; qtot -1.065681
 8163         ho    288    ccc     H6   8163 0.53656000   1.008000   ; qtot -0.529121
 8164         ho    288    ccc     H7   8164 0.49492100   1.008000   ; qtot -0.034200
 8165         ho    288    ccc     H8   8165 0.51297200   1.008000   ; qtot 0.478772
 8166         h1    288    ccc     H9   8166 0.05653400   1.008000   ; qtot 0.535306
 8167         h1    288    ccc    H10   8167 0.05653400   1.008000   ; qtot 0.591840
 8168         oh    288    ccc     O5   8168 -0.84113600  16.000000   ; qtot -0.249296
 8169         ho    288    ccc    H11   8169 0.51201600   1.008000   ; qtot 0.262720
 8170         os    288    ccc     O6   8170 -0.26013600  16.000000   ; qtot 0.002584
; residue  289 ccc rtp ccc q 0.0
 8171         c3    289    ccc     C1   8171 -0.33178800  12.010000   ; qtot -0.329204
 8172         c3    289    ccc     C2   8172 0.30606500  12.010000   ; qtot -0.023139
 8173         h1    289    ccc     H1   8173 0.11662300   1.008000   ; qtot 0.093484
 8174         h1    289    ccc     H2   8174 0.11526800   1.008000   ; qtot 0.208752
 8175         c3    289    ccc     C3   8175 0.15592700  12.010000   ; qtot 0.364679
 8176         c3    289    ccc     C4   8176 0.28383300  12.010000   ; qtot 0.648512
 8177         c3    289    ccc     C5   8177 0.32403300  12.010000   ; qtot 0.972545
 8178         h1    289    ccc     H3   8178 0.13386900   1.008000   ; qtot 1.106414
 8179         h1    289    ccc     H4   8179 0.10146700   1.008000   ; qtot 1.207881
 8180         h2    289    ccc     H5   8180 0.10960400   1.008000   ; qtot 1.317485
 8181         os    289    ccc     O1   8181 -0.28650000  16.000000   ; qtot 1.030985
 8182         oh    289    ccc     O2   8182 -0.86012500  16.000000   ; qtot 0.170860
 8183         oh    289    ccc     O3   8183 -0.83772800  16.000000   ; qtot -0.666868
 8184         oh    289    ccc     O4   8184 -0.77449700  16.000000   ; qtot -1.441365
 8185         c3    289    ccc     C6   8185 0.37576500  12.010000   ; qtot -1.065600
 8186         ho    289    ccc     H6   8186 0.53656000   1.008000   ; qtot -0.529040
 8187         ho    289    ccc     H7   8187 0.49492100   1.008000   ; qtot -0.034119
 8188         ho    289    ccc     H8   8188 0.51297200   1.008000   ; qtot 0.478853
 8189         h1    289    ccc     H9   8189 0.05653400   1.008000   ; qtot 0.535387
 8190         h1    289    ccc    H10   8190 0.05653400   1.008000   ; qtot 0.591921
 8191         oh    289    ccc     O5   8191 -0.84113600  16.000000   ; qtot -0.249215
 8192         ho    289    ccc    H11   8192 0.51201600   1.008000   ; qtot 0.262801
 8193         os    289    ccc     O6   8193 -0.26013600  16.000000   ; qtot 0.002665
; residue  290 ccc rtp ccc q 0.0
 8194         c3    290    ccc     C1   8194 -0.33178800  12.010000   ; qtot -0.329123
 8195         c3    290    ccc     C2   8195 0.30606500  12.010000   ; qtot -0.023058
 8196         h1    290    ccc     H1   8196 0.11662300   1.008000   ; qtot 0.093565
 8197         h1    290    ccc     H2   8197 0.11526800   1.008000   ; qtot 0.208833
 8198         c3    290    ccc     C3   8198 0.15592700  12.010000   ; qtot 0.364760
 8199         c3    290    ccc     C4   8199 0.28383300  12.010000   ; qtot 0.648593
 8200         c3    290    ccc     C5   8200 0.32403300  12.010000   ; qtot 0.972626
 8201         h1    290    ccc     H3   8201 0.13386900   1.008000   ; qtot 1.106495
 8202         h1    290    ccc     H4   8202 0.10146700   1.008000   ; qtot 1.207962
 8203         h2    290    ccc     H5   8203 0.10960400   1.008000   ; qtot 1.317566
 8204         os    290    ccc     O1   8204 -0.28650000  16.000000   ; qtot 1.031066
 8205         oh    290    ccc     O2   8205 -0.86012500  16.000000   ; qtot 0.170941
 8206         oh    290    ccc     O3   8206 -0.83772800  16.000000   ; qtot -0.666787
 8207         oh    290    ccc     O4   8207 -0.77449700  16.000000   ; qtot -1.441284
 8208         c3    290    ccc     C6   8208 0.37576500  12.010000   ; qtot -1.065519
 8209         ho    290    ccc     H6   8209 0.53656000   1.008000   ; qtot -0.528959
 8210         ho    290    ccc     H7   8210 0.49492100   1.008000   ; qtot -0.034038
 8211         ho    290    ccc     H8   8211 0.51297200   1.008000   ; qtot 0.478934
 8212         h1    290    ccc     H9   8212 0.05653400   1.008000   ; qtot 0.535468
 8213         h1    290    ccc    H10   8213 0.05653400   1.008000   ; qtot 0.592002
 8214         oh    290    ccc     O5   8214 -0.84113600  16.000000   ; qtot -0.249134
 8215         ho    290    ccc    H11   8215 0.51201600   1.008000   ; qtot 0.262882
 8216         os    290    ccc     O6   8216 -0.26013600  16.000000   ; qtot 0.002746
; residue  291 ccc rtp ccc q 0.0
 8217         c3    291    ccc     C1   8217 -0.33178800  12.010000   ; qtot -0.329042
 8218         c3    291    ccc     C2   8218 0.30606500  12.010000   ; qtot -0.022977
 8219         h1    291    ccc     H1   8219 0.11662300   1.008000   ; qtot 0.093646
 8220         h1    291    ccc     H2   8220 0.11526800   1.008000   ; qtot 0.208914
 8221         c3    291    ccc     C3   8221 0.15592700  12.010000   ; qtot 0.364841
 8222         c3    291    ccc     C4   8222 0.28383300  12.010000   ; qtot 0.648674
 8223         c3    291    ccc     C5   8223 0.32403300  12.010000   ; qtot 0.972707
 8224         h1    291    ccc     H3   8224 0.13386900   1.008000   ; qtot 1.106576
 8225         h1    291    ccc     H4   8225 0.10146700   1.008000   ; qtot 1.208043
 8226         h2    291    ccc     H5   8226 0.10960400   1.008000   ; qtot 1.317647
 8227         os    291    ccc     O1   8227 -0.28650000  16.000000   ; qtot 1.031147
 8228         oh    291    ccc     O2   8228 -0.86012500  16.000000   ; qtot 0.171022
 8229         oh    291    ccc     O3   8229 -0.83772800  16.000000   ; qtot -0.666706
 8230         oh    291    ccc     O4   8230 -0.77449700  16.000000   ; qtot -1.441203
 8231         c3    291    ccc     C6   8231 0.37576500  12.010000   ; qtot -1.065438
 8232         ho    291    ccc     H6   8232 0.53656000   1.008000   ; qtot -0.528878
 8233         ho    291    ccc     H7   8233 0.49492100   1.008000   ; qtot -0.033957
 8234         ho    291    ccc     H8   8234 0.51297200   1.008000   ; qtot 0.479015
 8235         h1    291    ccc     H9   8235 0.05653400   1.008000   ; qtot 0.535549
 8236         h1    291    ccc    H10   8236 0.05653400   1.008000   ; qtot 0.592083
 8237         oh    291    ccc     O5   8237 -0.84113600  16.000000   ; qtot -0.249053
 8238         ho    291    ccc    H11   8238 0.51201600   1.008000   ; qtot 0.262963
 8239         os    291    ccc     O6   8239 -0.26013600  16.000000   ; qtot 0.002827
; residue  292 ccc rtp ccc q 0.0
 8240         c3    292    ccc     C1   8240 -0.33178800  12.010000   ; qtot -0.328961
 8241         c3    292    ccc     C2   8241 0.30606500  12.010000   ; qtot -0.022896
 8242         h1    292    ccc     H1   8242 0.11662300   1.008000   ; qtot 0.093727
 8243         h1    292    ccc     H2   8243 0.11526800   1.008000   ; qtot 0.208995
 8244         c3    292    ccc     C3   8244 0.15592700  12.010000   ; qtot 0.364922
 8245         c3    292    ccc     C4   8245 0.28383300  12.010000   ; qtot 0.648755
 8246         c3    292    ccc     C5   8246 0.32403300  12.010000   ; qtot 0.972788
 8247         h1    292    ccc     H3   8247 0.13386900   1.008000   ; qtot 1.106657
 8248         h1    292    ccc     H4   8248 0.10146700   1.008000   ; qtot 1.208124
 8249         h2    292    ccc     H5   8249 0.10960400   1.008000   ; qtot 1.317728
 8250         os    292    ccc     O1   8250 -0.28650000  16.000000   ; qtot 1.031228
 8251         oh    292    ccc     O2   8251 -0.86012500  16.000000   ; qtot 0.171103
 8252         oh    292    ccc     O3   8252 -0.83772800  16.000000   ; qtot -0.666625
 8253         oh    292    ccc     O4   8253 -0.77449700  16.000000   ; qtot -1.441122
 8254         c3    292    ccc     C6   8254 0.37576500  12.010000   ; qtot -1.065357
 8255         ho    292    ccc     H6   8255 0.53656000   1.008000   ; qtot -0.528797
 8256         ho    292    ccc     H7   8256 0.49492100   1.008000   ; qtot -0.033876
 8257         ho    292    ccc     H8   8257 0.51297200   1.008000   ; qtot 0.479096
 8258         h1    292    ccc     H9   8258 0.05653400   1.008000   ; qtot 0.535630
 8259         h1    292    ccc    H10   8259 0.05653400   1.008000   ; qtot 0.592164
 8260         oh    292    ccc     O5   8260 -0.84113600  16.000000   ; qtot -0.248972
 8261         ho    292    ccc    H11   8261 0.51201600   1.008000   ; qtot 0.263044
 8262         os    292    ccc     O6   8262 -0.26013600  16.000000   ; qtot 0.002908
; residue  293 ccc rtp ccc q 0.0
 8263         c3    293    ccc     C1   8263 -0.33178800  12.010000   ; qtot -0.328880
 8264         c3    293    ccc     C2   8264 0.30606500  12.010000   ; qtot -0.022815
 8265         h1    293    ccc     H1   8265 0.11662300   1.008000   ; qtot 0.093808
 8266         h1    293    ccc     H2   8266 0.11526800   1.008000   ; qtot 0.209076
 8267         c3    293    ccc     C3   8267 0.15592700  12.010000   ; qtot 0.365003
 8268         c3    293    ccc     C4   8268 0.28383300  12.010000   ; qtot 0.648836
 8269         c3    293    ccc     C5   8269 0.32403300  12.010000   ; qtot 0.972869
 8270         h1    293    ccc     H3   8270 0.13386900   1.008000   ; qtot 1.106738
 8271         h1    293    ccc     H4   8271 0.10146700   1.008000   ; qtot 1.208205
 8272         h2    293    ccc     H5   8272 0.10960400   1.008000   ; qtot 1.317809
 8273         os    293    ccc     O1   8273 -0.28650000  16.000000   ; qtot 1.031309
 8274         oh    293    ccc     O2   8274 -0.86012500  16.000000   ; qtot 0.171184
 8275         oh    293    ccc     O3   8275 -0.83772800  16.000000   ; qtot -0.666544
 8276         oh    293    ccc     O4   8276 -0.77449700  16.000000   ; qtot -1.441041
 8277         c3    293    ccc     C6   8277 0.37576500  12.010000   ; qtot -1.065276
 8278         ho    293    ccc     H6   8278 0.53656000   1.008000   ; qtot -0.528716
 8279         ho    293    ccc     H7   8279 0.49492100   1.008000   ; qtot -0.033795
 8280         ho    293    ccc     H8   8280 0.51297200   1.008000   ; qtot 0.479177
 8281         h1    293    ccc     H9   8281 0.05653400   1.008000   ; qtot 0.535711
 8282         h1    293    ccc    H10   8282 0.05653400   1.008000   ; qtot 0.592245
 8283         oh    293    ccc     O5   8283 -0.84113600  16.000000   ; qtot -0.248891
 8284         ho    293    ccc    H11   8284 0.51201600   1.008000   ; qtot 0.263125
 8285         os    293    ccc     O6   8285 -0.26013600  16.000000   ; qtot 0.002989
; residue  294 ccc rtp ccc q 0.0
 8286         c3    294    ccc     C1   8286 -0.33178800  12.010000   ; qtot -0.328799
 8287         c3    294    ccc     C2   8287 0.30606500  12.010000   ; qtot -0.022734
 8288         h1    294    ccc     H1   8288 0.11662300   1.008000   ; qtot 0.093889
 8289         h1    294    ccc     H2   8289 0.11526800   1.008000   ; qtot 0.209157
 8290         c3    294    ccc     C3   8290 0.15592700  12.010000   ; qtot 0.365084
 8291         c3    294    ccc     C4   8291 0.28383300  12.010000   ; qtot 0.648917
 8292         c3    294    ccc     C5   8292 0.32403300  12.010000   ; qtot 0.972950
 8293         h1    294    ccc     H3   8293 0.13386900   1.008000   ; qtot 1.106819
 8294         h1    294    ccc     H4   8294 0.10146700   1.008000   ; qtot 1.208286
 8295         h2    294    ccc     H5   8295 0.10960400   1.008000   ; qtot 1.317890
 8296         os    294    ccc     O1   8296 -0.28650000  16.000000   ; qtot 1.031390
 8297         oh    294    ccc     O2   8297 -0.86012500  16.000000   ; qtot 0.171265
 8298         oh    294    ccc     O3   8298 -0.83772800  16.000000   ; qtot -0.666463
 8299         oh    294    ccc     O4   8299 -0.77449700  16.000000   ; qtot -1.440960
 8300         c3    294    ccc     C6   8300 0.37576500  12.010000   ; qtot -1.065195
 8301         ho    294    ccc     H6   8301 0.53656000   1.008000   ; qtot -0.528635
 8302         ho    294    ccc     H7   8302 0.49492100   1.008000   ; qtot -0.033714
 8303         ho    294    ccc     H8   8303 0.51297200   1.008000   ; qtot 0.479258
 8304         h1    294    ccc     H9   8304 0.05653400   1.008000   ; qtot 0.535792
 8305         h1    294    ccc    H10   8305 0.05653400   1.008000   ; qtot 0.592326
 8306         oh    294    ccc     O5   8306 -0.84113600  16.000000   ; qtot -0.248810
 8307         ho    294    ccc    H11   8307 0.51201600   1.008000   ; qtot 0.263206
 8308         os    294    ccc     O6   8308 -0.26013600  16.000000   ; qtot 0.003070
; residue  295 ccc rtp ccc q 0.0
 8309         c3    295    ccc     C1   8309 -0.33178800  12.010000   ; qtot -0.328718
 8310         c3    295    ccc     C2   8310 0.30606500  12.010000   ; qtot -0.022653
 8311         h1    295    ccc     H1   8311 0.11662300   1.008000   ; qtot 0.093970
 8312         h1    295    ccc     H2   8312 0.11526800   1.008000   ; qtot 0.209238
 8313         c3    295    ccc     C3   8313 0.15592700  12.010000   ; qtot 0.365165
 8314         c3    295    ccc     C4   8314 0.28383300  12.010000   ; qtot 0.648998
 8315         c3    295    ccc     C5   8315 0.32403300  12.010000   ; qtot 0.973031
 8316         h1    295    ccc     H3   8316 0.13386900   1.008000   ; qtot 1.106900
 8317         h1    295    ccc     H4   8317 0.10146700   1.008000   ; qtot 1.208367
 8318         h2    295    ccc     H5   8318 0.10960400   1.008000   ; qtot 1.317971
 8319         os    295    ccc     O1   8319 -0.28650000  16.000000   ; qtot 1.031471
 8320         oh    295    ccc     O2   8320 -0.86012500  16.000000   ; qtot 0.171346
 8321         oh    295    ccc     O3   8321 -0.83772800  16.000000   ; qtot -0.666382
 8322         oh    295    ccc     O4   8322 -0.77449700  16.000000   ; qtot -1.440879
 8323         c3    295    ccc     C6   8323 0.37576500  12.010000   ; qtot -1.065114
 8324         ho    295    ccc     H6   8324 0.53656000   1.008000   ; qtot -0.528554
 8325         ho    295    ccc     H7   8325 0.49492100   1.008000   ; qtot -0.033633
 8326         ho    295    ccc     H8   8326 0.51297200   1.008000   ; qtot 0.479339
 8327         h1    295    ccc     H9   8327 0.05653400   1.008000   ; qtot 0.535873
 8328         h1    295    ccc    H10   8328 0.05653400   1.008000   ; qtot 0.592407
 8329         oh    295    ccc     O5   8329 -0.84113600  16.000000   ; qtot -0.248729
 8330         ho    295    ccc    H11   8330 0.51201600   1.008000   ; qtot 0.263287
 8331         os    295    ccc     O6   8331 -0.26013600  16.000000   ; qtot 0.003151
; residue  296 ccc rtp ccc q 0.0
 8332         c3    296    ccc     C1   8332 -0.33178800  12.010000   ; qtot -0.328637
 8333         c3    296    ccc     C2   8333 0.30606500  12.010000   ; qtot -0.022572
 8334         h1    296    ccc     H1   8334 0.11662300   1.008000   ; qtot 0.094051
 8335         h1    296    ccc     H2   8335 0.11526800   1.008000   ; qtot 0.209319
 8336         c3    296    ccc     C3   8336 0.15592700  12.010000   ; qtot 0.365246
 8337         c3    296    ccc     C4   8337 0.28383300  12.010000   ; qtot 0.649079
 8338         c3    296    ccc     C5   8338 0.32403300  12.010000   ; qtot 0.973112
 8339         h1    296    ccc     H3   8339 0.13386900   1.008000   ; qtot 1.106981
 8340         h1    296    ccc     H4   8340 0.10146700   1.008000   ; qtot 1.208448
 8341         h2    296    ccc     H5   8341 0.10960400   1.008000   ; qtot 1.318052
 8342         os    296    ccc     O1   8342 -0.28650000  16.000000   ; qtot 1.031552
 8343         oh    296    ccc     O2   8343 -0.86012500  16.000000   ; qtot 0.171427
 8344         oh    296    ccc     O3   8344 -0.83772800  16.000000   ; qtot -0.666301
 8345         oh    296    ccc     O4   8345 -0.77449700  16.000000   ; qtot -1.440798
 8346         c3    296    ccc     C6   8346 0.37576500  12.010000   ; qtot -1.065033
 8347         ho    296    ccc     H6   8347 0.53656000   1.008000   ; qtot -0.528473
 8348         ho    296    ccc     H7   8348 0.49492100   1.008000   ; qtot -0.033552
 8349         ho    296    ccc     H8   8349 0.51297200   1.008000   ; qtot 0.479420
 8350         h1    296    ccc     H9   8350 0.05653400   1.008000   ; qtot 0.535954
 8351         h1    296    ccc    H10   8351 0.05653400   1.008000   ; qtot 0.592488
 8352         oh    296    ccc     O5   8352 -0.84113600  16.000000   ; qtot -0.248648
 8353         ho    296    ccc    H11   8353 0.51201600   1.008000   ; qtot 0.263368
 8354         os    296    ccc     O6   8354 -0.26013600  16.000000   ; qtot 0.003232
; residue  297 ccc rtp ccc q 0.0
 8355         c3    297    ccc     C1   8355 -0.33178800  12.010000   ; qtot -0.328556
 8356         c3    297    ccc     C2   8356 0.30606500  12.010000   ; qtot -0.022491
 8357         h1    297    ccc     H1   8357 0.11662300   1.008000   ; qtot 0.094132
 8358         h1    297    ccc     H2   8358 0.11526800   1.008000   ; qtot 0.209400
 8359         c3    297    ccc     C3   8359 0.15592700  12.010000   ; qtot 0.365327
 8360         c3    297    ccc     C4   8360 0.28383300  12.010000   ; qtot 0.649160
 8361         c3    297    ccc     C5   8361 0.32403300  12.010000   ; qtot 0.973193
 8362         h1    297    ccc     H3   8362 0.13386900   1.008000   ; qtot 1.107062
 8363         h1    297    ccc     H4   8363 0.10146700   1.008000   ; qtot 1.208529
 8364         h2    297    ccc     H5   8364 0.10960400   1.008000   ; qtot 1.318133
 8365         os    297    ccc     O1   8365 -0.28650000  16.000000   ; qtot 1.031633
 8366         oh    297    ccc     O2   8366 -0.86012500  16.000000   ; qtot 0.171508
 8367         oh    297    ccc     O3   8367 -0.83772800  16.000000   ; qtot -0.666220
 8368         oh    297    ccc     O4   8368 -0.77449700  16.000000   ; qtot -1.440717
 8369         c3    297    ccc     C6   8369 0.37576500  12.010000   ; qtot -1.064952
 8370         ho    297    ccc     H6   8370 0.53656000   1.008000   ; qtot -0.528392
 8371         ho    297    ccc     H7   8371 0.49492100   1.008000   ; qtot -0.033471
 8372         ho    297    ccc     H8   8372 0.51297200   1.008000   ; qtot 0.479501
 8373         h1    297    ccc     H9   8373 0.05653400   1.008000   ; qtot 0.536035
 8374         h1    297    ccc    H10   8374 0.05653400   1.008000   ; qtot 0.592569
 8375         oh    297    ccc     O5   8375 -0.84113600  16.000000   ; qtot -0.248567
 8376         ho    297    ccc    H11   8376 0.51201600   1.008000   ; qtot 0.263449
 8377         os    297    ccc     O6   8377 -0.26013600  16.000000   ; qtot 0.003313
; residue  298 ccc rtp ccc q 0.0
 8378         c3    298    ccc     C1   8378 -0.33178800  12.010000   ; qtot -0.328475
 8379         c3    298    ccc     C2   8379 0.30606500  12.010000   ; qtot -0.022410
 8380         h1    298    ccc     H1   8380 0.11662300   1.008000   ; qtot 0.094213
 8381         h1    298    ccc     H2   8381 0.11526800   1.008000   ; qtot 0.209481
 8382         c3    298    ccc     C3   8382 0.15592700  12.010000   ; qtot 0.365408
 8383         c3    298    ccc     C4   8383 0.28383300  12.010000   ; qtot 0.649241
 8384         c3    298    ccc     C5   8384 0.32403300  12.010000   ; qtot 0.973274
 8385         h1    298    ccc     H3   8385 0.13386900   1.008000   ; qtot 1.107143
 8386         h1    298    ccc     H4   8386 0.10146700   1.008000   ; qtot 1.208610
 8387         h2    298    ccc     H5   8387 0.10960400   1.008000   ; qtot 1.318214
 8388         os    298    ccc     O1   8388 -0.28650000  16.000000   ; qtot 1.031714
 8389         oh    298    ccc     O2   8389 -0.86012500  16.000000   ; qtot 0.171589
 8390         oh    298    ccc     O3   8390 -0.83772800  16.000000   ; qtot -0.666139
 8391         oh    298    ccc     O4   8391 -0.77449700  16.000000   ; qtot -1.440636
 8392         c3    298    ccc     C6   8392 0.37576500  12.010000   ; qtot -1.064871
 8393         ho    298    ccc     H6   8393 0.53656000   1.008000   ; qtot -0.528311
 8394         ho    298    ccc     H7   8394 0.49492100   1.008000   ; qtot -0.033390
 8395         ho    298    ccc     H8   8395 0.51297200   1.008000   ; qtot 0.479582
 8396         h1    298    ccc     H9   8396 0.05653400   1.008000   ; qtot 0.536116
 8397         h1    298    ccc    H10   8397 0.05653400   1.008000   ; qtot 0.592650
 8398         oh    298    ccc     O5   8398 -0.84113600  16.000000   ; qtot -0.248486
 8399         ho    298    ccc    H11   8399 0.51201600   1.008000   ; qtot 0.263530
 8400         os    298    ccc     O6   8400 -0.26013600  16.000000   ; qtot 0.003394
; residue  299 ccc rtp ccc q 0.0
 8401         c3    299    ccc     C1   8401 -0.33178800  12.010000   ; qtot -0.328394
 8402         c3    299    ccc     C2   8402 0.30606500  12.010000   ; qtot -0.022329
 8403         h1    299    ccc     H1   8403 0.11662300   1.008000   ; qtot 0.094294
 8404         h1    299    ccc     H2   8404 0.11526800   1.008000   ; qtot 0.209562
 8405         c3    299    ccc     C3   8405 0.15592700  12.010000   ; qtot 0.365489
 8406         c3    299    ccc     C4   8406 0.28383300  12.010000   ; qtot 0.649322
 8407         c3    299    ccc     C5   8407 0.32403300  12.010000   ; qtot 0.973355
 8408         h1    299    ccc     H3   8408 0.13386900   1.008000   ; qtot 1.107224
 8409         h1    299    ccc     H4   8409 0.10146700   1.008000   ; qtot 1.208691
 8410         h2    299    ccc     H5   8410 0.10960400   1.008000   ; qtot 1.318295
 8411         os    299    ccc     O1   8411 -0.28650000  16.000000   ; qtot 1.031795
 8412         oh    299    ccc     O2   8412 -0.86012500  16.000000   ; qtot 0.171670
 8413         oh    299    ccc     O3   8413 -0.83772800  16.000000   ; qtot -0.666058
 8414         oh    299    ccc     O4   8414 -0.77449700  16.000000   ; qtot -1.440555
 8415         c3    299    ccc     C6   8415 0.37576500  12.010000   ; qtot -1.064790
 8416         ho    299    ccc     H6   8416 0.53656000   1.008000   ; qtot -0.528230
 8417         ho    299    ccc     H7   8417 0.49492100   1.008000   ; qtot -0.033309
 8418         ho    299    ccc     H8   8418 0.51297200   1.008000   ; qtot 0.479663
 8419         h1    299    ccc     H9   8419 0.05653400   1.008000   ; qtot 0.536197
 8420         h1    299    ccc    H10   8420 0.05653400   1.008000   ; qtot 0.592731
 8421         oh    299    ccc     O5   8421 -0.84113600  16.000000   ; qtot -0.248405
 8422         ho    299    ccc    H11   8422 0.51201600   1.008000   ; qtot 0.263611
 8423         os    299    ccc     O6   8423 -0.26013600  16.000000   ; qtot 0.003475
; residue  300 ccc rtp ccc q 0.0
 8424         c3    300    ccc     C1   8424 -0.33178800  12.010000   ; qtot -0.328313
 8425         c3    300    ccc     C2   8425 0.30606500  12.010000   ; qtot -0.022248
 8426         h1    300    ccc     H1   8426 0.11662300   1.008000   ; qtot 0.094375
 8427         h1    300    ccc     H2   8427 0.11526800   1.008000   ; qtot 0.209643
 8428         c3    300    ccc     C3   8428 0.15592700  12.010000   ; qtot 0.365570
 8429         c3    300    ccc     C4   8429 0.28383300  12.010000   ; qtot 0.649403
 8430         c3    300    ccc     C5   8430 0.32403300  12.010000   ; qtot 0.973436
 8431         h1    300    ccc     H3   8431 0.13386900   1.008000   ; qtot 1.107305
 8432         h1    300    ccc     H4   8432 0.10146700   1.008000   ; qtot 1.208772
 8433         h2    300    ccc     H5   8433 0.10960400   1.008000   ; qtot 1.318376
 8434         os    300    ccc     O1   8434 -0.28650000  16.000000   ; qtot 1.031876
 8435         oh    300    ccc     O2   8435 -0.86012500  16.000000   ; qtot 0.171751
 8436         oh    300    ccc     O3   8436 -0.83772800  16.000000   ; qtot -0.665977
 8437         oh    300    ccc     O4   8437 -0.77449700  16.000000   ; qtot -1.440474
 8438         c3    300    ccc     C6   8438 0.37576500  12.010000   ; qtot -1.064709
 8439         ho    300    ccc     H6   8439 0.53656000   1.008000   ; qtot -0.528149
 8440         ho    300    ccc     H7   8440 0.49492100   1.008000   ; qtot -0.033228
 8441         ho    300    ccc     H8   8441 0.51297200   1.008000   ; qtot 0.479744
 8442         h1    300    ccc     H9   8442 0.05653400   1.008000   ; qtot 0.536278
 8443         h1    300    ccc    H10   8443 0.05653400   1.008000   ; qtot 0.592812
 8444         oh    300    ccc     O5   8444 -0.84113600  16.000000   ; qtot -0.248324
 8445         ho    300    ccc    H11   8445 0.51201600   1.008000   ; qtot 0.263692
 8446         os    300    ccc     O6   8446 -0.26013600  16.000000   ; qtot 0.003556
; residue  301 ccc rtp ccc q 0.0
 8447         c3    301    ccc     C1   8447 -0.33178800  12.010000   ; qtot -0.328232
 8448         c3    301    ccc     C2   8448 0.30606500  12.010000   ; qtot -0.022167
 8449         h1    301    ccc     H1   8449 0.11662300   1.008000   ; qtot 0.094456
 8450         h1    301    ccc     H2   8450 0.11526800   1.008000   ; qtot 0.209724
 8451         c3    301    ccc     C3   8451 0.15592700  12.010000   ; qtot 0.365651
 8452         c3    301    ccc     C4   8452 0.28383300  12.010000   ; qtot 0.649484
 8453         c3    301    ccc     C5   8453 0.32403300  12.010000   ; qtot 0.973517
 8454         h1    301    ccc     H3   8454 0.13386900   1.008000   ; qtot 1.107386
 8455         h1    301    ccc     H4   8455 0.10146700   1.008000   ; qtot 1.208853
 8456         h2    301    ccc     H5   8456 0.10960400   1.008000   ; qtot 1.318457
 8457         os    301    ccc     O1   8457 -0.28650000  16.000000   ; qtot 1.031957
 8458         oh    301    ccc     O2   8458 -0.86012500  16.000000   ; qtot 0.171832
 8459         oh    301    ccc     O3   8459 -0.83772800  16.000000   ; qtot -0.665896
 8460         oh    301    ccc     O4   8460 -0.77449700  16.000000   ; qtot -1.440393
 8461         c3    301    ccc     C6   8461 0.37576500  12.010000   ; qtot -1.064628
 8462         ho    301    ccc     H6   8462 0.53656000   1.008000   ; qtot -0.528068
 8463         ho    301    ccc     H7   8463 0.49492100   1.008000   ; qtot -0.033147
 8464         ho    301    ccc     H8   8464 0.51297200   1.008000   ; qtot 0.479825
 8465         h1    301    ccc     H9   8465 0.05653400   1.008000   ; qtot 0.536359
 8466         h1    301    ccc    H10   8466 0.05653400   1.008000   ; qtot 0.592893
 8467         oh    301    ccc     O5   8467 -0.84113600  16.000000   ; qtot -0.248243
 8468         ho    301    ccc    H11   8468 0.51201600   1.008000   ; qtot 0.263773
 8469         os    301    ccc     O6   8469 -0.26013600  16.000000   ; qtot 0.003637
; residue  302 ccc rtp ccc q 0.0
 8470         c3    302    ccc     C1   8470 -0.33178800  12.010000   ; qtot -0.328151
 8471         c3    302    ccc     C2   8471 0.30606500  12.010000   ; qtot -0.022086
 8472         h1    302    ccc     H1   8472 0.11662300   1.008000   ; qtot 0.094537
 8473         h1    302    ccc     H2   8473 0.11526800   1.008000   ; qtot 0.209805
 8474         c3    302    ccc     C3   8474 0.15592700  12.010000   ; qtot 0.365732
 8475         c3    302    ccc     C4   8475 0.28383300  12.010000   ; qtot 0.649565
 8476         c3    302    ccc     C5   8476 0.32403300  12.010000   ; qtot 0.973598
 8477         h1    302    ccc     H3   8477 0.13386900   1.008000   ; qtot 1.107467
 8478         h1    302    ccc     H4   8478 0.10146700   1.008000   ; qtot 1.208934
 8479         h2    302    ccc     H5   8479 0.10960400   1.008000   ; qtot 1.318538
 8480         os    302    ccc     O1   8480 -0.28650000  16.000000   ; qtot 1.032038
 8481         oh    302    ccc     O2   8481 -0.86012500  16.000000   ; qtot 0.171913
 8482         oh    302    ccc     O3   8482 -0.83772800  16.000000   ; qtot -0.665815
 8483         oh    302    ccc     O4   8483 -0.77449700  16.000000   ; qtot -1.440312
 8484         c3    302    ccc     C6   8484 0.37576500  12.010000   ; qtot -1.064547
 8485         ho    302    ccc     H6   8485 0.53656000   1.008000   ; qtot -0.527987
 8486         ho    302    ccc     H7   8486 0.49492100   1.008000   ; qtot -0.033066
 8487         ho    302    ccc     H8   8487 0.51297200   1.008000   ; qtot 0.479906
 8488         h1    302    ccc     H9   8488 0.05653400   1.008000   ; qtot 0.536440
 8489         h1    302    ccc    H10   8489 0.05653400   1.008000   ; qtot 0.592974
 8490         oh    302    ccc     O5   8490 -0.84113600  16.000000   ; qtot -0.248162
 8491         ho    302    ccc    H11   8491 0.51201600   1.008000   ; qtot 0.263854
 8492         os    302    ccc     O6   8492 -0.26013600  16.000000   ; qtot 0.003718
; residue  303 ccc rtp ccc q 0.0
 8493         c3    303    ccc     C1   8493 -0.33178800  12.010000   ; qtot -0.328070
 8494         c3    303    ccc     C2   8494 0.30606500  12.010000   ; qtot -0.022005
 8495         h1    303    ccc     H1   8495 0.11662300   1.008000   ; qtot 0.094618
 8496         h1    303    ccc     H2   8496 0.11526800   1.008000   ; qtot 0.209886
 8497         c3    303    ccc     C3   8497 0.15592700  12.010000   ; qtot 0.365813
 8498         c3    303    ccc     C4   8498 0.28383300  12.010000   ; qtot 0.649646
 8499         c3    303    ccc     C5   8499 0.32403300  12.010000   ; qtot 0.973679
 8500         h1    303    ccc     H3   8500 0.13386900   1.008000   ; qtot 1.107548
 8501         h1    303    ccc     H4   8501 0.10146700   1.008000   ; qtot 1.209015
 8502         h2    303    ccc     H5   8502 0.10960400   1.008000   ; qtot 1.318619
 8503         os    303    ccc     O1   8503 -0.28650000  16.000000   ; qtot 1.032119
 8504         oh    303    ccc     O2   8504 -0.86012500  16.000000   ; qtot 0.171994
 8505         oh    303    ccc     O3   8505 -0.83772800  16.000000   ; qtot -0.665734
 8506         oh    303    ccc     O4   8506 -0.77449700  16.000000   ; qtot -1.440231
 8507         c3    303    ccc     C6   8507 0.37576500  12.010000   ; qtot -1.064466
 8508         ho    303    ccc     H6   8508 0.53656000   1.008000   ; qtot -0.527906
 8509         ho    303    ccc     H7   8509 0.49492100   1.008000   ; qtot -0.032985
 8510         ho    303    ccc     H8   8510 0.51297200   1.008000   ; qtot 0.479987
 8511         h1    303    ccc     H9   8511 0.05653400   1.008000   ; qtot 0.536521
 8512         h1    303    ccc    H10   8512 0.05653400   1.008000   ; qtot 0.593055
 8513         oh    303    ccc     O5   8513 -0.84113600  16.000000   ; qtot -0.248081
 8514         ho    303    ccc    H11   8514 0.51201600   1.008000   ; qtot 0.263935
 8515         os    303    ccc     O6   8515 -0.26013600  16.000000   ; qtot 0.003799
; residue  304 ccc rtp ccc q 0.0
 8516         c3    304    ccc     C1   8516 -0.33178800  12.010000   ; qtot -0.327989
 8517         c3    304    ccc     C2   8517 0.30606500  12.010000   ; qtot -0.021924
 8518         h1    304    ccc     H1   8518 0.11662300   1.008000   ; qtot 0.094699
 8519         h1    304    ccc     H2   8519 0.11526800   1.008000   ; qtot 0.209967
 8520         c3    304    ccc     C3   8520 0.15592700  12.010000   ; qtot 0.365894
 8521         c3    304    ccc     C4   8521 0.28383300  12.010000   ; qtot 0.649727
 8522         c3    304    ccc     C5   8522 0.32403300  12.010000   ; qtot 0.973760
 8523         h1    304    ccc     H3   8523 0.13386900   1.008000   ; qtot 1.107629
 8524         h1    304    ccc     H4   8524 0.10146700   1.008000   ; qtot 1.209096
 8525         h2    304    ccc     H5   8525 0.10960400   1.008000   ; qtot 1.318700
 8526         os    304    ccc     O1   8526 -0.28650000  16.000000   ; qtot 1.032200
 8527         oh    304    ccc     O2   8527 -0.86012500  16.000000   ; qtot 0.172075
 8528         oh    304    ccc     O3   8528 -0.83772800  16.000000   ; qtot -0.665653
 8529         oh    304    ccc     O4   8529 -0.77449700  16.000000   ; qtot -1.440150
 8530         c3    304    ccc     C6   8530 0.37576500  12.010000   ; qtot -1.064385
 8531         ho    304    ccc     H6   8531 0.53656000   1.008000   ; qtot -0.527825
 8532         ho    304    ccc     H7   8532 0.49492100   1.008000   ; qtot -0.032904
 8533         ho    304    ccc     H8   8533 0.51297200   1.008000   ; qtot 0.480068
 8534         h1    304    ccc     H9   8534 0.05653400   1.008000   ; qtot 0.536602
 8535         h1    304    ccc    H10   8535 0.05653400   1.008000   ; qtot 0.593136
 8536         oh    304    ccc     O5   8536 -0.84113600  16.000000   ; qtot -0.248000
 8537         ho    304    ccc    H11   8537 0.51201600   1.008000   ; qtot 0.264016
 8538         os    304    ccc     O6   8538 -0.26013600  16.000000   ; qtot 0.003880
; residue  305 ccc rtp ccc q 0.0
 8539         c3    305    ccc     C1   8539 -0.33178800  12.010000   ; qtot -0.327908
 8540         c3    305    ccc     C2   8540 0.30606500  12.010000   ; qtot -0.021843
 8541         h1    305    ccc     H1   8541 0.11662300   1.008000   ; qtot 0.094780
 8542         h1    305    ccc     H2   8542 0.11526800   1.008000   ; qtot 0.210048
 8543         c3    305    ccc     C3   8543 0.15592700  12.010000   ; qtot 0.365975
 8544         c3    305    ccc     C4   8544 0.28383300  12.010000   ; qtot 0.649808
 8545         c3    305    ccc     C5   8545 0.32403300  12.010000   ; qtot 0.973841
 8546         h1    305    ccc     H3   8546 0.13386900   1.008000   ; qtot 1.107710
 8547         h1    305    ccc     H4   8547 0.10146700   1.008000   ; qtot 1.209177
 8548         h2    305    ccc     H5   8548 0.10960400   1.008000   ; qtot 1.318781
 8549         os    305    ccc     O1   8549 -0.28650000  16.000000   ; qtot 1.032281
 8550         oh    305    ccc     O2   8550 -0.86012500  16.000000   ; qtot 0.172156
 8551         oh    305    ccc     O3   8551 -0.83772800  16.000000   ; qtot -0.665572
 8552         oh    305    ccc     O4   8552 -0.77449700  16.000000   ; qtot -1.440069
 8553         c3    305    ccc     C6   8553 0.37576500  12.010000   ; qtot -1.064304
 8554         ho    305    ccc     H6   8554 0.53656000   1.008000   ; qtot -0.527744
 8555         ho    305    ccc     H7   8555 0.49492100   1.008000   ; qtot -0.032823
 8556         ho    305    ccc     H8   8556 0.51297200   1.008000   ; qtot 0.480149
 8557         h1    305    ccc     H9   8557 0.05653400   1.008000   ; qtot 0.536683
 8558         h1    305    ccc    H10   8558 0.05653400   1.008000   ; qtot 0.593217
 8559         oh    305    ccc     O5   8559 -0.84113600  16.000000   ; qtot -0.247919
 8560         ho    305    ccc    H11   8560 0.51201600   1.008000   ; qtot 0.264097
 8561         os    305    ccc     O6   8561 -0.26013600  16.000000   ; qtot 0.003961
; residue  306 ccc rtp ccc q 0.0
 8562         c3    306    ccc     C1   8562 -0.33178800  12.010000   ; qtot -0.327827
 8563         c3    306    ccc     C2   8563 0.30606500  12.010000   ; qtot -0.021762
 8564         h1    306    ccc     H1   8564 0.11662300   1.008000   ; qtot 0.094861
 8565         h1    306    ccc     H2   8565 0.11526800   1.008000   ; qtot 0.210129
 8566         c3    306    ccc     C3   8566 0.15592700  12.010000   ; qtot 0.366056
 8567         c3    306    ccc     C4   8567 0.28383300  12.010000   ; qtot 0.649889
 8568         c3    306    ccc     C5   8568 0.32403300  12.010000   ; qtot 0.973922
 8569         h1    306    ccc     H3   8569 0.13386900   1.008000   ; qtot 1.107791
 8570         h1    306    ccc     H4   8570 0.10146700   1.008000   ; qtot 1.209258
 8571         h2    306    ccc     H5   8571 0.10960400   1.008000   ; qtot 1.318862
 8572         os    306    ccc     O1   8572 -0.28650000  16.000000   ; qtot 1.032362
 8573         oh    306    ccc     O2   8573 -0.86012500  16.000000   ; qtot 0.172237
 8574         oh    306    ccc     O3   8574 -0.83772800  16.000000   ; qtot -0.665491
 8575         oh    306    ccc     O4   8575 -0.77449700  16.000000   ; qtot -1.439988
 8576         c3    306    ccc     C6   8576 0.37576500  12.010000   ; qtot -1.064223
 8577         ho    306    ccc     H6   8577 0.53656000   1.008000   ; qtot -0.527663
 8578         ho    306    ccc     H7   8578 0.49492100   1.008000   ; qtot -0.032742
 8579         ho    306    ccc     H8   8579 0.51297200   1.008000   ; qtot 0.480230
 8580         h1    306    ccc     H9   8580 0.05653400   1.008000   ; qtot 0.536764
 8581         h1    306    ccc    H10   8581 0.05653400   1.008000   ; qtot 0.593298
 8582         oh    306    ccc     O5   8582 -0.84113600  16.000000   ; qtot -0.247838
 8583         ho    306    ccc    H11   8583 0.51201600   1.008000   ; qtot 0.264178
 8584         os    306    ccc     O6   8584 -0.26013600  16.000000   ; qtot 0.004042
; residue  307 ccc rtp ccc q 0.0
 8585         c3    307    ccc     C1   8585 -0.33178800  12.010000   ; qtot -0.327746
 8586         c3    307    ccc     C2   8586 0.30606500  12.010000   ; qtot -0.021681
 8587         h1    307    ccc     H1   8587 0.11662300   1.008000   ; qtot 0.094942
 8588         h1    307    ccc     H2   8588 0.11526800   1.008000   ; qtot 0.210210
 8589         c3    307    ccc     C3   8589 0.15592700  12.010000   ; qtot 0.366137
 8590         c3    307    ccc     C4   8590 0.28383300  12.010000   ; qtot 0.649970
 8591         c3    307    ccc     C5   8591 0.32403300  12.010000   ; qtot 0.974003
 8592         h1    307    ccc     H3   8592 0.13386900   1.008000   ; qtot 1.107872
 8593         h1    307    ccc     H4   8593 0.10146700   1.008000   ; qtot 1.209339
 8594         h2    307    ccc     H5   8594 0.10960400   1.008000   ; qtot 1.318943
 8595         os    307    ccc     O1   8595 -0.28650000  16.000000   ; qtot 1.032443
 8596         oh    307    ccc     O2   8596 -0.86012500  16.000000   ; qtot 0.172318
 8597         oh    307    ccc     O3   8597 -0.83772800  16.000000   ; qtot -0.665410
 8598         oh    307    ccc     O4   8598 -0.77449700  16.000000   ; qtot -1.439907
 8599         c3    307    ccc     C6   8599 0.37576500  12.010000   ; qtot -1.064142
 8600         ho    307    ccc     H6   8600 0.53656000   1.008000   ; qtot -0.527582
 8601         ho    307    ccc     H7   8601 0.49492100   1.008000   ; qtot -0.032661
 8602         ho    307    ccc     H8   8602 0.51297200   1.008000   ; qtot 0.480311
 8603         h1    307    ccc     H9   8603 0.05653400   1.008000   ; qtot 0.536845
 8604         h1    307    ccc    H10   8604 0.05653400   1.008000   ; qtot 0.593379
 8605         oh    307    ccc     O5   8605 -0.84113600  16.000000   ; qtot -0.247757
 8606         ho    307    ccc    H11   8606 0.51201600   1.008000   ; qtot 0.264259
 8607         os    307    ccc     O6   8607 -0.26013600  16.000000   ; qtot 0.004123
; residue  308 ccc rtp ccc q 0.0
 8608         c3    308    ccc     C1   8608 -0.33178800  12.010000   ; qtot -0.327665
 8609         c3    308    ccc     C2   8609 0.30606500  12.010000   ; qtot -0.021600
 8610         h1    308    ccc     H1   8610 0.11662300   1.008000   ; qtot 0.095023
 8611         h1    308    ccc     H2   8611 0.11526800   1.008000   ; qtot 0.210291
 8612         c3    308    ccc     C3   8612 0.15592700  12.010000   ; qtot 0.366218
 8613         c3    308    ccc     C4   8613 0.28383300  12.010000   ; qtot 0.650051
 8614         c3    308    ccc     C5   8614 0.32403300  12.010000   ; qtot 0.974084
 8615         h1    308    ccc     H3   8615 0.13386900   1.008000   ; qtot 1.107953
 8616         h1    308    ccc     H4   8616 0.10146700   1.008000   ; qtot 1.209420
 8617         h2    308    ccc     H5   8617 0.10960400   1.008000   ; qtot 1.319024
 8618         os    308    ccc     O1   8618 -0.28650000  16.000000   ; qtot 1.032524
 8619         oh    308    ccc     O2   8619 -0.86012500  16.000000   ; qtot 0.172399
 8620         oh    308    ccc     O3   8620 -0.83772800  16.000000   ; qtot -0.665329
 8621         oh    308    ccc     O4   8621 -0.77449700  16.000000   ; qtot -1.439826
 8622         c3    308    ccc     C6   8622 0.37576500  12.010000   ; qtot -1.064061
 8623         ho    308    ccc     H6   8623 0.53656000   1.008000   ; qtot -0.527501
 8624         ho    308    ccc     H7   8624 0.49492100   1.008000   ; qtot -0.032580
 8625         ho    308    ccc     H8   8625 0.51297200   1.008000   ; qtot 0.480392
 8626         h1    308    ccc     H9   8626 0.05653400   1.008000   ; qtot 0.536926
 8627         h1    308    ccc    H10   8627 0.05653400   1.008000   ; qtot 0.593460
 8628         oh    308    ccc     O5   8628 -0.84113600  16.000000   ; qtot -0.247676
 8629         ho    308    ccc    H11   8629 0.51201600   1.008000   ; qtot 0.264340
 8630         os    308    ccc     O6   8630 -0.26013600  16.000000   ; qtot 0.004204
; residue  309 ccc rtp ccc q 0.0
 8631         c3    309    ccc     C1   8631 -0.33178800  12.010000   ; qtot -0.327584
 8632         c3    309    ccc     C2   8632 0.30606500  12.010000   ; qtot -0.021519
 8633         h1    309    ccc     H1   8633 0.11662300   1.008000   ; qtot 0.095104
 8634         h1    309    ccc     H2   8634 0.11526800   1.008000   ; qtot 0.210372
 8635         c3    309    ccc     C3   8635 0.15592700  12.010000   ; qtot 0.366299
 8636         c3    309    ccc     C4   8636 0.28383300  12.010000   ; qtot 0.650132
 8637         c3    309    ccc     C5   8637 0.32403300  12.010000   ; qtot 0.974165
 8638         h1    309    ccc     H3   8638 0.13386900   1.008000   ; qtot 1.108034
 8639         h1    309    ccc     H4   8639 0.10146700   1.008000   ; qtot 1.209501
 8640         h2    309    ccc     H5   8640 0.10960400   1.008000   ; qtot 1.319105
 8641         os    309    ccc     O1   8641 -0.28650000  16.000000   ; qtot 1.032605
 8642         oh    309    ccc     O2   8642 -0.86012500  16.000000   ; qtot 0.172480
 8643         oh    309    ccc     O3   8643 -0.83772800  16.000000   ; qtot -0.665248
 8644         oh    309    ccc     O4   8644 -0.77449700  16.000000   ; qtot -1.439745
 8645         c3    309    ccc     C6   8645 0.37576500  12.010000   ; qtot -1.063980
 8646         ho    309    ccc     H6   8646 0.53656000   1.008000   ; qtot -0.527420
 8647         ho    309    ccc     H7   8647 0.49492100   1.008000   ; qtot -0.032499
 8648         ho    309    ccc     H8   8648 0.51297200   1.008000   ; qtot 0.480473
 8649         h1    309    ccc     H9   8649 0.05653400   1.008000   ; qtot 0.537007
 8650         h1    309    ccc    H10   8650 0.05653400   1.008000   ; qtot 0.593541
 8651         oh    309    ccc     O5   8651 -0.84113600  16.000000   ; qtot -0.247595
 8652         ho    309    ccc    H11   8652 0.51201600   1.008000   ; qtot 0.264421
 8653         os    309    ccc     O6   8653 -0.26013600  16.000000   ; qtot 0.004285
; residue  310 ccc rtp ccc q 0.0
 8654         c3    310    ccc     C1   8654 -0.33178800  12.010000   ; qtot -0.327503
 8655         c3    310    ccc     C2   8655 0.30606500  12.010000   ; qtot -0.021438
 8656         h1    310    ccc     H1   8656 0.11662300   1.008000   ; qtot 0.095185
 8657         h1    310    ccc     H2   8657 0.11526800   1.008000   ; qtot 0.210453
 8658         c3    310    ccc     C3   8658 0.15592700  12.010000   ; qtot 0.366380
 8659         c3    310    ccc     C4   8659 0.28383300  12.010000   ; qtot 0.650213
 8660         c3    310    ccc     C5   8660 0.32403300  12.010000   ; qtot 0.974246
 8661         h1    310    ccc     H3   8661 0.13386900   1.008000   ; qtot 1.108115
 8662         h1    310    ccc     H4   8662 0.10146700   1.008000   ; qtot 1.209582
 8663         h2    310    ccc     H5   8663 0.10960400   1.008000   ; qtot 1.319186
 8664         os    310    ccc     O1   8664 -0.28650000  16.000000   ; qtot 1.032686
 8665         oh    310    ccc     O2   8665 -0.86012500  16.000000   ; qtot 0.172561
 8666         oh    310    ccc     O3   8666 -0.83772800  16.000000   ; qtot -0.665167
 8667         oh    310    ccc     O4   8667 -0.77449700  16.000000   ; qtot -1.439664
 8668         c3    310    ccc     C6   8668 0.37576500  12.010000   ; qtot -1.063899
 8669         ho    310    ccc     H6   8669 0.53656000   1.008000   ; qtot -0.527339
 8670         ho    310    ccc     H7   8670 0.49492100   1.008000   ; qtot -0.032418
 8671         ho    310    ccc     H8   8671 0.51297200   1.008000   ; qtot 0.480554
 8672         h1    310    ccc     H9   8672 0.05653400   1.008000   ; qtot 0.537088
 8673         h1    310    ccc    H10   8673 0.05653400   1.008000   ; qtot 0.593622
 8674         oh    310    ccc     O5   8674 -0.84113600  16.000000   ; qtot -0.247514
 8675         ho    310    ccc    H11   8675 0.51201600   1.008000   ; qtot 0.264502
 8676         os    310    ccc     O6   8676 -0.26013600  16.000000   ; qtot 0.004366
; residue  311 ccc rtp ccc q 0.0
 8677         c3    311    ccc     C1   8677 -0.33178800  12.010000   ; qtot -0.327422
 8678         c3    311    ccc     C2   8678 0.30606500  12.010000   ; qtot -0.021357
 8679         h1    311    ccc     H1   8679 0.11662300   1.008000   ; qtot 0.095266
 8680         h1    311    ccc     H2   8680 0.11526800   1.008000   ; qtot 0.210534
 8681         c3    311    ccc     C3   8681 0.15592700  12.010000   ; qtot 0.366461
 8682         c3    311    ccc     C4   8682 0.28383300  12.010000   ; qtot 0.650294
 8683         c3    311    ccc     C5   8683 0.32403300  12.010000   ; qtot 0.974327
 8684         h1    311    ccc     H3   8684 0.13386900   1.008000   ; qtot 1.108196
 8685         h1    311    ccc     H4   8685 0.10146700   1.008000   ; qtot 1.209663
 8686         h2    311    ccc     H5   8686 0.10960400   1.008000   ; qtot 1.319267
 8687         os    311    ccc     O1   8687 -0.28650000  16.000000   ; qtot 1.032767
 8688         oh    311    ccc     O2   8688 -0.86012500  16.000000   ; qtot 0.172642
 8689         oh    311    ccc     O3   8689 -0.83772800  16.000000   ; qtot -0.665086
 8690         oh    311    ccc     O4   8690 -0.77449700  16.000000   ; qtot -1.439583
 8691         c3    311    ccc     C6   8691 0.37576500  12.010000   ; qtot -1.063818
 8692         ho    311    ccc     H6   8692 0.53656000   1.008000   ; qtot -0.527258
 8693         ho    311    ccc     H7   8693 0.49492100   1.008000   ; qtot -0.032337
 8694         ho    311    ccc     H8   8694 0.51297200   1.008000   ; qtot 0.480635
 8695         h1    311    ccc     H9   8695 0.05653400   1.008000   ; qtot 0.537169
 8696         h1    311    ccc    H10   8696 0.05653400   1.008000   ; qtot 0.593703
 8697         oh    311    ccc     O5   8697 -0.84113600  16.000000   ; qtot -0.247433
 8698         ho    311    ccc    H11   8698 0.51201600   1.008000   ; qtot 0.264583
 8699         os    311    ccc     O6   8699 -0.26013600  16.000000   ; qtot 0.004447
; residue  312 ccc rtp ccc q 0.0
 8700         c3    312    ccc     C1   8700 -0.33178800  12.010000   ; qtot -0.327341
 8701         c3    312    ccc     C2   8701 0.30606500  12.010000   ; qtot -0.021276
 8702         h1    312    ccc     H1   8702 0.11662300   1.008000   ; qtot 0.095347
 8703         h1    312    ccc     H2   8703 0.11526800   1.008000   ; qtot 0.210615
 8704         c3    312    ccc     C3   8704 0.15592700  12.010000   ; qtot 0.366542
 8705         c3    312    ccc     C4   8705 0.28383300  12.010000   ; qtot 0.650375
 8706         c3    312    ccc     C5   8706 0.32403300  12.010000   ; qtot 0.974408
 8707         h1    312    ccc     H3   8707 0.13386900   1.008000   ; qtot 1.108277
 8708         h1    312    ccc     H4   8708 0.10146700   1.008000   ; qtot 1.209744
 8709         h2    312    ccc     H5   8709 0.10960400   1.008000   ; qtot 1.319348
 8710         os    312    ccc     O1   8710 -0.28650000  16.000000   ; qtot 1.032848
 8711         oh    312    ccc     O2   8711 -0.86012500  16.000000   ; qtot 0.172723
 8712         oh    312    ccc     O3   8712 -0.83772800  16.000000   ; qtot -0.665005
 8713         oh    312    ccc     O4   8713 -0.77449700  16.000000   ; qtot -1.439502
 8714         c3    312    ccc     C6   8714 0.37576500  12.010000   ; qtot -1.063737
 8715         ho    312    ccc     H6   8715 0.53656000   1.008000   ; qtot -0.527177
 8716         ho    312    ccc     H7   8716 0.49492100   1.008000   ; qtot -0.032256
 8717         ho    312    ccc     H8   8717 0.51297200   1.008000   ; qtot 0.480716
 8718         h1    312    ccc     H9   8718 0.05653400   1.008000   ; qtot 0.537250
 8719         h1    312    ccc    H10   8719 0.05653400   1.008000   ; qtot 0.593784
 8720         oh    312    ccc     O5   8720 -0.84113600  16.000000   ; qtot -0.247352
 8721         ho    312    ccc    H11   8721 0.51201600   1.008000   ; qtot 0.264664
 8722         os    312    ccc     O6   8722 -0.26013600  16.000000   ; qtot 0.004528
; residue  313 ccc rtp ccc q 0.0
 8723         c3    313    ccc     C1   8723 -0.33178800  12.010000   ; qtot -0.327260
 8724         c3    313    ccc     C2   8724 0.30606500  12.010000   ; qtot -0.021195
 8725         h1    313    ccc     H1   8725 0.11662300   1.008000   ; qtot 0.095428
 8726         h1    313    ccc     H2   8726 0.11526800   1.008000   ; qtot 0.210696
 8727         c3    313    ccc     C3   8727 0.15592700  12.010000   ; qtot 0.366623
 8728         c3    313    ccc     C4   8728 0.28383300  12.010000   ; qtot 0.650456
 8729         c3    313    ccc     C5   8729 0.32403300  12.010000   ; qtot 0.974489
 8730         h1    313    ccc     H3   8730 0.13386900   1.008000   ; qtot 1.108358
 8731         h1    313    ccc     H4   8731 0.10146700   1.008000   ; qtot 1.209825
 8732         h2    313    ccc     H5   8732 0.10960400   1.008000   ; qtot 1.319429
 8733         os    313    ccc     O1   8733 -0.28650000  16.000000   ; qtot 1.032929
 8734         oh    313    ccc     O2   8734 -0.86012500  16.000000   ; qtot 0.172804
 8735         oh    313    ccc     O3   8735 -0.83772800  16.000000   ; qtot -0.664924
 8736         oh    313    ccc     O4   8736 -0.77449700  16.000000   ; qtot -1.439421
 8737         c3    313    ccc     C6   8737 0.37576500  12.010000   ; qtot -1.063656
 8738         ho    313    ccc     H6   8738 0.53656000   1.008000   ; qtot -0.527096
 8739         ho    313    ccc     H7   8739 0.49492100   1.008000   ; qtot -0.032175
 8740         ho    313    ccc     H8   8740 0.51297200   1.008000   ; qtot 0.480797
 8741         h1    313    ccc     H9   8741 0.05653400   1.008000   ; qtot 0.537331
 8742         h1    313    ccc    H10   8742 0.05653400   1.008000   ; qtot 0.593865
 8743         oh    313    ccc     O5   8743 -0.84113600  16.000000   ; qtot -0.247271
 8744         ho    313    ccc    H11   8744 0.51201600   1.008000   ; qtot 0.264745
 8745         os    313    ccc     O6   8745 -0.26013600  16.000000   ; qtot 0.004609
; residue  314 ccc rtp ccc q 0.0
 8746         c3    314    ccc     C1   8746 -0.33178800  12.010000   ; qtot -0.327179
 8747         c3    314    ccc     C2   8747 0.30606500  12.010000   ; qtot -0.021114
 8748         h1    314    ccc     H1   8748 0.11662300   1.008000   ; qtot 0.095509
 8749         h1    314    ccc     H2   8749 0.11526800   1.008000   ; qtot 0.210777
 8750         c3    314    ccc     C3   8750 0.15592700  12.010000   ; qtot 0.366704
 8751         c3    314    ccc     C4   8751 0.28383300  12.010000   ; qtot 0.650537
 8752         c3    314    ccc     C5   8752 0.32403300  12.010000   ; qtot 0.974570
 8753         h1    314    ccc     H3   8753 0.13386900   1.008000   ; qtot 1.108439
 8754         h1    314    ccc     H4   8754 0.10146700   1.008000   ; qtot 1.209906
 8755         h2    314    ccc     H5   8755 0.10960400   1.008000   ; qtot 1.319510
 8756         os    314    ccc     O1   8756 -0.28650000  16.000000   ; qtot 1.033010
 8757         oh    314    ccc     O2   8757 -0.86012500  16.000000   ; qtot 0.172885
 8758         oh    314    ccc     O3   8758 -0.83772800  16.000000   ; qtot -0.664843
 8759         oh    314    ccc     O4   8759 -0.77449700  16.000000   ; qtot -1.439340
 8760         c3    314    ccc     C6   8760 0.37576500  12.010000   ; qtot -1.063575
 8761         ho    314    ccc     H6   8761 0.53656000   1.008000   ; qtot -0.527015
 8762         ho    314    ccc     H7   8762 0.49492100   1.008000   ; qtot -0.032094
 8763         ho    314    ccc     H8   8763 0.51297200   1.008000   ; qtot 0.480878
 8764         h1    314    ccc     H9   8764 0.05653400   1.008000   ; qtot 0.537412
 8765         h1    314    ccc    H10   8765 0.05653400   1.008000   ; qtot 0.593946
 8766         oh    314    ccc     O5   8766 -0.84113600  16.000000   ; qtot -0.247190
 8767         ho    314    ccc    H11   8767 0.51201600   1.008000   ; qtot 0.264826
 8768         os    314    ccc     O6   8768 -0.26013600  16.000000   ; qtot 0.004690
; residue  315 ccc rtp ccc q 0.0
 8769         c3    315    ccc     C1   8769 -0.33178800  12.010000   ; qtot -0.327098
 8770         c3    315    ccc     C2   8770 0.30606500  12.010000   ; qtot -0.021033
 8771         h1    315    ccc     H1   8771 0.11662300   1.008000   ; qtot 0.095590
 8772         h1    315    ccc     H2   8772 0.11526800   1.008000   ; qtot 0.210858
 8773         c3    315    ccc     C3   8773 0.15592700  12.010000   ; qtot 0.366785
 8774         c3    315    ccc     C4   8774 0.28383300  12.010000   ; qtot 0.650618
 8775         c3    315    ccc     C5   8775 0.32403300  12.010000   ; qtot 0.974651
 8776         h1    315    ccc     H3   8776 0.13386900   1.008000   ; qtot 1.108520
 8777         h1    315    ccc     H4   8777 0.10146700   1.008000   ; qtot 1.209987
 8778         h2    315    ccc     H5   8778 0.10960400   1.008000   ; qtot 1.319591
 8779         os    315    ccc     O1   8779 -0.28650000  16.000000   ; qtot 1.033091
 8780         oh    315    ccc     O2   8780 -0.86012500  16.000000   ; qtot 0.172966
 8781         oh    315    ccc     O3   8781 -0.83772800  16.000000   ; qtot -0.664762
 8782         oh    315    ccc     O4   8782 -0.77449700  16.000000   ; qtot -1.439259
 8783         c3    315    ccc     C6   8783 0.37576500  12.010000   ; qtot -1.063494
 8784         ho    315    ccc     H6   8784 0.53656000   1.008000   ; qtot -0.526934
 8785         ho    315    ccc     H7   8785 0.49492100   1.008000   ; qtot -0.032013
 8786         ho    315    ccc     H8   8786 0.51297200   1.008000   ; qtot 0.480959
 8787         h1    315    ccc     H9   8787 0.05653400   1.008000   ; qtot 0.537493
 8788         h1    315    ccc    H10   8788 0.05653400   1.008000   ; qtot 0.594027
 8789         oh    315    ccc     O5   8789 -0.84113600  16.000000   ; qtot -0.247109
 8790         ho    315    ccc    H11   8790 0.51201600   1.008000   ; qtot 0.264907
 8791         os    315    ccc     O6   8791 -0.26013600  16.000000   ; qtot 0.004771
; residue  316 ccc rtp ccc q 0.0
 8792         c3    316    ccc     C1   8792 -0.33178800  12.010000   ; qtot -0.327017
 8793         c3    316    ccc     C2   8793 0.30606500  12.010000   ; qtot -0.020952
 8794         h1    316    ccc     H1   8794 0.11662300   1.008000   ; qtot 0.095671
 8795         h1    316    ccc     H2   8795 0.11526800   1.008000   ; qtot 0.210939
 8796         c3    316    ccc     C3   8796 0.15592700  12.010000   ; qtot 0.366866
 8797         c3    316    ccc     C4   8797 0.28383300  12.010000   ; qtot 0.650699
 8798         c3    316    ccc     C5   8798 0.32403300  12.010000   ; qtot 0.974732
 8799         h1    316    ccc     H3   8799 0.13386900   1.008000   ; qtot 1.108601
 8800         h1    316    ccc     H4   8800 0.10146700   1.008000   ; qtot 1.210068
 8801         h2    316    ccc     H5   8801 0.10960400   1.008000   ; qtot 1.319672
 8802         os    316    ccc     O1   8802 -0.28650000  16.000000   ; qtot 1.033172
 8803         oh    316    ccc     O2   8803 -0.86012500  16.000000   ; qtot 0.173047
 8804         oh    316    ccc     O3   8804 -0.83772800  16.000000   ; qtot -0.664681
 8805         oh    316    ccc     O4   8805 -0.77449700  16.000000   ; qtot -1.439178
 8806         c3    316    ccc     C6   8806 0.37576500  12.010000   ; qtot -1.063413
 8807         ho    316    ccc     H6   8807 0.53656000   1.008000   ; qtot -0.526853
 8808         ho    316    ccc     H7   8808 0.49492100   1.008000   ; qtot -0.031932
 8809         ho    316    ccc     H8   8809 0.51297200   1.008000   ; qtot 0.481040
 8810         h1    316    ccc     H9   8810 0.05653400   1.008000   ; qtot 0.537574
 8811         h1    316    ccc    H10   8811 0.05653400   1.008000   ; qtot 0.594108
 8812         oh    316    ccc     O5   8812 -0.84113600  16.000000   ; qtot -0.247028
 8813         ho    316    ccc    H11   8813 0.51201600   1.008000   ; qtot 0.264988
 8814         os    316    ccc     O6   8814 -0.26013600  16.000000   ; qtot 0.004852
; residue  317 ccc rtp ccc q 0.0
 8815         c3    317    ccc     C1   8815 -0.33178800  12.010000   ; qtot -0.326936
 8816         c3    317    ccc     C2   8816 0.30606500  12.010000   ; qtot -0.020871
 8817         h1    317    ccc     H1   8817 0.11662300   1.008000   ; qtot 0.095752
 8818         h1    317    ccc     H2   8818 0.11526800   1.008000   ; qtot 0.211020
 8819         c3    317    ccc     C3   8819 0.15592700  12.010000   ; qtot 0.366947
 8820         c3    317    ccc     C4   8820 0.28383300  12.010000   ; qtot 0.650780
 8821         c3    317    ccc     C5   8821 0.32403300  12.010000   ; qtot 0.974813
 8822         h1    317    ccc     H3   8822 0.13386900   1.008000   ; qtot 1.108682
 8823         h1    317    ccc     H4   8823 0.10146700   1.008000   ; qtot 1.210149
 8824         h2    317    ccc     H5   8824 0.10960400   1.008000   ; qtot 1.319753
 8825         os    317    ccc     O1   8825 -0.28650000  16.000000   ; qtot 1.033253
 8826         oh    317    ccc     O2   8826 -0.86012500  16.000000   ; qtot 0.173128
 8827         oh    317    ccc     O3   8827 -0.83772800  16.000000   ; qtot -0.664600
 8828         oh    317    ccc     O4   8828 -0.77449700  16.000000   ; qtot -1.439097
 8829         c3    317    ccc     C6   8829 0.37576500  12.010000   ; qtot -1.063332
 8830         ho    317    ccc     H6   8830 0.53656000   1.008000   ; qtot -0.526772
 8831         ho    317    ccc     H7   8831 0.49492100   1.008000   ; qtot -0.031851
 8832         ho    317    ccc     H8   8832 0.51297200   1.008000   ; qtot 0.481121
 8833         h1    317    ccc     H9   8833 0.05653400   1.008000   ; qtot 0.537655
 8834         h1    317    ccc    H10   8834 0.05653400   1.008000   ; qtot 0.594189
 8835         oh    317    ccc     O5   8835 -0.84113600  16.000000   ; qtot -0.246947
 8836         ho    317    ccc    H11   8836 0.51201600   1.008000   ; qtot 0.265069
 8837         os    317    ccc     O6   8837 -0.26013600  16.000000   ; qtot 0.004933
; residue  318 ccc rtp ccc q 0.0
 8838         c3    318    ccc     C1   8838 -0.33178800  12.010000   ; qtot -0.326855
 8839         c3    318    ccc     C2   8839 0.30606500  12.010000   ; qtot -0.020790
 8840         h1    318    ccc     H1   8840 0.11662300   1.008000   ; qtot 0.095833
 8841         h1    318    ccc     H2   8841 0.11526800   1.008000   ; qtot 0.211101
 8842         c3    318    ccc     C3   8842 0.15592700  12.010000   ; qtot 0.367028
 8843         c3    318    ccc     C4   8843 0.28383300  12.010000   ; qtot 0.650861
 8844         c3    318    ccc     C5   8844 0.32403300  12.010000   ; qtot 0.974894
 8845         h1    318    ccc     H3   8845 0.13386900   1.008000   ; qtot 1.108763
 8846         h1    318    ccc     H4   8846 0.10146700   1.008000   ; qtot 1.210230
 8847         h2    318    ccc     H5   8847 0.10960400   1.008000   ; qtot 1.319834
 8848         os    318    ccc     O1   8848 -0.28650000  16.000000   ; qtot 1.033334
 8849         oh    318    ccc     O2   8849 -0.86012500  16.000000   ; qtot 0.173209
 8850         oh    318    ccc     O3   8850 -0.83772800  16.000000   ; qtot -0.664519
 8851         oh    318    ccc     O4   8851 -0.77449700  16.000000   ; qtot -1.439016
 8852         c3    318    ccc     C6   8852 0.37576500  12.010000   ; qtot -1.063251
 8853         ho    318    ccc     H6   8853 0.53656000   1.008000   ; qtot -0.526691
 8854         ho    318    ccc     H7   8854 0.49492100   1.008000   ; qtot -0.031770
 8855         ho    318    ccc     H8   8855 0.51297200   1.008000   ; qtot 0.481202
 8856         h1    318    ccc     H9   8856 0.05653400   1.008000   ; qtot 0.537736
 8857         h1    318    ccc    H10   8857 0.05653400   1.008000   ; qtot 0.594270
 8858         oh    318    ccc     O5   8858 -0.84113600  16.000000   ; qtot -0.246866
 8859         ho    318    ccc    H11   8859 0.51201600   1.008000   ; qtot 0.265150
 8860         os    318    ccc     O6   8860 -0.26013600  16.000000   ; qtot 0.005014
; residue  319 ccc rtp ccc q 0.0
 8861         c3    319    ccc     C1   8861 -0.33178800  12.010000   ; qtot -0.326774
 8862         c3    319    ccc     C2   8862 0.30606500  12.010000   ; qtot -0.020709
 8863         h1    319    ccc     H1   8863 0.11662300   1.008000   ; qtot 0.095914
 8864         h1    319    ccc     H2   8864 0.11526800   1.008000   ; qtot 0.211182
 8865         c3    319    ccc     C3   8865 0.15592700  12.010000   ; qtot 0.367109
 8866         c3    319    ccc     C4   8866 0.28383300  12.010000   ; qtot 0.650942
 8867         c3    319    ccc     C5   8867 0.32403300  12.010000   ; qtot 0.974975
 8868         h1    319    ccc     H3   8868 0.13386900   1.008000   ; qtot 1.108844
 8869         h1    319    ccc     H4   8869 0.10146700   1.008000   ; qtot 1.210311
 8870         h2    319    ccc     H5   8870 0.10960400   1.008000   ; qtot 1.319915
 8871         os    319    ccc     O1   8871 -0.28650000  16.000000   ; qtot 1.033415
 8872         oh    319    ccc     O2   8872 -0.86012500  16.000000   ; qtot 0.173290
 8873         oh    319    ccc     O3   8873 -0.83772800  16.000000   ; qtot -0.664438
 8874         oh    319    ccc     O4   8874 -0.77449700  16.000000   ; qtot -1.438935
 8875         c3    319    ccc     C6   8875 0.37576500  12.010000   ; qtot -1.063170
 8876         ho    319    ccc     H6   8876 0.53656000   1.008000   ; qtot -0.526610
 8877         ho    319    ccc     H7   8877 0.49492100   1.008000   ; qtot -0.031689
 8878         ho    319    ccc     H8   8878 0.51297200   1.008000   ; qtot 0.481283
 8879         h1    319    ccc     H9   8879 0.05653400   1.008000   ; qtot 0.537817
 8880         h1    319    ccc    H10   8880 0.05653400   1.008000   ; qtot 0.594351
 8881         oh    319    ccc     O5   8881 -0.84113600  16.000000   ; qtot -0.246785
 8882         ho    319    ccc    H11   8882 0.51201600   1.008000   ; qtot 0.265231
 8883         os    319    ccc     O6   8883 -0.26013600  16.000000   ; qtot 0.005095
; residue  320 ccc rtp ccc q 0.0
 8884         c3    320    ccc     C1   8884 -0.33178800  12.010000   ; qtot -0.326693
 8885         c3    320    ccc     C2   8885 0.30606500  12.010000   ; qtot -0.020628
 8886         h1    320    ccc     H1   8886 0.11662300   1.008000   ; qtot 0.095995
 8887         h1    320    ccc     H2   8887 0.11526800   1.008000   ; qtot 0.211263
 8888         c3    320    ccc     C3   8888 0.15592700  12.010000   ; qtot 0.367190
 8889         c3    320    ccc     C4   8889 0.28383300  12.010000   ; qtot 0.651023
 8890         c3    320    ccc     C5   8890 0.32403300  12.010000   ; qtot 0.975056
 8891         h1    320    ccc     H3   8891 0.13386900   1.008000   ; qtot 1.108925
 8892         h1    320    ccc     H4   8892 0.10146700   1.008000   ; qtot 1.210392
 8893         h2    320    ccc     H5   8893 0.10960400   1.008000   ; qtot 1.319996
 8894         os    320    ccc     O1   8894 -0.28650000  16.000000   ; qtot 1.033496
 8895         oh    320    ccc     O2   8895 -0.86012500  16.000000   ; qtot 0.173371
 8896         oh    320    ccc     O3   8896 -0.83772800  16.000000   ; qtot -0.664357
 8897         oh    320    ccc     O4   8897 -0.77449700  16.000000   ; qtot -1.438854
 8898         c3    320    ccc     C6   8898 0.37576500  12.010000   ; qtot -1.063089
 8899         ho    320    ccc     H6   8899 0.53656000   1.008000   ; qtot -0.526529
 8900         ho    320    ccc     H7   8900 0.49492100   1.008000   ; qtot -0.031608
 8901         ho    320    ccc     H8   8901 0.51297200   1.008000   ; qtot 0.481364
 8902         h1    320    ccc     H9   8902 0.05653400   1.008000   ; qtot 0.537898
 8903         h1    320    ccc    H10   8903 0.05653400   1.008000   ; qtot 0.594432
 8904         oh    320    ccc     O5   8904 -0.84113600  16.000000   ; qtot -0.246704
 8905         ho    320    ccc    H11   8905 0.51201600   1.008000   ; qtot 0.265312
 8906         os    320    ccc     O6   8906 -0.26013600  16.000000   ; qtot 0.005176
; residue  321 ccc rtp ccc q 0.0
 8907         c3    321    ccc     C1   8907 -0.33178800  12.010000   ; qtot -0.326612
 8908         c3    321    ccc     C2   8908 0.30606500  12.010000   ; qtot -0.020547
 8909         h1    321    ccc     H1   8909 0.11662300   1.008000   ; qtot 0.096076
 8910         h1    321    ccc     H2   8910 0.11526800   1.008000   ; qtot 0.211344
 8911         c3    321    ccc     C3   8911 0.15592700  12.010000   ; qtot 0.367271
 8912         c3    321    ccc     C4   8912 0.28383300  12.010000   ; qtot 0.651104
 8913         c3    321    ccc     C5   8913 0.32403300  12.010000   ; qtot 0.975137
 8914         h1    321    ccc     H3   8914 0.13386900   1.008000   ; qtot 1.109006
 8915         h1    321    ccc     H4   8915 0.10146700   1.008000   ; qtot 1.210473
 8916         h2    321    ccc     H5   8916 0.10960400   1.008000   ; qtot 1.320077
 8917         os    321    ccc     O1   8917 -0.28650000  16.000000   ; qtot 1.033577
 8918         oh    321    ccc     O2   8918 -0.86012500  16.000000   ; qtot 0.173452
 8919         oh    321    ccc     O3   8919 -0.83772800  16.000000   ; qtot -0.664276
 8920         oh    321    ccc     O4   8920 -0.77449700  16.000000   ; qtot -1.438773
 8921         c3    321    ccc     C6   8921 0.37576500  12.010000   ; qtot -1.063008
 8922         ho    321    ccc     H6   8922 0.53656000   1.008000   ; qtot -0.526448
 8923         ho    321    ccc     H7   8923 0.49492100   1.008000   ; qtot -0.031527
 8924         ho    321    ccc     H8   8924 0.51297200   1.008000   ; qtot 0.481445
 8925         h1    321    ccc     H9   8925 0.05653400   1.008000   ; qtot 0.537979
 8926         h1    321    ccc    H10   8926 0.05653400   1.008000   ; qtot 0.594513
 8927         oh    321    ccc     O5   8927 -0.84113600  16.000000   ; qtot -0.246623
 8928         ho    321    ccc    H11   8928 0.51201600   1.008000   ; qtot 0.265393
 8929         os    321    ccc     O6   8929 -0.26013600  16.000000   ; qtot 0.005257
; residue  322 ccc rtp ccc q 0.0
 8930         c3    322    ccc     C1   8930 -0.33178800  12.010000   ; qtot -0.326531
 8931         c3    322    ccc     C2   8931 0.30606500  12.010000   ; qtot -0.020466
 8932         h1    322    ccc     H1   8932 0.11662300   1.008000   ; qtot 0.096157
 8933         h1    322    ccc     H2   8933 0.11526800   1.008000   ; qtot 0.211425
 8934         c3    322    ccc     C3   8934 0.15592700  12.010000   ; qtot 0.367352
 8935         c3    322    ccc     C4   8935 0.28383300  12.010000   ; qtot 0.651185
 8936         c3    322    ccc     C5   8936 0.32403300  12.010000   ; qtot 0.975218
 8937         h1    322    ccc     H3   8937 0.13386900   1.008000   ; qtot 1.109087
 8938         h1    322    ccc     H4   8938 0.10146700   1.008000   ; qtot 1.210554
 8939         h2    322    ccc     H5   8939 0.10960400   1.008000   ; qtot 1.320158
 8940         os    322    ccc     O1   8940 -0.28650000  16.000000   ; qtot 1.033658
 8941         oh    322    ccc     O2   8941 -0.86012500  16.000000   ; qtot 0.173533
 8942         oh    322    ccc     O3   8942 -0.83772800  16.000000   ; qtot -0.664195
 8943         oh    322    ccc     O4   8943 -0.77449700  16.000000   ; qtot -1.438692
 8944         c3    322    ccc     C6   8944 0.37576500  12.010000   ; qtot -1.062927
 8945         ho    322    ccc     H6   8945 0.53656000   1.008000   ; qtot -0.526367
 8946         ho    322    ccc     H7   8946 0.49492100   1.008000   ; qtot -0.031446
 8947         ho    322    ccc     H8   8947 0.51297200   1.008000   ; qtot 0.481526
 8948         h1    322    ccc     H9   8948 0.05653400   1.008000   ; qtot 0.538060
 8949         h1    322    ccc    H10   8949 0.05653400   1.008000   ; qtot 0.594594
 8950         oh    322    ccc     O5   8950 -0.84113600  16.000000   ; qtot -0.246542
 8951         ho    322    ccc    H11   8951 0.51201600   1.008000   ; qtot 0.265474
 8952         os    322    ccc     O6   8952 -0.26013600  16.000000   ; qtot 0.005338
; residue  323 ccc rtp ccc q 0.0
 8953         c3    323    ccc     C1   8953 -0.33178800  12.010000   ; qtot -0.326450
 8954         c3    323    ccc     C2   8954 0.30606500  12.010000   ; qtot -0.020385
 8955         h1    323    ccc     H1   8955 0.11662300   1.008000   ; qtot 0.096238
 8956         h1    323    ccc     H2   8956 0.11526800   1.008000   ; qtot 0.211506
 8957         c3    323    ccc     C3   8957 0.15592700  12.010000   ; qtot 0.367433
 8958         c3    323    ccc     C4   8958 0.28383300  12.010000   ; qtot 0.651266
 8959         c3    323    ccc     C5   8959 0.32403300  12.010000   ; qtot 0.975299
 8960         h1    323    ccc     H3   8960 0.13386900   1.008000   ; qtot 1.109168
 8961         h1    323    ccc     H4   8961 0.10146700   1.008000   ; qtot 1.210635
 8962         h2    323    ccc     H5   8962 0.10960400   1.008000   ; qtot 1.320239
 8963         os    323    ccc     O1   8963 -0.28650000  16.000000   ; qtot 1.033739
 8964         oh    323    ccc     O2   8964 -0.86012500  16.000000   ; qtot 0.173614
 8965         oh    323    ccc     O3   8965 -0.83772800  16.000000   ; qtot -0.664114
 8966         oh    323    ccc     O4   8966 -0.77449700  16.000000   ; qtot -1.438611
 8967         c3    323    ccc     C6   8967 0.37576500  12.010000   ; qtot -1.062846
 8968         ho    323    ccc     H6   8968 0.53656000   1.008000   ; qtot -0.526286
 8969         ho    323    ccc     H7   8969 0.49492100   1.008000   ; qtot -0.031365
 8970         ho    323    ccc     H8   8970 0.51297200   1.008000   ; qtot 0.481607
 8971         h1    323    ccc     H9   8971 0.05653400   1.008000   ; qtot 0.538141
 8972         h1    323    ccc    H10   8972 0.05653400   1.008000   ; qtot 0.594675
 8973         oh    323    ccc     O5   8973 -0.84113600  16.000000   ; qtot -0.246461
 8974         ho    323    ccc    H11   8974 0.51201600   1.008000   ; qtot 0.265555
 8975         os    323    ccc     O6   8975 -0.26013600  16.000000   ; qtot 0.005419
; residue  324 ccc rtp ccc q 0.0
 8976         c3    324    ccc     C1   8976 -0.33178800  12.010000   ; qtot -0.326369
 8977         c3    324    ccc     C2   8977 0.30606500  12.010000   ; qtot -0.020304
 8978         h1    324    ccc     H1   8978 0.11662300   1.008000   ; qtot 0.096319
 8979         h1    324    ccc     H2   8979 0.11526800   1.008000   ; qtot 0.211587
 8980         c3    324    ccc     C3   8980 0.15592700  12.010000   ; qtot 0.367514
 8981         c3    324    ccc     C4   8981 0.28383300  12.010000   ; qtot 0.651347
 8982         c3    324    ccc     C5   8982 0.32403300  12.010000   ; qtot 0.975380
 8983         h1    324    ccc     H3   8983 0.13386900   1.008000   ; qtot 1.109249
 8984         h1    324    ccc     H4   8984 0.10146700   1.008000   ; qtot 1.210716
 8985         h2    324    ccc     H5   8985 0.10960400   1.008000   ; qtot 1.320320
 8986         os    324    ccc     O1   8986 -0.28650000  16.000000   ; qtot 1.033820
 8987         oh    324    ccc     O2   8987 -0.86012500  16.000000   ; qtot 0.173695
 8988         oh    324    ccc     O3   8988 -0.83772800  16.000000   ; qtot -0.664033
 8989         oh    324    ccc     O4   8989 -0.77449700  16.000000   ; qtot -1.438530
 8990         c3    324    ccc     C6   8990 0.37576500  12.010000   ; qtot -1.062765
 8991         ho    324    ccc     H6   8991 0.53656000   1.008000   ; qtot -0.526205
 8992         ho    324    ccc     H7   8992 0.49492100   1.008000   ; qtot -0.031284
 8993         ho    324    ccc     H8   8993 0.51297200   1.008000   ; qtot 0.481688
 8994         h1    324    ccc     H9   8994 0.05653400   1.008000   ; qtot 0.538222
 8995         h1    324    ccc    H10   8995 0.05653400   1.008000   ; qtot 0.594756
 8996         oh    324    ccc     O5   8996 -0.84113600  16.000000   ; qtot -0.246380
 8997         ho    324    ccc    H11   8997 0.51201600   1.008000   ; qtot 0.265636
 8998         os    324    ccc     O6   8998 -0.26013600  16.000000   ; qtot 0.005500
; residue  325 ccc rtp ccc q 0.0
 8999         c3    325    ccc     C1   8999 -0.33178800  12.010000   ; qtot -0.326288
 9000         c3    325    ccc     C2   9000 0.30606500  12.010000   ; qtot -0.020223
 9001         h1    325    ccc     H1   9001 0.11662300   1.008000   ; qtot 0.096400
 9002         h1    325    ccc     H2   9002 0.11526800   1.008000   ; qtot 0.211668
 9003         c3    325    ccc     C3   9003 0.15592700  12.010000   ; qtot 0.367595
 9004         c3    325    ccc     C4   9004 0.28383300  12.010000   ; qtot 0.651428
 9005         c3    325    ccc     C5   9005 0.32403300  12.010000   ; qtot 0.975461
 9006         h1    325    ccc     H3   9006 0.13386900   1.008000   ; qtot 1.109330
 9007         h1    325    ccc     H4   9007 0.10146700   1.008000   ; qtot 1.210797
 9008         h2    325    ccc     H5   9008 0.10960400   1.008000   ; qtot 1.320401
 9009         os    325    ccc     O1   9009 -0.28650000  16.000000   ; qtot 1.033901
 9010         oh    325    ccc     O2   9010 -0.86012500  16.000000   ; qtot 0.173776
 9011         oh    325    ccc     O3   9011 -0.83772800  16.000000   ; qtot -0.663952
 9012         oh    325    ccc     O4   9012 -0.77449700  16.000000   ; qtot -1.438449
 9013         c3    325    ccc     C6   9013 0.37576500  12.010000   ; qtot -1.062684
 9014         ho    325    ccc     H6   9014 0.53656000   1.008000   ; qtot -0.526124
 9015         ho    325    ccc     H7   9015 0.49492100   1.008000   ; qtot -0.031203
 9016         ho    325    ccc     H8   9016 0.51297200   1.008000   ; qtot 0.481769
 9017         h1    325    ccc     H9   9017 0.05653400   1.008000   ; qtot 0.538303
 9018         h1    325    ccc    H10   9018 0.05653400   1.008000   ; qtot 0.594837
 9019         oh    325    ccc     O5   9019 -0.84113600  16.000000   ; qtot -0.246299
 9020         ho    325    ccc    H11   9020 0.51201600   1.008000   ; qtot 0.265717
 9021         os    325    ccc     O6   9021 -0.26013600  16.000000   ; qtot 0.005581
; residue  326 ccc rtp ccc q 0.0
 9022         c3    326    ccc     C1   9022 -0.33178800  12.010000   ; qtot -0.326207
 9023         c3    326    ccc     C2   9023 0.30606500  12.010000   ; qtot -0.020142
 9024         h1    326    ccc     H1   9024 0.11662300   1.008000   ; qtot 0.096481
 9025         h1    326    ccc     H2   9025 0.11526800   1.008000   ; qtot 0.211749
 9026         c3    326    ccc     C3   9026 0.15592700  12.010000   ; qtot 0.367676
 9027         c3    326    ccc     C4   9027 0.28383300  12.010000   ; qtot 0.651509
 9028         c3    326    ccc     C5   9028 0.32403300  12.010000   ; qtot 0.975542
 9029         h1    326    ccc     H3   9029 0.13386900   1.008000   ; qtot 1.109411
 9030         h1    326    ccc     H4   9030 0.10146700   1.008000   ; qtot 1.210878
 9031         h2    326    ccc     H5   9031 0.10960400   1.008000   ; qtot 1.320482
 9032         os    326    ccc     O1   9032 -0.28650000  16.000000   ; qtot 1.033982
 9033         oh    326    ccc     O2   9033 -0.86012500  16.000000   ; qtot 0.173857
 9034         oh    326    ccc     O3   9034 -0.83772800  16.000000   ; qtot -0.663871
 9035         oh    326    ccc     O4   9035 -0.77449700  16.000000   ; qtot -1.438368
 9036         c3    326    ccc     C6   9036 0.37576500  12.010000   ; qtot -1.062603
 9037         ho    326    ccc     H6   9037 0.53656000   1.008000   ; qtot -0.526043
 9038         ho    326    ccc     H7   9038 0.49492100   1.008000   ; qtot -0.031122
 9039         ho    326    ccc     H8   9039 0.51297200   1.008000   ; qtot 0.481850
 9040         h1    326    ccc     H9   9040 0.05653400   1.008000   ; qtot 0.538384
 9041         h1    326    ccc    H10   9041 0.05653400   1.008000   ; qtot 0.594918
 9042         oh    326    ccc     O5   9042 -0.84113600  16.000000   ; qtot -0.246218
 9043         ho    326    ccc    H11   9043 0.51201600   1.008000   ; qtot 0.265798
 9044         os    326    ccc     O6   9044 -0.26013600  16.000000   ; qtot 0.005662
; residue  327 ccc rtp ccc q 0.0
 9045         c3    327    ccc     C1   9045 -0.33178800  12.010000   ; qtot -0.326126
 9046         c3    327    ccc     C2   9046 0.30606500  12.010000   ; qtot -0.020061
 9047         h1    327    ccc     H1   9047 0.11662300   1.008000   ; qtot 0.096562
 9048         h1    327    ccc     H2   9048 0.11526800   1.008000   ; qtot 0.211830
 9049         c3    327    ccc     C3   9049 0.15592700  12.010000   ; qtot 0.367757
 9050         c3    327    ccc     C4   9050 0.28383300  12.010000   ; qtot 0.651590
 9051         c3    327    ccc     C5   9051 0.32403300  12.010000   ; qtot 0.975623
 9052         h1    327    ccc     H3   9052 0.13386900   1.008000   ; qtot 1.109492
 9053         h1    327    ccc     H4   9053 0.10146700   1.008000   ; qtot 1.210959
 9054         h2    327    ccc     H5   9054 0.10960400   1.008000   ; qtot 1.320563
 9055         os    327    ccc     O1   9055 -0.28650000  16.000000   ; qtot 1.034063
 9056         oh    327    ccc     O2   9056 -0.86012500  16.000000   ; qtot 0.173938
 9057         oh    327    ccc     O3   9057 -0.83772800  16.000000   ; qtot -0.663790
 9058         oh    327    ccc     O4   9058 -0.77449700  16.000000   ; qtot -1.438287
 9059         c3    327    ccc     C6   9059 0.37576500  12.010000   ; qtot -1.062522
 9060         ho    327    ccc     H6   9060 0.53656000   1.008000   ; qtot -0.525962
 9061         ho    327    ccc     H7   9061 0.49492100   1.008000   ; qtot -0.031041
 9062         ho    327    ccc     H8   9062 0.51297200   1.008000   ; qtot 0.481931
 9063         h1    327    ccc     H9   9063 0.05653400   1.008000   ; qtot 0.538465
 9064         h1    327    ccc    H10   9064 0.05653400   1.008000   ; qtot 0.594999
 9065         oh    327    ccc     O5   9065 -0.84113600  16.000000   ; qtot -0.246137
 9066         ho    327    ccc    H11   9066 0.51201600   1.008000   ; qtot 0.265879
 9067         os    327    ccc     O6   9067 -0.26013600  16.000000   ; qtot 0.005743
; residue  328 ccc rtp ccc q 0.0
 9068         c3    328    ccc     C1   9068 -0.33178800  12.010000   ; qtot -0.326045
 9069         c3    328    ccc     C2   9069 0.30606500  12.010000   ; qtot -0.019980
 9070         h1    328    ccc     H1   9070 0.11662300   1.008000   ; qtot 0.096643
 9071         h1    328    ccc     H2   9071 0.11526800   1.008000   ; qtot 0.211911
 9072         c3    328    ccc     C3   9072 0.15592700  12.010000   ; qtot 0.367838
 9073         c3    328    ccc     C4   9073 0.28383300  12.010000   ; qtot 0.651671
 9074         c3    328    ccc     C5   9074 0.32403300  12.010000   ; qtot 0.975704
 9075         h1    328    ccc     H3   9075 0.13386900   1.008000   ; qtot 1.109573
 9076         h1    328    ccc     H4   9076 0.10146700   1.008000   ; qtot 1.211040
 9077         h2    328    ccc     H5   9077 0.10960400   1.008000   ; qtot 1.320644
 9078         os    328    ccc     O1   9078 -0.28650000  16.000000   ; qtot 1.034144
 9079         oh    328    ccc     O2   9079 -0.86012500  16.000000   ; qtot 0.174019
 9080         oh    328    ccc     O3   9080 -0.83772800  16.000000   ; qtot -0.663709
 9081         oh    328    ccc     O4   9081 -0.77449700  16.000000   ; qtot -1.438206
 9082         c3    328    ccc     C6   9082 0.37576500  12.010000   ; qtot -1.062441
 9083         ho    328    ccc     H6   9083 0.53656000   1.008000   ; qtot -0.525881
 9084         ho    328    ccc     H7   9084 0.49492100   1.008000   ; qtot -0.030960
 9085         ho    328    ccc     H8   9085 0.51297200   1.008000   ; qtot 0.482012
 9086         h1    328    ccc     H9   9086 0.05653400   1.008000   ; qtot 0.538546
 9087         h1    328    ccc    H10   9087 0.05653400   1.008000   ; qtot 0.595080
 9088         oh    328    ccc     O5   9088 -0.84113600  16.000000   ; qtot -0.246056
 9089         ho    328    ccc    H11   9089 0.51201600   1.008000   ; qtot 0.265960
 9090         os    328    ccc     O6   9090 -0.26013600  16.000000   ; qtot 0.005824
; residue  329 ccc rtp ccc q 0.0
 9091         c3    329    ccc     C1   9091 -0.33178800  12.010000   ; qtot -0.325964
 9092         c3    329    ccc     C2   9092 0.30606500  12.010000   ; qtot -0.019899
 9093         h1    329    ccc     H1   9093 0.11662300   1.008000   ; qtot 0.096724
 9094         h1    329    ccc     H2   9094 0.11526800   1.008000   ; qtot 0.211992
 9095         c3    329    ccc     C3   9095 0.15592700  12.010000   ; qtot 0.367919
 9096         c3    329    ccc     C4   9096 0.28383300  12.010000   ; qtot 0.651752
 9097         c3    329    ccc     C5   9097 0.32403300  12.010000   ; qtot 0.975785
 9098         h1    329    ccc     H3   9098 0.13386900   1.008000   ; qtot 1.109654
 9099         h1    329    ccc     H4   9099 0.10146700   1.008000   ; qtot 1.211121
 9100         h2    329    ccc     H5   9100 0.10960400   1.008000   ; qtot 1.320725
 9101         os    329    ccc     O1   9101 -0.28650000  16.000000   ; qtot 1.034225
 9102         oh    329    ccc     O2   9102 -0.86012500  16.000000   ; qtot 0.174100
 9103         oh    329    ccc     O3   9103 -0.83772800  16.000000   ; qtot -0.663628
 9104         oh    329    ccc     O4   9104 -0.77449700  16.000000   ; qtot -1.438125
 9105         c3    329    ccc     C6   9105 0.37576500  12.010000   ; qtot -1.062360
 9106         ho    329    ccc     H6   9106 0.53656000   1.008000   ; qtot -0.525800
 9107         ho    329    ccc     H7   9107 0.49492100   1.008000   ; qtot -0.030879
 9108         ho    329    ccc     H8   9108 0.51297200   1.008000   ; qtot 0.482093
 9109         h1    329    ccc     H9   9109 0.05653400   1.008000   ; qtot 0.538627
 9110         h1    329    ccc    H10   9110 0.05653400   1.008000   ; qtot 0.595161
 9111         oh    329    ccc     O5   9111 -0.84113600  16.000000   ; qtot -0.245975
 9112         ho    329    ccc    H11   9112 0.51201600   1.008000   ; qtot 0.266041
 9113         os    329    ccc     O6   9113 -0.26013600  16.000000   ; qtot 0.005905
; residue  330 ccc rtp ccc q 0.0
 9114         c3    330    ccc     C1   9114 -0.33178800  12.010000   ; qtot -0.325883
 9115         c3    330    ccc     C2   9115 0.30606500  12.010000   ; qtot -0.019818
 9116         h1    330    ccc     H1   9116 0.11662300   1.008000   ; qtot 0.096805
 9117         h1    330    ccc     H2   9117 0.11526800   1.008000   ; qtot 0.212073
 9118         c3    330    ccc     C3   9118 0.15592700  12.010000   ; qtot 0.368000
 9119         c3    330    ccc     C4   9119 0.28383300  12.010000   ; qtot 0.651833
 9120         c3    330    ccc     C5   9120 0.32403300  12.010000   ; qtot 0.975866
 9121         h1    330    ccc     H3   9121 0.13386900   1.008000   ; qtot 1.109735
 9122         h1    330    ccc     H4   9122 0.10146700   1.008000   ; qtot 1.211202
 9123         h2    330    ccc     H5   9123 0.10960400   1.008000   ; qtot 1.320806
 9124         os    330    ccc     O1   9124 -0.28650000  16.000000   ; qtot 1.034306
 9125         oh    330    ccc     O2   9125 -0.86012500  16.000000   ; qtot 0.174181
 9126         oh    330    ccc     O3   9126 -0.83772800  16.000000   ; qtot -0.663547
 9127         oh    330    ccc     O4   9127 -0.77449700  16.000000   ; qtot -1.438044
 9128         c3    330    ccc     C6   9128 0.37576500  12.010000   ; qtot -1.062279
 9129         ho    330    ccc     H6   9129 0.53656000   1.008000   ; qtot -0.525719
 9130         ho    330    ccc     H7   9130 0.49492100   1.008000   ; qtot -0.030798
 9131         ho    330    ccc     H8   9131 0.51297200   1.008000   ; qtot 0.482174
 9132         h1    330    ccc     H9   9132 0.05653400   1.008000   ; qtot 0.538708
 9133         h1    330    ccc    H10   9133 0.05653400   1.008000   ; qtot 0.595242
 9134         oh    330    ccc     O5   9134 -0.84113600  16.000000   ; qtot -0.245894
 9135         ho    330    ccc    H11   9135 0.51201600   1.008000   ; qtot 0.266122
 9136         os    330    ccc     O6   9136 -0.26013600  16.000000   ; qtot 0.005986
; residue  331 ccc rtp ccc q 0.0
 9137         c3    331    ccc     C1   9137 -0.33178800  12.010000   ; qtot -0.325802
 9138         c3    331    ccc     C2   9138 0.30606500  12.010000   ; qtot -0.019737
 9139         h1    331    ccc     H1   9139 0.11662300   1.008000   ; qtot 0.096886
 9140         h1    331    ccc     H2   9140 0.11526800   1.008000   ; qtot 0.212154
 9141         c3    331    ccc     C3   9141 0.15592700  12.010000   ; qtot 0.368081
 9142         c3    331    ccc     C4   9142 0.28383300  12.010000   ; qtot 0.651914
 9143         c3    331    ccc     C5   9143 0.32403300  12.010000   ; qtot 0.975947
 9144         h1    331    ccc     H3   9144 0.13386900   1.008000   ; qtot 1.109816
 9145         h1    331    ccc     H4   9145 0.10146700   1.008000   ; qtot 1.211283
 9146         h2    331    ccc     H5   9146 0.10960400   1.008000   ; qtot 1.320887
 9147         os    331    ccc     O1   9147 -0.28650000  16.000000   ; qtot 1.034387
 9148         oh    331    ccc     O2   9148 -0.86012500  16.000000   ; qtot 0.174262
 9149         oh    331    ccc     O3   9149 -0.83772800  16.000000   ; qtot -0.663466
 9150         oh    331    ccc     O4   9150 -0.77449700  16.000000   ; qtot -1.437963
 9151         c3    331    ccc     C6   9151 0.37576500  12.010000   ; qtot -1.062198
 9152         ho    331    ccc     H6   9152 0.53656000   1.008000   ; qtot -0.525638
 9153         ho    331    ccc     H7   9153 0.49492100   1.008000   ; qtot -0.030717
 9154         ho    331    ccc     H8   9154 0.51297200   1.008000   ; qtot 0.482255
 9155         h1    331    ccc     H9   9155 0.05653400   1.008000   ; qtot 0.538789
 9156         h1    331    ccc    H10   9156 0.05653400   1.008000   ; qtot 0.595323
 9157         oh    331    ccc     O5   9157 -0.84113600  16.000000   ; qtot -0.245813
 9158         ho    331    ccc    H11   9158 0.51201600   1.008000   ; qtot 0.266203
 9159         os    331    ccc     O6   9159 -0.26013600  16.000000   ; qtot 0.006067
; residue  332 ccc rtp ccc q 0.0
 9160         c3    332    ccc     C1   9160 -0.33178800  12.010000   ; qtot -0.325721
 9161         c3    332    ccc     C2   9161 0.30606500  12.010000   ; qtot -0.019656
 9162         h1    332    ccc     H1   9162 0.11662300   1.008000   ; qtot 0.096967
 9163         h1    332    ccc     H2   9163 0.11526800   1.008000   ; qtot 0.212235
 9164         c3    332    ccc     C3   9164 0.15592700  12.010000   ; qtot 0.368162
 9165         c3    332    ccc     C4   9165 0.28383300  12.010000   ; qtot 0.651995
 9166         c3    332    ccc     C5   9166 0.32403300  12.010000   ; qtot 0.976028
 9167         h1    332    ccc     H3   9167 0.13386900   1.008000   ; qtot 1.109897
 9168         h1    332    ccc     H4   9168 0.10146700   1.008000   ; qtot 1.211364
 9169         h2    332    ccc     H5   9169 0.10960400   1.008000   ; qtot 1.320968
 9170         os    332    ccc     O1   9170 -0.28650000  16.000000   ; qtot 1.034468
 9171         oh    332    ccc     O2   9171 -0.86012500  16.000000   ; qtot 0.174343
 9172         oh    332    ccc     O3   9172 -0.83772800  16.000000   ; qtot -0.663385
 9173         oh    332    ccc     O4   9173 -0.77449700  16.000000   ; qtot -1.437882
 9174         c3    332    ccc     C6   9174 0.37576500  12.010000   ; qtot -1.062117
 9175         ho    332    ccc     H6   9175 0.53656000   1.008000   ; qtot -0.525557
 9176         ho    332    ccc     H7   9176 0.49492100   1.008000   ; qtot -0.030636
 9177         ho    332    ccc     H8   9177 0.51297200   1.008000   ; qtot 0.482336
 9178         h1    332    ccc     H9   9178 0.05653400   1.008000   ; qtot 0.538870
 9179         h1    332    ccc    H10   9179 0.05653400   1.008000   ; qtot 0.595404
 9180         oh    332    ccc     O5   9180 -0.84113600  16.000000   ; qtot -0.245732
 9181         ho    332    ccc    H11   9181 0.51201600   1.008000   ; qtot 0.266284
 9182         os    332    ccc     O6   9182 -0.26013600  16.000000   ; qtot 0.006148
; residue  333 ccc rtp ccc q 0.0
 9183         c3    333    ccc     C1   9183 -0.33178800  12.010000   ; qtot -0.325640
 9184         c3    333    ccc     C2   9184 0.30606500  12.010000   ; qtot -0.019575
 9185         h1    333    ccc     H1   9185 0.11662300   1.008000   ; qtot 0.097048
 9186         h1    333    ccc     H2   9186 0.11526800   1.008000   ; qtot 0.212316
 9187         c3    333    ccc     C3   9187 0.15592700  12.010000   ; qtot 0.368243
 9188         c3    333    ccc     C4   9188 0.28383300  12.010000   ; qtot 0.652076
 9189         c3    333    ccc     C5   9189 0.32403300  12.010000   ; qtot 0.976109
 9190         h1    333    ccc     H3   9190 0.13386900   1.008000   ; qtot 1.109978
 9191         h1    333    ccc     H4   9191 0.10146700   1.008000   ; qtot 1.211445
 9192         h2    333    ccc     H5   9192 0.10960400   1.008000   ; qtot 1.321049
 9193         os    333    ccc     O1   9193 -0.28650000  16.000000   ; qtot 1.034549
 9194         oh    333    ccc     O2   9194 -0.86012500  16.000000   ; qtot 0.174424
 9195         oh    333    ccc     O3   9195 -0.83772800  16.000000   ; qtot -0.663304
 9196         oh    333    ccc     O4   9196 -0.77449700  16.000000   ; qtot -1.437801
 9197         c3    333    ccc     C6   9197 0.37576500  12.010000   ; qtot -1.062036
 9198         ho    333    ccc     H6   9198 0.53656000   1.008000   ; qtot -0.525476
 9199         ho    333    ccc     H7   9199 0.49492100   1.008000   ; qtot -0.030555
 9200         ho    333    ccc     H8   9200 0.51297200   1.008000   ; qtot 0.482417
 9201         h1    333    ccc     H9   9201 0.05653400   1.008000   ; qtot 0.538951
 9202         h1    333    ccc    H10   9202 0.05653400   1.008000   ; qtot 0.595485
 9203         oh    333    ccc     O5   9203 -0.84113600  16.000000   ; qtot -0.245651
 9204         ho    333    ccc    H11   9204 0.51201600   1.008000   ; qtot 0.266365
 9205         os    333    ccc     O6   9205 -0.26013600  16.000000   ; qtot 0.006229
; residue  334 ccc rtp ccc q 0.0
 9206         c3    334    ccc     C1   9206 -0.33178800  12.010000   ; qtot -0.325559
 9207         c3    334    ccc     C2   9207 0.30606500  12.010000   ; qtot -0.019494
 9208         h1    334    ccc     H1   9208 0.11662300   1.008000   ; qtot 0.097129
 9209         h1    334    ccc     H2   9209 0.11526800   1.008000   ; qtot 0.212397
 9210         c3    334    ccc     C3   9210 0.15592700  12.010000   ; qtot 0.368324
 9211         c3    334    ccc     C4   9211 0.28383300  12.010000   ; qtot 0.652157
 9212         c3    334    ccc     C5   9212 0.32403300  12.010000   ; qtot 0.976190
 9213         h1    334    ccc     H3   9213 0.13386900   1.008000   ; qtot 1.110059
 9214         h1    334    ccc     H4   9214 0.10146700   1.008000   ; qtot 1.211526
 9215         h2    334    ccc     H5   9215 0.10960400   1.008000   ; qtot 1.321130
 9216         os    334    ccc     O1   9216 -0.28650000  16.000000   ; qtot 1.034630
 9217         oh    334    ccc     O2   9217 -0.86012500  16.000000   ; qtot 0.174505
 9218         oh    334    ccc     O3   9218 -0.83772800  16.000000   ; qtot -0.663223
 9219         oh    334    ccc     O4   9219 -0.77449700  16.000000   ; qtot -1.437720
 9220         c3    334    ccc     C6   9220 0.37576500  12.010000   ; qtot -1.061955
 9221         ho    334    ccc     H6   9221 0.53656000   1.008000   ; qtot -0.525395
 9222         ho    334    ccc     H7   9222 0.49492100   1.008000   ; qtot -0.030474
 9223         ho    334    ccc     H8   9223 0.51297200   1.008000   ; qtot 0.482498
 9224         h1    334    ccc     H9   9224 0.05653400   1.008000   ; qtot 0.539032
 9225         h1    334    ccc    H10   9225 0.05653400   1.008000   ; qtot 0.595566
 9226         oh    334    ccc     O5   9226 -0.84113600  16.000000   ; qtot -0.245570
 9227         ho    334    ccc    H11   9227 0.51201600   1.008000   ; qtot 0.266446
 9228         os    334    ccc     O6   9228 -0.26013600  16.000000   ; qtot 0.006310
; residue  335 ccc rtp ccc q 0.0
 9229         c3    335    ccc     C1   9229 -0.33178800  12.010000   ; qtot -0.325478
 9230         c3    335    ccc     C2   9230 0.30606500  12.010000   ; qtot -0.019413
 9231         h1    335    ccc     H1   9231 0.11662300   1.008000   ; qtot 0.097210
 9232         h1    335    ccc     H2   9232 0.11526800   1.008000   ; qtot 0.212478
 9233         c3    335    ccc     C3   9233 0.15592700  12.010000   ; qtot 0.368405
 9234         c3    335    ccc     C4   9234 0.28383300  12.010000   ; qtot 0.652238
 9235         c3    335    ccc     C5   9235 0.32403300  12.010000   ; qtot 0.976271
 9236         h1    335    ccc     H3   9236 0.13386900   1.008000   ; qtot 1.110140
 9237         h1    335    ccc     H4   9237 0.10146700   1.008000   ; qtot 1.211607
 9238         h2    335    ccc     H5   9238 0.10960400   1.008000   ; qtot 1.321211
 9239         os    335    ccc     O1   9239 -0.28650000  16.000000   ; qtot 1.034711
 9240         oh    335    ccc     O2   9240 -0.86012500  16.000000   ; qtot 0.174586
 9241         oh    335    ccc     O3   9241 -0.83772800  16.000000   ; qtot -0.663142
 9242         oh    335    ccc     O4   9242 -0.77449700  16.000000   ; qtot -1.437639
 9243         c3    335    ccc     C6   9243 0.37576500  12.010000   ; qtot -1.061874
 9244         ho    335    ccc     H6   9244 0.53656000   1.008000   ; qtot -0.525314
 9245         ho    335    ccc     H7   9245 0.49492100   1.008000   ; qtot -0.030393
 9246         ho    335    ccc     H8   9246 0.51297200   1.008000   ; qtot 0.482579
 9247         h1    335    ccc     H9   9247 0.05653400   1.008000   ; qtot 0.539113
 9248         h1    335    ccc    H10   9248 0.05653400   1.008000   ; qtot 0.595647
 9249         oh    335    ccc     O5   9249 -0.84113600  16.000000   ; qtot -0.245489
 9250         ho    335    ccc    H11   9250 0.51201600   1.008000   ; qtot 0.266527
 9251         os    335    ccc     O6   9251 -0.26013600  16.000000   ; qtot 0.006391
; residue  336 ccc rtp ccc q 0.0
 9252         c3    336    ccc     C1   9252 -0.33178800  12.010000   ; qtot -0.325397
 9253         c3    336    ccc     C2   9253 0.30606500  12.010000   ; qtot -0.019332
 9254         h1    336    ccc     H1   9254 0.11662300   1.008000   ; qtot 0.097291
 9255         h1    336    ccc     H2   9255 0.11526800   1.008000   ; qtot 0.212559
 9256         c3    336    ccc     C3   9256 0.15592700  12.010000   ; qtot 0.368486
 9257         c3    336    ccc     C4   9257 0.28383300  12.010000   ; qtot 0.652319
 9258         c3    336    ccc     C5   9258 0.32403300  12.010000   ; qtot 0.976352
 9259         h1    336    ccc     H3   9259 0.13386900   1.008000   ; qtot 1.110221
 9260         h1    336    ccc     H4   9260 0.10146700   1.008000   ; qtot 1.211688
 9261         h2    336    ccc     H5   9261 0.10960400   1.008000   ; qtot 1.321292
 9262         os    336    ccc     O1   9262 -0.28650000  16.000000   ; qtot 1.034792
 9263         oh    336    ccc     O2   9263 -0.86012500  16.000000   ; qtot 0.174667
 9264         oh    336    ccc     O3   9264 -0.83772800  16.000000   ; qtot -0.663061
 9265         oh    336    ccc     O4   9265 -0.77449700  16.000000   ; qtot -1.437558
 9266         c3    336    ccc     C6   9266 0.37576500  12.010000   ; qtot -1.061793
 9267         ho    336    ccc     H6   9267 0.53656000   1.008000   ; qtot -0.525233
 9268         ho    336    ccc     H7   9268 0.49492100   1.008000   ; qtot -0.030312
 9269         ho    336    ccc     H8   9269 0.51297200   1.008000   ; qtot 0.482660
 9270         h1    336    ccc     H9   9270 0.05653400   1.008000   ; qtot 0.539194
 9271         h1    336    ccc    H10   9271 0.05653400   1.008000   ; qtot 0.595728
 9272         oh    336    ccc     O5   9272 -0.84113600  16.000000   ; qtot -0.245408
 9273         ho    336    ccc    H11   9273 0.51201600   1.008000   ; qtot 0.266608
 9274         os    336    ccc     O6   9274 -0.26013600  16.000000   ; qtot 0.006472
; residue  337 ccc rtp ccc q 0.0
 9275         c3    337    ccc     C1   9275 -0.33178800  12.010000   ; qtot -0.325316
 9276         c3    337    ccc     C2   9276 0.30606500  12.010000   ; qtot -0.019251
 9277         h1    337    ccc     H1   9277 0.11662300   1.008000   ; qtot 0.097372
 9278         h1    337    ccc     H2   9278 0.11526800   1.008000   ; qtot 0.212640
 9279         c3    337    ccc     C3   9279 0.15592700  12.010000   ; qtot 0.368567
 9280         c3    337    ccc     C4   9280 0.28383300  12.010000   ; qtot 0.652400
 9281         c3    337    ccc     C5   9281 0.32403300  12.010000   ; qtot 0.976433
 9282         h1    337    ccc     H3   9282 0.13386900   1.008000   ; qtot 1.110302
 9283         h1    337    ccc     H4   9283 0.10146700   1.008000   ; qtot 1.211769
 9284         h2    337    ccc     H5   9284 0.10960400   1.008000   ; qtot 1.321373
 9285         os    337    ccc     O1   9285 -0.28650000  16.000000   ; qtot 1.034873
 9286         oh    337    ccc     O2   9286 -0.86012500  16.000000   ; qtot 0.174748
 9287         oh    337    ccc     O3   9287 -0.83772800  16.000000   ; qtot -0.662980
 9288         oh    337    ccc     O4   9288 -0.77449700  16.000000   ; qtot -1.437477
 9289         c3    337    ccc     C6   9289 0.37576500  12.010000   ; qtot -1.061712
 9290         ho    337    ccc     H6   9290 0.53656000   1.008000   ; qtot -0.525152
 9291         ho    337    ccc     H7   9291 0.49492100   1.008000   ; qtot -0.030231
 9292         ho    337    ccc     H8   9292 0.51297200   1.008000   ; qtot 0.482741
 9293         h1    337    ccc     H9   9293 0.05653400   1.008000   ; qtot 0.539275
 9294         h1    337    ccc    H10   9294 0.05653400   1.008000   ; qtot 0.595809
 9295         oh    337    ccc     O5   9295 -0.84113600  16.000000   ; qtot -0.245327
 9296         ho    337    ccc    H11   9296 0.51201600   1.008000   ; qtot 0.266689
 9297         os    337    ccc     O6   9297 -0.26013600  16.000000   ; qtot 0.006553
; residue  338 ccc rtp ccc q 0.0
 9298         c3    338    ccc     C1   9298 -0.33178800  12.010000   ; qtot -0.325235
 9299         c3    338    ccc     C2   9299 0.30606500  12.010000   ; qtot -0.019170
 9300         h1    338    ccc     H1   9300 0.11662300   1.008000   ; qtot 0.097453
 9301         h1    338    ccc     H2   9301 0.11526800   1.008000   ; qtot 0.212721
 9302         c3    338    ccc     C3   9302 0.15592700  12.010000   ; qtot 0.368648
 9303         c3    338    ccc     C4   9303 0.28383300  12.010000   ; qtot 0.652481
 9304         c3    338    ccc     C5   9304 0.32403300  12.010000   ; qtot 0.976514
 9305         h1    338    ccc     H3   9305 0.13386900   1.008000   ; qtot 1.110383
 9306         h1    338    ccc     H4   9306 0.10146700   1.008000   ; qtot 1.211850
 9307         h2    338    ccc     H5   9307 0.10960400   1.008000   ; qtot 1.321454
 9308         os    338    ccc     O1   9308 -0.28650000  16.000000   ; qtot 1.034954
 9309         oh    338    ccc     O2   9309 -0.86012500  16.000000   ; qtot 0.174829
 9310         oh    338    ccc     O3   9310 -0.83772800  16.000000   ; qtot -0.662899
 9311         oh    338    ccc     O4   9311 -0.77449700  16.000000   ; qtot -1.437396
 9312         c3    338    ccc     C6   9312 0.37576500  12.010000   ; qtot -1.061631
 9313         ho    338    ccc     H6   9313 0.53656000   1.008000   ; qtot -0.525071
 9314         ho    338    ccc     H7   9314 0.49492100   1.008000   ; qtot -0.030150
 9315         ho    338    ccc     H8   9315 0.51297200   1.008000   ; qtot 0.482822
 9316         h1    338    ccc     H9   9316 0.05653400   1.008000   ; qtot 0.539356
 9317         h1    338    ccc    H10   9317 0.05653400   1.008000   ; qtot 0.595890
 9318         oh    338    ccc     O5   9318 -0.84113600  16.000000   ; qtot -0.245246
 9319         ho    338    ccc    H11   9319 0.51201600   1.008000   ; qtot 0.266770
 9320         os    338    ccc     O6   9320 -0.26013600  16.000000   ; qtot 0.006634
; residue  339 ccc rtp ccc q 0.0
 9321         c3    339    ccc     C1   9321 -0.33178800  12.010000   ; qtot -0.325154
 9322         c3    339    ccc     C2   9322 0.30606500  12.010000   ; qtot -0.019089
 9323         h1    339    ccc     H1   9323 0.11662300   1.008000   ; qtot 0.097534
 9324         h1    339    ccc     H2   9324 0.11526800   1.008000   ; qtot 0.212802
 9325         c3    339    ccc     C3   9325 0.15592700  12.010000   ; qtot 0.368729
 9326         c3    339    ccc     C4   9326 0.28383300  12.010000   ; qtot 0.652562
 9327         c3    339    ccc     C5   9327 0.32403300  12.010000   ; qtot 0.976595
 9328         h1    339    ccc     H3   9328 0.13386900   1.008000   ; qtot 1.110464
 9329         h1    339    ccc     H4   9329 0.10146700   1.008000   ; qtot 1.211931
 9330         h2    339    ccc     H5   9330 0.10960400   1.008000   ; qtot 1.321535
 9331         os    339    ccc     O1   9331 -0.28650000  16.000000   ; qtot 1.035035
 9332         oh    339    ccc     O2   9332 -0.86012500  16.000000   ; qtot 0.174910
 9333         oh    339    ccc     O3   9333 -0.83772800  16.000000   ; qtot -0.662818
 9334         oh    339    ccc     O4   9334 -0.77449700  16.000000   ; qtot -1.437315
 9335         c3    339    ccc     C6   9335 0.37576500  12.010000   ; qtot -1.061550
 9336         ho    339    ccc     H6   9336 0.53656000   1.008000   ; qtot -0.524990
 9337         ho    339    ccc     H7   9337 0.49492100   1.008000   ; qtot -0.030069
 9338         ho    339    ccc     H8   9338 0.51297200   1.008000   ; qtot 0.482903
 9339         h1    339    ccc     H9   9339 0.05653400   1.008000   ; qtot 0.539437
 9340         h1    339    ccc    H10   9340 0.05653400   1.008000   ; qtot 0.595971
 9341         oh    339    ccc     O5   9341 -0.84113600  16.000000   ; qtot -0.245165
 9342         ho    339    ccc    H11   9342 0.51201600   1.008000   ; qtot 0.266851
 9343         os    339    ccc     O6   9343 -0.26013600  16.000000   ; qtot 0.006715
; residue  340 ccc rtp ccc q 0.0
 9344         c3    340    ccc     C1   9344 -0.33178800  12.010000   ; qtot -0.325073
 9345         c3    340    ccc     C2   9345 0.30606500  12.010000   ; qtot -0.019008
 9346         h1    340    ccc     H1   9346 0.11662300   1.008000   ; qtot 0.097615
 9347         h1    340    ccc     H2   9347 0.11526800   1.008000   ; qtot 0.212883
 9348         c3    340    ccc     C3   9348 0.15592700  12.010000   ; qtot 0.368810
 9349         c3    340    ccc     C4   9349 0.28383300  12.010000   ; qtot 0.652643
 9350         c3    340    ccc     C5   9350 0.32403300  12.010000   ; qtot 0.976676
 9351         h1    340    ccc     H3   9351 0.13386900   1.008000   ; qtot 1.110545
 9352         h1    340    ccc     H4   9352 0.10146700   1.008000   ; qtot 1.212012
 9353         h2    340    ccc     H5   9353 0.10960400   1.008000   ; qtot 1.321616
 9354         os    340    ccc     O1   9354 -0.28650000  16.000000   ; qtot 1.035116
 9355         oh    340    ccc     O2   9355 -0.86012500  16.000000   ; qtot 0.174991
 9356         oh    340    ccc     O3   9356 -0.83772800  16.000000   ; qtot -0.662737
 9357         oh    340    ccc     O4   9357 -0.77449700  16.000000   ; qtot -1.437234
 9358         c3    340    ccc     C6   9358 0.37576500  12.010000   ; qtot -1.061469
 9359         ho    340    ccc     H6   9359 0.53656000   1.008000   ; qtot -0.524909
 9360         ho    340    ccc     H7   9360 0.49492100   1.008000   ; qtot -0.029988
 9361         ho    340    ccc     H8   9361 0.51297200   1.008000   ; qtot 0.482984
 9362         h1    340    ccc     H9   9362 0.05653400   1.008000   ; qtot 0.539518
 9363         h1    340    ccc    H10   9363 0.05653400   1.008000   ; qtot 0.596052
 9364         oh    340    ccc     O5   9364 -0.84113600  16.000000   ; qtot -0.245084
 9365         ho    340    ccc    H11   9365 0.51201600   1.008000   ; qtot 0.266932
 9366         os    340    ccc     O6   9366 -0.26013600  16.000000   ; qtot 0.006796
; residue  341 ccc rtp ccc q 0.0
 9367         c3    341    ccc     C1   9367 -0.33178800  12.010000   ; qtot -0.324992
 9368         c3    341    ccc     C2   9368 0.30606500  12.010000   ; qtot -0.018927
 9369         h1    341    ccc     H1   9369 0.11662300   1.008000   ; qtot 0.097696
 9370         h1    341    ccc     H2   9370 0.11526800   1.008000   ; qtot 0.212964
 9371         c3    341    ccc     C3   9371 0.15592700  12.010000   ; qtot 0.368891
 9372         c3    341    ccc     C4   9372 0.28383300  12.010000   ; qtot 0.652724
 9373         c3    341    ccc     C5   9373 0.32403300  12.010000   ; qtot 0.976757
 9374         h1    341    ccc     H3   9374 0.13386900   1.008000   ; qtot 1.110626
 9375         h1    341    ccc     H4   9375 0.10146700   1.008000   ; qtot 1.212093
 9376         h2    341    ccc     H5   9376 0.10960400   1.008000   ; qtot 1.321697
 9377         os    341    ccc     O1   9377 -0.28650000  16.000000   ; qtot 1.035197
 9378         oh    341    ccc     O2   9378 -0.86012500  16.000000   ; qtot 0.175072
 9379         oh    341    ccc     O3   9379 -0.83772800  16.000000   ; qtot -0.662656
 9380         oh    341    ccc     O4   9380 -0.77449700  16.000000   ; qtot -1.437153
 9381         c3    341    ccc     C6   9381 0.37576500  12.010000   ; qtot -1.061388
 9382         ho    341    ccc     H6   9382 0.53656000   1.008000   ; qtot -0.524828
 9383         ho    341    ccc     H7   9383 0.49492100   1.008000   ; qtot -0.029907
 9384         ho    341    ccc     H8   9384 0.51297200   1.008000   ; qtot 0.483065
 9385         h1    341    ccc     H9   9385 0.05653400   1.008000   ; qtot 0.539599
 9386         h1    341    ccc    H10   9386 0.05653400   1.008000   ; qtot 0.596133
 9387         oh    341    ccc     O5   9387 -0.84113600  16.000000   ; qtot -0.245003
 9388         ho    341    ccc    H11   9388 0.51201600   1.008000   ; qtot 0.267013
 9389         os    341    ccc     O6   9389 -0.26013600  16.000000   ; qtot 0.006877
; residue  342 ccc rtp ccc q 0.0
 9390         c3    342    ccc     C1   9390 -0.33178800  12.010000   ; qtot -0.324911
 9391         c3    342    ccc     C2   9391 0.30606500  12.010000   ; qtot -0.018846
 9392         h1    342    ccc     H1   9392 0.11662300   1.008000   ; qtot 0.097777
 9393         h1    342    ccc     H2   9393 0.11526800   1.008000   ; qtot 0.213045
 9394         c3    342    ccc     C3   9394 0.15592700  12.010000   ; qtot 0.368972
 9395         c3    342    ccc     C4   9395 0.28383300  12.010000   ; qtot 0.652805
 9396         c3    342    ccc     C5   9396 0.32403300  12.010000   ; qtot 0.976838
 9397         h1    342    ccc     H3   9397 0.13386900   1.008000   ; qtot 1.110707
 9398         h1    342    ccc     H4   9398 0.10146700   1.008000   ; qtot 1.212174
 9399         h2    342    ccc     H5   9399 0.10960400   1.008000   ; qtot 1.321778
 9400         os    342    ccc     O1   9400 -0.28650000  16.000000   ; qtot 1.035278
 9401         oh    342    ccc     O2   9401 -0.86012500  16.000000   ; qtot 0.175153
 9402         oh    342    ccc     O3   9402 -0.83772800  16.000000   ; qtot -0.662575
 9403         oh    342    ccc     O4   9403 -0.77449700  16.000000   ; qtot -1.437072
 9404         c3    342    ccc     C6   9404 0.37576500  12.010000   ; qtot -1.061307
 9405         ho    342    ccc     H6   9405 0.53656000   1.008000   ; qtot -0.524747
 9406         ho    342    ccc     H7   9406 0.49492100   1.008000   ; qtot -0.029826
 9407         ho    342    ccc     H8   9407 0.51297200   1.008000   ; qtot 0.483146
 9408         h1    342    ccc     H9   9408 0.05653400   1.008000   ; qtot 0.539680
 9409         h1    342    ccc    H10   9409 0.05653400   1.008000   ; qtot 0.596214
 9410         oh    342    ccc     O5   9410 -0.84113600  16.000000   ; qtot -0.244922
 9411         ho    342    ccc    H11   9411 0.51201600   1.008000   ; qtot 0.267094
 9412         os    342    ccc     O6   9412 -0.26013600  16.000000   ; qtot 0.006958
; residue  343 ccc rtp ccc q 0.0
 9413         c3    343    ccc     C1   9413 -0.33178800  12.010000   ; qtot -0.324830
 9414         c3    343    ccc     C2   9414 0.30606500  12.010000   ; qtot -0.018765
 9415         h1    343    ccc     H1   9415 0.11662300   1.008000   ; qtot 0.097858
 9416         h1    343    ccc     H2   9416 0.11526800   1.008000   ; qtot 0.213126
 9417         c3    343    ccc     C3   9417 0.15592700  12.010000   ; qtot 0.369053
 9418         c3    343    ccc     C4   9418 0.28383300  12.010000   ; qtot 0.652886
 9419         c3    343    ccc     C5   9419 0.32403300  12.010000   ; qtot 0.976919
 9420         h1    343    ccc     H3   9420 0.13386900   1.008000   ; qtot 1.110788
 9421         h1    343    ccc     H4   9421 0.10146700   1.008000   ; qtot 1.212255
 9422         h2    343    ccc     H5   9422 0.10960400   1.008000   ; qtot 1.321859
 9423         os    343    ccc     O1   9423 -0.28650000  16.000000   ; qtot 1.035359
 9424         oh    343    ccc     O2   9424 -0.86012500  16.000000   ; qtot 0.175234
 9425         oh    343    ccc     O3   9425 -0.83772800  16.000000   ; qtot -0.662494
 9426         oh    343    ccc     O4   9426 -0.77449700  16.000000   ; qtot -1.436991
 9427         c3    343    ccc     C6   9427 0.37576500  12.010000   ; qtot -1.061226
 9428         ho    343    ccc     H6   9428 0.53656000   1.008000   ; qtot -0.524666
 9429         ho    343    ccc     H7   9429 0.49492100   1.008000   ; qtot -0.029745
 9430         ho    343    ccc     H8   9430 0.51297200   1.008000   ; qtot 0.483227
 9431         h1    343    ccc     H9   9431 0.05653400   1.008000   ; qtot 0.539761
 9432         h1    343    ccc    H10   9432 0.05653400   1.008000   ; qtot 0.596295
 9433         oh    343    ccc     O5   9433 -0.84113600  16.000000   ; qtot -0.244841
 9434         ho    343    ccc    H11   9434 0.51201600   1.008000   ; qtot 0.267175
 9435         os    343    ccc     O6   9435 -0.26013600  16.000000   ; qtot 0.007039
; residue  344 ccc rtp ccc q 0.0
 9436         c3    344    ccc     C1   9436 -0.33178800  12.010000   ; qtot -0.324749
 9437         c3    344    ccc     C2   9437 0.30606500  12.010000   ; qtot -0.018684
 9438         h1    344    ccc     H1   9438 0.11662300   1.008000   ; qtot 0.097939
 9439         h1    344    ccc     H2   9439 0.11526800   1.008000   ; qtot 0.213207
 9440         c3    344    ccc     C3   9440 0.15592700  12.010000   ; qtot 0.369134
 9441         c3    344    ccc     C4   9441 0.28383300  12.010000   ; qtot 0.652967
 9442         c3    344    ccc     C5   9442 0.32403300  12.010000   ; qtot 0.977000
 9443         h1    344    ccc     H3   9443 0.13386900   1.008000   ; qtot 1.110869
 9444         h1    344    ccc     H4   9444 0.10146700   1.008000   ; qtot 1.212336
 9445         h2    344    ccc     H5   9445 0.10960400   1.008000   ; qtot 1.321940
 9446         os    344    ccc     O1   9446 -0.28650000  16.000000   ; qtot 1.035440
 9447         oh    344    ccc     O2   9447 -0.86012500  16.000000   ; qtot 0.175315
 9448         oh    344    ccc     O3   9448 -0.83772800  16.000000   ; qtot -0.662413
 9449         oh    344    ccc     O4   9449 -0.77449700  16.000000   ; qtot -1.436910
 9450         c3    344    ccc     C6   9450 0.37576500  12.010000   ; qtot -1.061145
 9451         ho    344    ccc     H6   9451 0.53656000   1.008000   ; qtot -0.524585
 9452         ho    344    ccc     H7   9452 0.49492100   1.008000   ; qtot -0.029664
 9453         ho    344    ccc     H8   9453 0.51297200   1.008000   ; qtot 0.483308
 9454         h1    344    ccc     H9   9454 0.05653400   1.008000   ; qtot 0.539842
 9455         h1    344    ccc    H10   9455 0.05653400   1.008000   ; qtot 0.596376
 9456         oh    344    ccc     O5   9456 -0.84113600  16.000000   ; qtot -0.244760
 9457         ho    344    ccc    H11   9457 0.51201600   1.008000   ; qtot 0.267256
 9458         os    344    ccc     O6   9458 -0.26013600  16.000000   ; qtot 0.007120
; residue  345 ccc rtp ccc q 0.0
 9459         c3    345    ccc     C1   9459 -0.33178800  12.010000   ; qtot -0.324668
 9460         c3    345    ccc     C2   9460 0.30606500  12.010000   ; qtot -0.018603
 9461         h1    345    ccc     H1   9461 0.11662300   1.008000   ; qtot 0.098020
 9462         h1    345    ccc     H2   9462 0.11526800   1.008000   ; qtot 0.213288
 9463         c3    345    ccc     C3   9463 0.15592700  12.010000   ; qtot 0.369215
 9464         c3    345    ccc     C4   9464 0.28383300  12.010000   ; qtot 0.653048
 9465         c3    345    ccc     C5   9465 0.32403300  12.010000   ; qtot 0.977081
 9466         h1    345    ccc     H3   9466 0.13386900   1.008000   ; qtot 1.110950
 9467         h1    345    ccc     H4   9467 0.10146700   1.008000   ; qtot 1.212417
 9468         h2    345    ccc     H5   9468 0.10960400   1.008000   ; qtot 1.322021
 9469         os    345    ccc     O1   9469 -0.28650000  16.000000   ; qtot 1.035521
 9470         oh    345    ccc     O2   9470 -0.86012500  16.000000   ; qtot 0.175396
 9471         oh    345    ccc     O3   9471 -0.83772800  16.000000   ; qtot -0.662332
 9472         oh    345    ccc     O4   9472 -0.77449700  16.000000   ; qtot -1.436829
 9473         c3    345    ccc     C6   9473 0.37576500  12.010000   ; qtot -1.061064
 9474         ho    345    ccc     H6   9474 0.53656000   1.008000   ; qtot -0.524504
 9475         ho    345    ccc     H7   9475 0.49492100   1.008000   ; qtot -0.029583
 9476         ho    345    ccc     H8   9476 0.51297200   1.008000   ; qtot 0.483389
 9477         h1    345    ccc     H9   9477 0.05653400   1.008000   ; qtot 0.539923
 9478         h1    345    ccc    H10   9478 0.05653400   1.008000   ; qtot 0.596457
 9479         oh    345    ccc     O5   9479 -0.84113600  16.000000   ; qtot -0.244679
 9480         ho    345    ccc    H11   9480 0.51201600   1.008000   ; qtot 0.267337
 9481         os    345    ccc     O6   9481 -0.26013600  16.000000   ; qtot 0.007201
; residue  346 ccc rtp ccc q 0.0
 9482         c3    346    ccc     C1   9482 -0.33178800  12.010000   ; qtot -0.324587
 9483         c3    346    ccc     C2   9483 0.30606500  12.010000   ; qtot -0.018522
 9484         h1    346    ccc     H1   9484 0.11662300   1.008000   ; qtot 0.098101
 9485         h1    346    ccc     H2   9485 0.11526800   1.008000   ; qtot 0.213369
 9486         c3    346    ccc     C3   9486 0.15592700  12.010000   ; qtot 0.369296
 9487         c3    346    ccc     C4   9487 0.28383300  12.010000   ; qtot 0.653129
 9488         c3    346    ccc     C5   9488 0.32403300  12.010000   ; qtot 0.977162
 9489         h1    346    ccc     H3   9489 0.13386900   1.008000   ; qtot 1.111031
 9490         h1    346    ccc     H4   9490 0.10146700   1.008000   ; qtot 1.212498
 9491         h2    346    ccc     H5   9491 0.10960400   1.008000   ; qtot 1.322102
 9492         os    346    ccc     O1   9492 -0.28650000  16.000000   ; qtot 1.035602
 9493         oh    346    ccc     O2   9493 -0.86012500  16.000000   ; qtot 0.175477
 9494         oh    346    ccc     O3   9494 -0.83772800  16.000000   ; qtot -0.662251
 9495         oh    346    ccc     O4   9495 -0.77449700  16.000000   ; qtot -1.436748
 9496         c3    346    ccc     C6   9496 0.37576500  12.010000   ; qtot -1.060983
 9497         ho    346    ccc     H6   9497 0.53656000   1.008000   ; qtot -0.524423
 9498         ho    346    ccc     H7   9498 0.49492100   1.008000   ; qtot -0.029502
 9499         ho    346    ccc     H8   9499 0.51297200   1.008000   ; qtot 0.483470
 9500         h1    346    ccc     H9   9500 0.05653400   1.008000   ; qtot 0.540004
 9501         h1    346    ccc    H10   9501 0.05653400   1.008000   ; qtot 0.596538
 9502         oh    346    ccc     O5   9502 -0.84113600  16.000000   ; qtot -0.244598
 9503         ho    346    ccc    H11   9503 0.51201600   1.008000   ; qtot 0.267418
 9504         os    346    ccc     O6   9504 -0.26013600  16.000000   ; qtot 0.007282
; residue  347 ccc rtp ccc q 0.0
 9505         c3    347    ccc     C1   9505 -0.33178800  12.010000   ; qtot -0.324506
 9506         c3    347    ccc     C2   9506 0.30606500  12.010000   ; qtot -0.018441
 9507         h1    347    ccc     H1   9507 0.11662300   1.008000   ; qtot 0.098182
 9508         h1    347    ccc     H2   9508 0.11526800   1.008000   ; qtot 0.213450
 9509         c3    347    ccc     C3   9509 0.15592700  12.010000   ; qtot 0.369377
 9510         c3    347    ccc     C4   9510 0.28383300  12.010000   ; qtot 0.653210
 9511         c3    347    ccc     C5   9511 0.32403300  12.010000   ; qtot 0.977243
 9512         h1    347    ccc     H3   9512 0.13386900   1.008000   ; qtot 1.111112
 9513         h1    347    ccc     H4   9513 0.10146700   1.008000   ; qtot 1.212579
 9514         h2    347    ccc     H5   9514 0.10960400   1.008000   ; qtot 1.322183
 9515         os    347    ccc     O1   9515 -0.28650000  16.000000   ; qtot 1.035683
 9516         oh    347    ccc     O2   9516 -0.86012500  16.000000   ; qtot 0.175558
 9517         oh    347    ccc     O3   9517 -0.83772800  16.000000   ; qtot -0.662170
 9518         oh    347    ccc     O4   9518 -0.77449700  16.000000   ; qtot -1.436667
 9519         c3    347    ccc     C6   9519 0.37576500  12.010000   ; qtot -1.060902
 9520         ho    347    ccc     H6   9520 0.53656000   1.008000   ; qtot -0.524342
 9521         ho    347    ccc     H7   9521 0.49492100   1.008000   ; qtot -0.029421
 9522         ho    347    ccc     H8   9522 0.51297200   1.008000   ; qtot 0.483551
 9523         h1    347    ccc     H9   9523 0.05653400   1.008000   ; qtot 0.540085
 9524         h1    347    ccc    H10   9524 0.05653400   1.008000   ; qtot 0.596619
 9525         oh    347    ccc     O5   9525 -0.84113600  16.000000   ; qtot -0.244517
 9526         ho    347    ccc    H11   9526 0.51201600   1.008000   ; qtot 0.267499
 9527         os    347    ccc     O6   9527 -0.26013600  16.000000   ; qtot 0.007363
; residue  348 ccc rtp ccc q 0.0
 9528         c3    348    ccc     C1   9528 -0.33178800  12.010000   ; qtot -0.324425
 9529         c3    348    ccc     C2   9529 0.30606500  12.010000   ; qtot -0.018360
 9530         h1    348    ccc     H1   9530 0.11662300   1.008000   ; qtot 0.098263
 9531         h1    348    ccc     H2   9531 0.11526800   1.008000   ; qtot 0.213531
 9532         c3    348    ccc     C3   9532 0.15592700  12.010000   ; qtot 0.369458
 9533         c3    348    ccc     C4   9533 0.28383300  12.010000   ; qtot 0.653291
 9534         c3    348    ccc     C5   9534 0.32403300  12.010000   ; qtot 0.977324
 9535         h1    348    ccc     H3   9535 0.13386900   1.008000   ; qtot 1.111193
 9536         h1    348    ccc     H4   9536 0.10146700   1.008000   ; qtot 1.212660
 9537         h2    348    ccc     H5   9537 0.10960400   1.008000   ; qtot 1.322264
 9538         os    348    ccc     O1   9538 -0.28650000  16.000000   ; qtot 1.035764
 9539         oh    348    ccc     O2   9539 -0.86012500  16.000000   ; qtot 0.175639
 9540         oh    348    ccc     O3   9540 -0.83772800  16.000000   ; qtot -0.662089
 9541         oh    348    ccc     O4   9541 -0.77449700  16.000000   ; qtot -1.436586
 9542         c3    348    ccc     C6   9542 0.37576500  12.010000   ; qtot -1.060821
 9543         ho    348    ccc     H6   9543 0.53656000   1.008000   ; qtot -0.524261
 9544         ho    348    ccc     H7   9544 0.49492100   1.008000   ; qtot -0.029340
 9545         ho    348    ccc     H8   9545 0.51297200   1.008000   ; qtot 0.483632
 9546         h1    348    ccc     H9   9546 0.05653400   1.008000   ; qtot 0.540166
 9547         h1    348    ccc    H10   9547 0.05653400   1.008000   ; qtot 0.596700
 9548         oh    348    ccc     O5   9548 -0.84113600  16.000000   ; qtot -0.244436
 9549         ho    348    ccc    H11   9549 0.51201600   1.008000   ; qtot 0.267580
 9550         os    348    ccc     O6   9550 -0.26013600  16.000000   ; qtot 0.007444
; residue  349 ccc rtp ccc q 0.0
 9551         c3    349    ccc     C1   9551 -0.33178800  12.010000   ; qtot -0.324344
 9552         c3    349    ccc     C2   9552 0.30606500  12.010000   ; qtot -0.018279
 9553         h1    349    ccc     H1   9553 0.11662300   1.008000   ; qtot 0.098344
 9554         h1    349    ccc     H2   9554 0.11526800   1.008000   ; qtot 0.213612
 9555         c3    349    ccc     C3   9555 0.15592700  12.010000   ; qtot 0.369539
 9556         c3    349    ccc     C4   9556 0.28383300  12.010000   ; qtot 0.653372
 9557         c3    349    ccc     C5   9557 0.32403300  12.010000   ; qtot 0.977405
 9558         h1    349    ccc     H3   9558 0.13386900   1.008000   ; qtot 1.111274
 9559         h1    349    ccc     H4   9559 0.10146700   1.008000   ; qtot 1.212741
 9560         h2    349    ccc     H5   9560 0.10960400   1.008000   ; qtot 1.322345
 9561         os    349    ccc     O1   9561 -0.28650000  16.000000   ; qtot 1.035845
 9562         oh    349    ccc     O2   9562 -0.86012500  16.000000   ; qtot 0.175720
 9563         oh    349    ccc     O3   9563 -0.83772800  16.000000   ; qtot -0.662008
 9564         oh    349    ccc     O4   9564 -0.77449700  16.000000   ; qtot -1.436505
 9565         c3    349    ccc     C6   9565 0.37576500  12.010000   ; qtot -1.060740
 9566         ho    349    ccc     H6   9566 0.53656000   1.008000   ; qtot -0.524180
 9567         ho    349    ccc     H7   9567 0.49492100   1.008000   ; qtot -0.029259
 9568         ho    349    ccc     H8   9568 0.51297200   1.008000   ; qtot 0.483713
 9569         h1    349    ccc     H9   9569 0.05653400   1.008000   ; qtot 0.540247
 9570         h1    349    ccc    H10   9570 0.05653400   1.008000   ; qtot 0.596781
 9571         oh    349    ccc     O5   9571 -0.84113600  16.000000   ; qtot -0.244355
 9572         ho    349    ccc    H11   9572 0.51201600   1.008000   ; qtot 0.267661
 9573         os    349    ccc     O6   9573 -0.26013600  16.000000   ; qtot 0.007525
; residue  350 ccc rtp ccc q 0.0
 9574         c3    350    ccc     C1   9574 -0.33178800  12.010000   ; qtot -0.324263
 9575         c3    350    ccc     C2   9575 0.30606500  12.010000   ; qtot -0.018198
 9576         h1    350    ccc     H1   9576 0.11662300   1.008000   ; qtot 0.098425
 9577         h1    350    ccc     H2   9577 0.11526800   1.008000   ; qtot 0.213693
 9578         c3    350    ccc     C3   9578 0.15592700  12.010000   ; qtot 0.369620
 9579         c3    350    ccc     C4   9579 0.28383300  12.010000   ; qtot 0.653453
 9580         c3    350    ccc     C5   9580 0.32403300  12.010000   ; qtot 0.977486
 9581         h1    350    ccc     H3   9581 0.13386900   1.008000   ; qtot 1.111355
 9582         h1    350    ccc     H4   9582 0.10146700   1.008000   ; qtot 1.212822
 9583         h2    350    ccc     H5   9583 0.10960400   1.008000   ; qtot 1.322426
 9584         os    350    ccc     O1   9584 -0.28650000  16.000000   ; qtot 1.035926
 9585         oh    350    ccc     O2   9585 -0.86012500  16.000000   ; qtot 0.175801
 9586         oh    350    ccc     O3   9586 -0.83772800  16.000000   ; qtot -0.661927
 9587         oh    350    ccc     O4   9587 -0.77449700  16.000000   ; qtot -1.436424
 9588         c3    350    ccc     C6   9588 0.37576500  12.010000   ; qtot -1.060659
 9589         ho    350    ccc     H6   9589 0.53656000   1.008000   ; qtot -0.524099
 9590         ho    350    ccc     H7   9590 0.49492100   1.008000   ; qtot -0.029178
 9591         ho    350    ccc     H8   9591 0.51297200   1.008000   ; qtot 0.483794
 9592         h1    350    ccc     H9   9592 0.05653400   1.008000   ; qtot 0.540328
 9593         h1    350    ccc    H10   9593 0.05653400   1.008000   ; qtot 0.596862
 9594         oh    350    ccc     O5   9594 -0.84113600  16.000000   ; qtot -0.244274
 9595         ho    350    ccc    H11   9595 0.51201600   1.008000   ; qtot 0.267742
 9596         os    350    ccc     O6   9596 -0.26013600  16.000000   ; qtot 0.007606
; residue  351 ccc rtp ccc q 0.0
 9597         c3    351    ccc     C1   9597 -0.33178800  12.010000   ; qtot -0.324182
 9598         c3    351    ccc     C2   9598 0.30606500  12.010000   ; qtot -0.018117
 9599         h1    351    ccc     H1   9599 0.11662300   1.008000   ; qtot 0.098506
 9600         h1    351    ccc     H2   9600 0.11526800   1.008000   ; qtot 0.213774
 9601         c3    351    ccc     C3   9601 0.15592700  12.010000   ; qtot 0.369701
 9602         c3    351    ccc     C4   9602 0.28383300  12.010000   ; qtot 0.653534
 9603         c3    351    ccc     C5   9603 0.32403300  12.010000   ; qtot 0.977567
 9604         h1    351    ccc     H3   9604 0.13386900   1.008000   ; qtot 1.111436
 9605         h1    351    ccc     H4   9605 0.10146700   1.008000   ; qtot 1.212903
 9606         h2    351    ccc     H5   9606 0.10960400   1.008000   ; qtot 1.322507
 9607         os    351    ccc     O1   9607 -0.28650000  16.000000   ; qtot 1.036007
 9608         oh    351    ccc     O2   9608 -0.86012500  16.000000   ; qtot 0.175882
 9609         oh    351    ccc     O3   9609 -0.83772800  16.000000   ; qtot -0.661846
 9610         oh    351    ccc     O4   9610 -0.77449700  16.000000   ; qtot -1.436343
 9611         c3    351    ccc     C6   9611 0.37576500  12.010000   ; qtot -1.060578
 9612         ho    351    ccc     H6   9612 0.53656000   1.008000   ; qtot -0.524018
 9613         ho    351    ccc     H7   9613 0.49492100   1.008000   ; qtot -0.029097
 9614         ho    351    ccc     H8   9614 0.51297200   1.008000   ; qtot 0.483875
 9615         h1    351    ccc     H9   9615 0.05653400   1.008000   ; qtot 0.540409
 9616         h1    351    ccc    H10   9616 0.05653400   1.008000   ; qtot 0.596943
 9617         oh    351    ccc     O5   9617 -0.84113600  16.000000   ; qtot -0.244193
 9618         ho    351    ccc    H11   9618 0.51201600   1.008000   ; qtot 0.267823
 9619         os    351    ccc     O6   9619 -0.26013600  16.000000   ; qtot 0.007687
; residue  352 ccc rtp ccc q 0.0
 9620         c3    352    ccc     C1   9620 -0.33178800  12.010000   ; qtot -0.324101
 9621         c3    352    ccc     C2   9621 0.30606500  12.010000   ; qtot -0.018036
 9622         h1    352    ccc     H1   9622 0.11662300   1.008000   ; qtot 0.098587
 9623         h1    352    ccc     H2   9623 0.11526800   1.008000   ; qtot 0.213855
 9624         c3    352    ccc     C3   9624 0.15592700  12.010000   ; qtot 0.369782
 9625         c3    352    ccc     C4   9625 0.28383300  12.010000   ; qtot 0.653615
 9626         c3    352    ccc     C5   9626 0.32403300  12.010000   ; qtot 0.977648
 9627         h1    352    ccc     H3   9627 0.13386900   1.008000   ; qtot 1.111517
 9628         h1    352    ccc     H4   9628 0.10146700   1.008000   ; qtot 1.212984
 9629         h2    352    ccc     H5   9629 0.10960400   1.008000   ; qtot 1.322588
 9630         os    352    ccc     O1   9630 -0.28650000  16.000000   ; qtot 1.036088
 9631         oh    352    ccc     O2   9631 -0.86012500  16.000000   ; qtot 0.175963
 9632         oh    352    ccc     O3   9632 -0.83772800  16.000000   ; qtot -0.661765
 9633         oh    352    ccc     O4   9633 -0.77449700  16.000000   ; qtot -1.436262
 9634         c3    352    ccc     C6   9634 0.37576500  12.010000   ; qtot -1.060497
 9635         ho    352    ccc     H6   9635 0.53656000   1.008000   ; qtot -0.523937
 9636         ho    352    ccc     H7   9636 0.49492100   1.008000   ; qtot -0.029016
 9637         ho    352    ccc     H8   9637 0.51297200   1.008000   ; qtot 0.483956
 9638         h1    352    ccc     H9   9638 0.05653400   1.008000   ; qtot 0.540490
 9639         h1    352    ccc    H10   9639 0.05653400   1.008000   ; qtot 0.597024
 9640         oh    352    ccc     O5   9640 -0.84113600  16.000000   ; qtot -0.244112
 9641         ho    352    ccc    H11   9641 0.51201600   1.008000   ; qtot 0.267904
 9642         os    352    ccc     O6   9642 -0.26013600  16.000000   ; qtot 0.007768
; residue  353 ccc rtp ccc q 0.0
 9643         c3    353    ccc     C1   9643 -0.33178800  12.010000   ; qtot -0.324020
 9644         c3    353    ccc     C2   9644 0.30606500  12.010000   ; qtot -0.017955
 9645         h1    353    ccc     H1   9645 0.11662300   1.008000   ; qtot 0.098668
 9646         h1    353    ccc     H2   9646 0.11526800   1.008000   ; qtot 0.213936
 9647         c3    353    ccc     C3   9647 0.15592700  12.010000   ; qtot 0.369863
 9648         c3    353    ccc     C4   9648 0.28383300  12.010000   ; qtot 0.653696
 9649         c3    353    ccc     C5   9649 0.32403300  12.010000   ; qtot 0.977729
 9650         h1    353    ccc     H3   9650 0.13386900   1.008000   ; qtot 1.111598
 9651         h1    353    ccc     H4   9651 0.10146700   1.008000   ; qtot 1.213065
 9652         h2    353    ccc     H5   9652 0.10960400   1.008000   ; qtot 1.322669
 9653         os    353    ccc     O1   9653 -0.28650000  16.000000   ; qtot 1.036169
 9654         oh    353    ccc     O2   9654 -0.86012500  16.000000   ; qtot 0.176044
 9655         oh    353    ccc     O3   9655 -0.83772800  16.000000   ; qtot -0.661684
 9656         oh    353    ccc     O4   9656 -0.77449700  16.000000   ; qtot -1.436181
 9657         c3    353    ccc     C6   9657 0.37576500  12.010000   ; qtot -1.060416
 9658         ho    353    ccc     H6   9658 0.53656000   1.008000   ; qtot -0.523856
 9659         ho    353    ccc     H7   9659 0.49492100   1.008000   ; qtot -0.028935
 9660         ho    353    ccc     H8   9660 0.51297200   1.008000   ; qtot 0.484037
 9661         h1    353    ccc     H9   9661 0.05653400   1.008000   ; qtot 0.540571
 9662         h1    353    ccc    H10   9662 0.05653400   1.008000   ; qtot 0.597105
 9663         oh    353    ccc     O5   9663 -0.84113600  16.000000   ; qtot -0.244031
 9664         ho    353    ccc    H11   9664 0.51201600   1.008000   ; qtot 0.267985
 9665         os    353    ccc     O6   9665 -0.26013600  16.000000   ; qtot 0.007849
; residue  354 ccc rtp ccc q 0.0
 9666         c3    354    ccc     C1   9666 -0.33178800  12.010000   ; qtot -0.323939
 9667         c3    354    ccc     C2   9667 0.30606500  12.010000   ; qtot -0.017874
 9668         h1    354    ccc     H1   9668 0.11662300   1.008000   ; qtot 0.098749
 9669         h1    354    ccc     H2   9669 0.11526800   1.008000   ; qtot 0.214017
 9670         c3    354    ccc     C3   9670 0.15592700  12.010000   ; qtot 0.369944
 9671         c3    354    ccc     C4   9671 0.28383300  12.010000   ; qtot 0.653777
 9672         c3    354    ccc     C5   9672 0.32403300  12.010000   ; qtot 0.977810
 9673         h1    354    ccc     H3   9673 0.13386900   1.008000   ; qtot 1.111679
 9674         h1    354    ccc     H4   9674 0.10146700   1.008000   ; qtot 1.213146
 9675         h2    354    ccc     H5   9675 0.10960400   1.008000   ; qtot 1.322750
 9676         os    354    ccc     O1   9676 -0.28650000  16.000000   ; qtot 1.036250
 9677         oh    354    ccc     O2   9677 -0.86012500  16.000000   ; qtot 0.176125
 9678         oh    354    ccc     O3   9678 -0.83772800  16.000000   ; qtot -0.661603
 9679         oh    354    ccc     O4   9679 -0.77449700  16.000000   ; qtot -1.436100
 9680         c3    354    ccc     C6   9680 0.37576500  12.010000   ; qtot -1.060335
 9681         ho    354    ccc     H6   9681 0.53656000   1.008000   ; qtot -0.523775
 9682         ho    354    ccc     H7   9682 0.49492100   1.008000   ; qtot -0.028854
 9683         ho    354    ccc     H8   9683 0.51297200   1.008000   ; qtot 0.484118
 9684         h1    354    ccc     H9   9684 0.05653400   1.008000   ; qtot 0.540652
 9685         h1    354    ccc    H10   9685 0.05653400   1.008000   ; qtot 0.597186
 9686         oh    354    ccc     O5   9686 -0.84113600  16.000000   ; qtot -0.243950
 9687         ho    354    ccc    H11   9687 0.51201600   1.008000   ; qtot 0.268066
 9688         os    354    ccc     O6   9688 -0.26013600  16.000000   ; qtot 0.007930
; residue  355 ccc rtp ccc q 0.0
 9689         c3    355    ccc     C1   9689 -0.33178800  12.010000   ; qtot -0.323858
 9690         c3    355    ccc     C2   9690 0.30606500  12.010000   ; qtot -0.017793
 9691         h1    355    ccc     H1   9691 0.11662300   1.008000   ; qtot 0.098830
 9692         h1    355    ccc     H2   9692 0.11526800   1.008000   ; qtot 0.214098
 9693         c3    355    ccc     C3   9693 0.15592700  12.010000   ; qtot 0.370025
 9694         c3    355    ccc     C4   9694 0.28383300  12.010000   ; qtot 0.653858
 9695         c3    355    ccc     C5   9695 0.32403300  12.010000   ; qtot 0.977891
 9696         h1    355    ccc     H3   9696 0.13386900   1.008000   ; qtot 1.111760
 9697         h1    355    ccc     H4   9697 0.10146700   1.008000   ; qtot 1.213227
 9698         h2    355    ccc     H5   9698 0.10960400   1.008000   ; qtot 1.322831
 9699         os    355    ccc     O1   9699 -0.28650000  16.000000   ; qtot 1.036331
 9700         oh    355    ccc     O2   9700 -0.86012500  16.000000   ; qtot 0.176206
 9701         oh    355    ccc     O3   9701 -0.83772800  16.000000   ; qtot -0.661522
 9702         oh    355    ccc     O4   9702 -0.77449700  16.000000   ; qtot -1.436019
 9703         c3    355    ccc     C6   9703 0.37576500  12.010000   ; qtot -1.060254
 9704         ho    355    ccc     H6   9704 0.53656000   1.008000   ; qtot -0.523694
 9705         ho    355    ccc     H7   9705 0.49492100   1.008000   ; qtot -0.028773
 9706         ho    355    ccc     H8   9706 0.51297200   1.008000   ; qtot 0.484199
 9707         h1    355    ccc     H9   9707 0.05653400   1.008000   ; qtot 0.540733
 9708         h1    355    ccc    H10   9708 0.05653400   1.008000   ; qtot 0.597267
 9709         oh    355    ccc     O5   9709 -0.84113600  16.000000   ; qtot -0.243869
 9710         ho    355    ccc    H11   9710 0.51201600   1.008000   ; qtot 0.268147
 9711         os    355    ccc     O6   9711 -0.26013600  16.000000   ; qtot 0.008011
; residue  356 ccc rtp ccc q 0.0
 9712         c3    356    ccc     C1   9712 -0.33178800  12.010000   ; qtot -0.323777
 9713         c3    356    ccc     C2   9713 0.30606500  12.010000   ; qtot -0.017712
 9714         h1    356    ccc     H1   9714 0.11662300   1.008000   ; qtot 0.098911
 9715         h1    356    ccc     H2   9715 0.11526800   1.008000   ; qtot 0.214179
 9716         c3    356    ccc     C3   9716 0.15592700  12.010000   ; qtot 0.370106
 9717         c3    356    ccc     C4   9717 0.28383300  12.010000   ; qtot 0.653939
 9718         c3    356    ccc     C5   9718 0.32403300  12.010000   ; qtot 0.977972
 9719         h1    356    ccc     H3   9719 0.13386900   1.008000   ; qtot 1.111841
 9720         h1    356    ccc     H4   9720 0.10146700   1.008000   ; qtot 1.213308
 9721         h2    356    ccc     H5   9721 0.10960400   1.008000   ; qtot 1.322912
 9722         os    356    ccc     O1   9722 -0.28650000  16.000000   ; qtot 1.036412
 9723         oh    356    ccc     O2   9723 -0.86012500  16.000000   ; qtot 0.176287
 9724         oh    356    ccc     O3   9724 -0.83772800  16.000000   ; qtot -0.661441
 9725         oh    356    ccc     O4   9725 -0.77449700  16.000000   ; qtot -1.435938
 9726         c3    356    ccc     C6   9726 0.37576500  12.010000   ; qtot -1.060173
 9727         ho    356    ccc     H6   9727 0.53656000   1.008000   ; qtot -0.523613
 9728         ho    356    ccc     H7   9728 0.49492100   1.008000   ; qtot -0.028692
 9729         ho    356    ccc     H8   9729 0.51297200   1.008000   ; qtot 0.484280
 9730         h1    356    ccc     H9   9730 0.05653400   1.008000   ; qtot 0.540814
 9731         h1    356    ccc    H10   9731 0.05653400   1.008000   ; qtot 0.597348
 9732         oh    356    ccc     O5   9732 -0.84113600  16.000000   ; qtot -0.243788
 9733         ho    356    ccc    H11   9733 0.51201600   1.008000   ; qtot 0.268228
 9734         os    356    ccc     O6   9734 -0.26013600  16.000000   ; qtot 0.008092
; residue  357 ccc rtp ccc q 0.0
 9735         c3    357    ccc     C1   9735 -0.33178800  12.010000   ; qtot -0.323696
 9736         c3    357    ccc     C2   9736 0.30606500  12.010000   ; qtot -0.017631
 9737         h1    357    ccc     H1   9737 0.11662300   1.008000   ; qtot 0.098992
 9738         h1    357    ccc     H2   9738 0.11526800   1.008000   ; qtot 0.214260
 9739         c3    357    ccc     C3   9739 0.15592700  12.010000   ; qtot 0.370187
 9740         c3    357    ccc     C4   9740 0.28383300  12.010000   ; qtot 0.654020
 9741         c3    357    ccc     C5   9741 0.32403300  12.010000   ; qtot 0.978053
 9742         h1    357    ccc     H3   9742 0.13386900   1.008000   ; qtot 1.111922
 9743         h1    357    ccc     H4   9743 0.10146700   1.008000   ; qtot 1.213389
 9744         h2    357    ccc     H5   9744 0.10960400   1.008000   ; qtot 1.322993
 9745         os    357    ccc     O1   9745 -0.28650000  16.000000   ; qtot 1.036493
 9746         oh    357    ccc     O2   9746 -0.86012500  16.000000   ; qtot 0.176368
 9747         oh    357    ccc     O3   9747 -0.83772800  16.000000   ; qtot -0.661360
 9748         oh    357    ccc     O4   9748 -0.77449700  16.000000   ; qtot -1.435857
 9749         c3    357    ccc     C6   9749 0.37576500  12.010000   ; qtot -1.060092
 9750         ho    357    ccc     H6   9750 0.53656000   1.008000   ; qtot -0.523532
 9751         ho    357    ccc     H7   9751 0.49492100   1.008000   ; qtot -0.028611
 9752         ho    357    ccc     H8   9752 0.51297200   1.008000   ; qtot 0.484361
 9753         h1    357    ccc     H9   9753 0.05653400   1.008000   ; qtot 0.540895
 9754         h1    357    ccc    H10   9754 0.05653400   1.008000   ; qtot 0.597429
 9755         oh    357    ccc     O5   9755 -0.84113600  16.000000   ; qtot -0.243707
 9756         ho    357    ccc    H11   9756 0.51201600   1.008000   ; qtot 0.268309
 9757         os    357    ccc     O6   9757 -0.26013600  16.000000   ; qtot 0.008173
; residue  358 ccc rtp ccc q 0.0
 9758         c3    358    ccc     C1   9758 -0.33178800  12.010000   ; qtot -0.323615
 9759         c3    358    ccc     C2   9759 0.30606500  12.010000   ; qtot -0.017550
 9760         h1    358    ccc     H1   9760 0.11662300   1.008000   ; qtot 0.099073
 9761         h1    358    ccc     H2   9761 0.11526800   1.008000   ; qtot 0.214341
 9762         c3    358    ccc     C3   9762 0.15592700  12.010000   ; qtot 0.370268
 9763         c3    358    ccc     C4   9763 0.28383300  12.010000   ; qtot 0.654101
 9764         c3    358    ccc     C5   9764 0.32403300  12.010000   ; qtot 0.978134
 9765         h1    358    ccc     H3   9765 0.13386900   1.008000   ; qtot 1.112003
 9766         h1    358    ccc     H4   9766 0.10146700   1.008000   ; qtot 1.213470
 9767         h2    358    ccc     H5   9767 0.10960400   1.008000   ; qtot 1.323074
 9768         os    358    ccc     O1   9768 -0.28650000  16.000000   ; qtot 1.036574
 9769         oh    358    ccc     O2   9769 -0.86012500  16.000000   ; qtot 0.176449
 9770         oh    358    ccc     O3   9770 -0.83772800  16.000000   ; qtot -0.661279
 9771         oh    358    ccc     O4   9771 -0.77449700  16.000000   ; qtot -1.435776
 9772         c3    358    ccc     C6   9772 0.37576500  12.010000   ; qtot -1.060011
 9773         ho    358    ccc     H6   9773 0.53656000   1.008000   ; qtot -0.523451
 9774         ho    358    ccc     H7   9774 0.49492100   1.008000   ; qtot -0.028530
 9775         ho    358    ccc     H8   9775 0.51297200   1.008000   ; qtot 0.484442
 9776         h1    358    ccc     H9   9776 0.05653400   1.008000   ; qtot 0.540976
 9777         h1    358    ccc    H10   9777 0.05653400   1.008000   ; qtot 0.597510
 9778         oh    358    ccc     O5   9778 -0.84113600  16.000000   ; qtot -0.243626
 9779         ho    358    ccc    H11   9779 0.51201600   1.008000   ; qtot 0.268390
 9780         os    358    ccc     O6   9780 -0.26013600  16.000000   ; qtot 0.008254
; residue  359 ccc rtp ccc q 0.0
 9781         c3    359    ccc     C1   9781 -0.33178800  12.010000   ; qtot -0.323534
 9782         c3    359    ccc     C2   9782 0.30606500  12.010000   ; qtot -0.017469
 9783         h1    359    ccc     H1   9783 0.11662300   1.008000   ; qtot 0.099154
 9784         h1    359    ccc     H2   9784 0.11526800   1.008000   ; qtot 0.214422
 9785         c3    359    ccc     C3   9785 0.15592700  12.010000   ; qtot 0.370349
 9786         c3    359    ccc     C4   9786 0.28383300  12.010000   ; qtot 0.654182
 9787         c3    359    ccc     C5   9787 0.32403300  12.010000   ; qtot 0.978215
 9788         h1    359    ccc     H3   9788 0.13386900   1.008000   ; qtot 1.112084
 9789         h1    359    ccc     H4   9789 0.10146700   1.008000   ; qtot 1.213551
 9790         h2    359    ccc     H5   9790 0.10960400   1.008000   ; qtot 1.323155
 9791         os    359    ccc     O1   9791 -0.28650000  16.000000   ; qtot 1.036655
 9792         oh    359    ccc     O2   9792 -0.86012500  16.000000   ; qtot 0.176530
 9793         oh    359    ccc     O3   9793 -0.83772800  16.000000   ; qtot -0.661198
 9794         oh    359    ccc     O4   9794 -0.77449700  16.000000   ; qtot -1.435695
 9795         c3    359    ccc     C6   9795 0.37576500  12.010000   ; qtot -1.059930
 9796         ho    359    ccc     H6   9796 0.53656000   1.008000   ; qtot -0.523370
 9797         ho    359    ccc     H7   9797 0.49492100   1.008000   ; qtot -0.028449
 9798         ho    359    ccc     H8   9798 0.51297200   1.008000   ; qtot 0.484523
 9799         h1    359    ccc     H9   9799 0.05653400   1.008000   ; qtot 0.541057
 9800         h1    359    ccc    H10   9800 0.05653400   1.008000   ; qtot 0.597591
 9801         oh    359    ccc     O5   9801 -0.84113600  16.000000   ; qtot -0.243545
 9802         ho    359    ccc    H11   9802 0.51201600   1.008000   ; qtot 0.268471
 9803         os    359    ccc     O6   9803 -0.26013600  16.000000   ; qtot 0.008335
; residue  360 ccc rtp ccc q 0.0
 9804         c3    360    ccc     C1   9804 -0.33178800  12.010000   ; qtot -0.323453
 9805         c3    360    ccc     C2   9805 0.30606500  12.010000   ; qtot -0.017388
 9806         h1    360    ccc     H1   9806 0.11662300   1.008000   ; qtot 0.099235
 9807         h1    360    ccc     H2   9807 0.11526800   1.008000   ; qtot 0.214503
 9808         c3    360    ccc     C3   9808 0.15592700  12.010000   ; qtot 0.370430
 9809         c3    360    ccc     C4   9809 0.28383300  12.010000   ; qtot 0.654263
 9810         c3    360    ccc     C5   9810 0.32403300  12.010000   ; qtot 0.978296
 9811         h1    360    ccc     H3   9811 0.13386900   1.008000   ; qtot 1.112165
 9812         h1    360    ccc     H4   9812 0.10146700   1.008000   ; qtot 1.213632
 9813         h2    360    ccc     H5   9813 0.10960400   1.008000   ; qtot 1.323236
 9814         os    360    ccc     O1   9814 -0.28650000  16.000000   ; qtot 1.036736
 9815         oh    360    ccc     O2   9815 -0.86012500  16.000000   ; qtot 0.176611
 9816         oh    360    ccc     O3   9816 -0.83772800  16.000000   ; qtot -0.661117
 9817         oh    360    ccc     O4   9817 -0.77449700  16.000000   ; qtot -1.435614
 9818         c3    360    ccc     C6   9818 0.37576500  12.010000   ; qtot -1.059849
 9819         ho    360    ccc     H6   9819 0.53656000   1.008000   ; qtot -0.523289
 9820         ho    360    ccc     H7   9820 0.49492100   1.008000   ; qtot -0.028368
 9821         ho    360    ccc     H8   9821 0.51297200   1.008000   ; qtot 0.484604
 9822         h1    360    ccc     H9   9822 0.05653400   1.008000   ; qtot 0.541138
 9823         h1    360    ccc    H10   9823 0.05653400   1.008000   ; qtot 0.597672
 9824         oh    360    ccc     O5   9824 -0.84113600  16.000000   ; qtot -0.243464
 9825         ho    360    ccc    H11   9825 0.51201600   1.008000   ; qtot 0.268552
 9826         os    360    ccc     O6   9826 -0.26013600  16.000000   ; qtot 0.008416
; residue  361 ccc rtp ccc q 0.0
 9827         c3    361    ccc     C1   9827 -0.33178800  12.010000   ; qtot -0.323372
 9828         c3    361    ccc     C2   9828 0.30606500  12.010000   ; qtot -0.017307
 9829         h1    361    ccc     H1   9829 0.11662300   1.008000   ; qtot 0.099316
 9830         h1    361    ccc     H2   9830 0.11526800   1.008000   ; qtot 0.214584
 9831         c3    361    ccc     C3   9831 0.15592700  12.010000   ; qtot 0.370511
 9832         c3    361    ccc     C4   9832 0.28383300  12.010000   ; qtot 0.654344
 9833         c3    361    ccc     C5   9833 0.32403300  12.010000   ; qtot 0.978377
 9834         h1    361    ccc     H3   9834 0.13386900   1.008000   ; qtot 1.112246
 9835         h1    361    ccc     H4   9835 0.10146700   1.008000   ; qtot 1.213713
 9836         h2    361    ccc     H5   9836 0.10960400   1.008000   ; qtot 1.323317
 9837         os    361    ccc     O1   9837 -0.28650000  16.000000   ; qtot 1.036817
 9838         oh    361    ccc     O2   9838 -0.86012500  16.000000   ; qtot 0.176692
 9839         oh    361    ccc     O3   9839 -0.83772800  16.000000   ; qtot -0.661036
 9840         oh    361    ccc     O4   9840 -0.77449700  16.000000   ; qtot -1.435533
 9841         c3    361    ccc     C6   9841 0.37576500  12.010000   ; qtot -1.059768
 9842         ho    361    ccc     H6   9842 0.53656000   1.008000   ; qtot -0.523208
 9843         ho    361    ccc     H7   9843 0.49492100   1.008000   ; qtot -0.028287
 9844         ho    361    ccc     H8   9844 0.51297200   1.008000   ; qtot 0.484685
 9845         h1    361    ccc     H9   9845 0.05653400   1.008000   ; qtot 0.541219
 9846         h1    361    ccc    H10   9846 0.05653400   1.008000   ; qtot 0.597753
 9847         oh    361    ccc     O5   9847 -0.84113600  16.000000   ; qtot -0.243383
 9848         ho    361    ccc    H11   9848 0.51201600   1.008000   ; qtot 0.268633
 9849         os    361    ccc     O6   9849 -0.26013600  16.000000   ; qtot 0.008497
; residue  362 ccc rtp ccc q 0.0
 9850         c3    362    ccc     C1   9850 -0.33178800  12.010000   ; qtot -0.323291
 9851         c3    362    ccc     C2   9851 0.30606500  12.010000   ; qtot -0.017226
 9852         h1    362    ccc     H1   9852 0.11662300   1.008000   ; qtot 0.099397
 9853         h1    362    ccc     H2   9853 0.11526800   1.008000   ; qtot 0.214665
 9854         c3    362    ccc     C3   9854 0.15592700  12.010000   ; qtot 0.370592
 9855         c3    362    ccc     C4   9855 0.28383300  12.010000   ; qtot 0.654425
 9856         c3    362    ccc     C5   9856 0.32403300  12.010000   ; qtot 0.978458
 9857         h1    362    ccc     H3   9857 0.13386900   1.008000   ; qtot 1.112327
 9858         h1    362    ccc     H4   9858 0.10146700   1.008000   ; qtot 1.213794
 9859         h2    362    ccc     H5   9859 0.10960400   1.008000   ; qtot 1.323398
 9860         os    362    ccc     O1   9860 -0.28650000  16.000000   ; qtot 1.036898
 9861         oh    362    ccc     O2   9861 -0.86012500  16.000000   ; qtot 0.176773
 9862         oh    362    ccc     O3   9862 -0.83772800  16.000000   ; qtot -0.660955
 9863         oh    362    ccc     O4   9863 -0.77449700  16.000000   ; qtot -1.435452
 9864         c3    362    ccc     C6   9864 0.37576500  12.010000   ; qtot -1.059687
 9865         ho    362    ccc     H6   9865 0.53656000   1.008000   ; qtot -0.523127
 9866         ho    362    ccc     H7   9866 0.49492100   1.008000   ; qtot -0.028206
 9867         ho    362    ccc     H8   9867 0.51297200   1.008000   ; qtot 0.484766
 9868         h1    362    ccc     H9   9868 0.05653400   1.008000   ; qtot 0.541300
 9869         h1    362    ccc    H10   9869 0.05653400   1.008000   ; qtot 0.597834
 9870         oh    362    ccc     O5   9870 -0.84113600  16.000000   ; qtot -0.243302
 9871         ho    362    ccc    H11   9871 0.51201600   1.008000   ; qtot 0.268714
 9872         os    362    ccc     O6   9872 -0.26013600  16.000000   ; qtot 0.008578
; residue  363 ccc rtp ccc q 0.0
 9873         c3    363    ccc     C1   9873 -0.33178800  12.010000   ; qtot -0.323210
 9874         c3    363    ccc     C2   9874 0.30606500  12.010000   ; qtot -0.017145
 9875         h1    363    ccc     H1   9875 0.11662300   1.008000   ; qtot 0.099478
 9876         h1    363    ccc     H2   9876 0.11526800   1.008000   ; qtot 0.214746
 9877         c3    363    ccc     C3   9877 0.15592700  12.010000   ; qtot 0.370673
 9878         c3    363    ccc     C4   9878 0.28383300  12.010000   ; qtot 0.654506
 9879         c3    363    ccc     C5   9879 0.32403300  12.010000   ; qtot 0.978539
 9880         h1    363    ccc     H3   9880 0.13386900   1.008000   ; qtot 1.112408
 9881         h1    363    ccc     H4   9881 0.10146700   1.008000   ; qtot 1.213875
 9882         h2    363    ccc     H5   9882 0.10960400   1.008000   ; qtot 1.323479
 9883         os    363    ccc     O1   9883 -0.28650000  16.000000   ; qtot 1.036979
 9884         oh    363    ccc     O2   9884 -0.86012500  16.000000   ; qtot 0.176854
 9885         oh    363    ccc     O3   9885 -0.83772800  16.000000   ; qtot -0.660874
 9886         oh    363    ccc     O4   9886 -0.77449700  16.000000   ; qtot -1.435371
 9887         c3    363    ccc     C6   9887 0.37576500  12.010000   ; qtot -1.059606
 9888         ho    363    ccc     H6   9888 0.53656000   1.008000   ; qtot -0.523046
 9889         ho    363    ccc     H7   9889 0.49492100   1.008000   ; qtot -0.028125
 9890         ho    363    ccc     H8   9890 0.51297200   1.008000   ; qtot 0.484847
 9891         h1    363    ccc     H9   9891 0.05653400   1.008000   ; qtot 0.541381
 9892         h1    363    ccc    H10   9892 0.05653400   1.008000   ; qtot 0.597915
 9893         oh    363    ccc     O5   9893 -0.84113600  16.000000   ; qtot -0.243221
 9894         ho    363    ccc    H11   9894 0.51201600   1.008000   ; qtot 0.268795
 9895         os    363    ccc     O6   9895 -0.26013600  16.000000   ; qtot 0.008659
; residue  364 ccc rtp ccc q 0.0
 9896         c3    364    ccc     C1   9896 -0.33178800  12.010000   ; qtot -0.323129
 9897         c3    364    ccc     C2   9897 0.30606500  12.010000   ; qtot -0.017064
 9898         h1    364    ccc     H1   9898 0.11662300   1.008000   ; qtot 0.099559
 9899         h1    364    ccc     H2   9899 0.11526800   1.008000   ; qtot 0.214827
 9900         c3    364    ccc     C3   9900 0.15592700  12.010000   ; qtot 0.370754
 9901         c3    364    ccc     C4   9901 0.28383300  12.010000   ; qtot 0.654587
 9902         c3    364    ccc     C5   9902 0.32403300  12.010000   ; qtot 0.978620
 9903         h1    364    ccc     H3   9903 0.13386900   1.008000   ; qtot 1.112489
 9904         h1    364    ccc     H4   9904 0.10146700   1.008000   ; qtot 1.213956
 9905         h2    364    ccc     H5   9905 0.10960400   1.008000   ; qtot 1.323560
 9906         os    364    ccc     O1   9906 -0.28650000  16.000000   ; qtot 1.037060
 9907         oh    364    ccc     O2   9907 -0.86012500  16.000000   ; qtot 0.176935
 9908         oh    364    ccc     O3   9908 -0.83772800  16.000000   ; qtot -0.660793
 9909         oh    364    ccc     O4   9909 -0.77449700  16.000000   ; qtot -1.435290
 9910         c3    364    ccc     C6   9910 0.37576500  12.010000   ; qtot -1.059525
 9911         ho    364    ccc     H6   9911 0.53656000   1.008000   ; qtot -0.522965
 9912         ho    364    ccc     H7   9912 0.49492100   1.008000   ; qtot -0.028044
 9913         ho    364    ccc     H8   9913 0.51297200   1.008000   ; qtot 0.484928
 9914         h1    364    ccc     H9   9914 0.05653400   1.008000   ; qtot 0.541462
 9915         h1    364    ccc    H10   9915 0.05653400   1.008000   ; qtot 0.597996
 9916         oh    364    ccc     O5   9916 -0.84113600  16.000000   ; qtot -0.243140
 9917         ho    364    ccc    H11   9917 0.51201600   1.008000   ; qtot 0.268876
 9918         os    364    ccc     O6   9918 -0.26013600  16.000000   ; qtot 0.008740
; residue  365 ccc rtp ccc q 0.0
 9919         c3    365    ccc     C1   9919 -0.33178800  12.010000   ; qtot -0.323048
 9920         c3    365    ccc     C2   9920 0.30606500  12.010000   ; qtot -0.016983
 9921         h1    365    ccc     H1   9921 0.11662300   1.008000   ; qtot 0.099640
 9922         h1    365    ccc     H2   9922 0.11526800   1.008000   ; qtot 0.214908
 9923         c3    365    ccc     C3   9923 0.15592700  12.010000   ; qtot 0.370835
 9924         c3    365    ccc     C4   9924 0.28383300  12.010000   ; qtot 0.654668
 9925         c3    365    ccc     C5   9925 0.32403300  12.010000   ; qtot 0.978701
 9926         h1    365    ccc     H3   9926 0.13386900   1.008000   ; qtot 1.112570
 9927         h1    365    ccc     H4   9927 0.10146700   1.008000   ; qtot 1.214037
 9928         h2    365    ccc     H5   9928 0.10960400   1.008000   ; qtot 1.323641
 9929         os    365    ccc     O1   9929 -0.28650000  16.000000   ; qtot 1.037141
 9930         oh    365    ccc     O2   9930 -0.86012500  16.000000   ; qtot 0.177016
 9931         oh    365    ccc     O3   9931 -0.83772800  16.000000   ; qtot -0.660712
 9932         oh    365    ccc     O4   9932 -0.77449700  16.000000   ; qtot -1.435209
 9933         c3    365    ccc     C6   9933 0.37576500  12.010000   ; qtot -1.059444
 9934         ho    365    ccc     H6   9934 0.53656000   1.008000   ; qtot -0.522884
 9935         ho    365    ccc     H7   9935 0.49492100   1.008000   ; qtot -0.027963
 9936         ho    365    ccc     H8   9936 0.51297200   1.008000   ; qtot 0.485009
 9937         h1    365    ccc     H9   9937 0.05653400   1.008000   ; qtot 0.541543
 9938         h1    365    ccc    H10   9938 0.05653400   1.008000   ; qtot 0.598077
 9939         oh    365    ccc     O5   9939 -0.84113600  16.000000   ; qtot -0.243059
 9940         ho    365    ccc    H11   9940 0.51201600   1.008000   ; qtot 0.268957
 9941         os    365    ccc     O6   9941 -0.26013600  16.000000   ; qtot 0.008821
; residue  366 ccc rtp ccc q 0.0
 9942         c3    366    ccc     C1   9942 -0.33178800  12.010000   ; qtot -0.322967
 9943         c3    366    ccc     C2   9943 0.30606500  12.010000   ; qtot -0.016902
 9944         h1    366    ccc     H1   9944 0.11662300   1.008000   ; qtot 0.099721
 9945         h1    366    ccc     H2   9945 0.11526800   1.008000   ; qtot 0.214989
 9946         c3    366    ccc     C3   9946 0.15592700  12.010000   ; qtot 0.370916
 9947         c3    366    ccc     C4   9947 0.28383300  12.010000   ; qtot 0.654749
 9948         c3    366    ccc     C5   9948 0.32403300  12.010000   ; qtot 0.978782
 9949         h1    366    ccc     H3   9949 0.13386900   1.008000   ; qtot 1.112651
 9950         h1    366    ccc     H4   9950 0.10146700   1.008000   ; qtot 1.214118
 9951         h2    366    ccc     H5   9951 0.10960400   1.008000   ; qtot 1.323722
 9952         os    366    ccc     O1   9952 -0.28650000  16.000000   ; qtot 1.037222
 9953         oh    366    ccc     O2   9953 -0.86012500  16.000000   ; qtot 0.177097
 9954         oh    366    ccc     O3   9954 -0.83772800  16.000000   ; qtot -0.660631
 9955         oh    366    ccc     O4   9955 -0.77449700  16.000000   ; qtot -1.435128
 9956         c3    366    ccc     C6   9956 0.37576500  12.010000   ; qtot -1.059363
 9957         ho    366    ccc     H6   9957 0.53656000   1.008000   ; qtot -0.522803
 9958         ho    366    ccc     H7   9958 0.49492100   1.008000   ; qtot -0.027882
 9959         ho    366    ccc     H8   9959 0.51297200   1.008000   ; qtot 0.485090
 9960         h1    366    ccc     H9   9960 0.05653400   1.008000   ; qtot 0.541624
 9961         h1    366    ccc    H10   9961 0.05653400   1.008000   ; qtot 0.598158
 9962         oh    366    ccc     O5   9962 -0.84113600  16.000000   ; qtot -0.242978
 9963         ho    366    ccc    H11   9963 0.51201600   1.008000   ; qtot 0.269038
 9964         os    366    ccc     O6   9964 -0.26013600  16.000000   ; qtot 0.008902
; residue  367 ccc rtp ccc q 0.0
 9965         c3    367    ccc     C1   9965 -0.33178800  12.010000   ; qtot -0.322886
 9966         c3    367    ccc     C2   9966 0.30606500  12.010000   ; qtot -0.016821
 9967         h1    367    ccc     H1   9967 0.11662300   1.008000   ; qtot 0.099802
 9968         h1    367    ccc     H2   9968 0.11526800   1.008000   ; qtot 0.215070
 9969         c3    367    ccc     C3   9969 0.15592700  12.010000   ; qtot 0.370997
 9970         c3    367    ccc     C4   9970 0.28383300  12.010000   ; qtot 0.654830
 9971         c3    367    ccc     C5   9971 0.32403300  12.010000   ; qtot 0.978863
 9972         h1    367    ccc     H3   9972 0.13386900   1.008000   ; qtot 1.112732
 9973         h1    367    ccc     H4   9973 0.10146700   1.008000   ; qtot 1.214199
 9974         h2    367    ccc     H5   9974 0.10960400   1.008000   ; qtot 1.323803
 9975         os    367    ccc     O1   9975 -0.28650000  16.000000   ; qtot 1.037303
 9976         oh    367    ccc     O2   9976 -0.86012500  16.000000   ; qtot 0.177178
 9977         oh    367    ccc     O3   9977 -0.83772800  16.000000   ; qtot -0.660550
 9978         oh    367    ccc     O4   9978 -0.77449700  16.000000   ; qtot -1.435047
 9979         c3    367    ccc     C6   9979 0.37576500  12.010000   ; qtot -1.059282
 9980         ho    367    ccc     H6   9980 0.53656000   1.008000   ; qtot -0.522722
 9981         ho    367    ccc     H7   9981 0.49492100   1.008000   ; qtot -0.027801
 9982         ho    367    ccc     H8   9982 0.51297200   1.008000   ; qtot 0.485171
 9983         h1    367    ccc     H9   9983 0.05653400   1.008000   ; qtot 0.541705
 9984         h1    367    ccc    H10   9984 0.05653400   1.008000   ; qtot 0.598239
 9985         oh    367    ccc     O5   9985 -0.84113600  16.000000   ; qtot -0.242897
 9986         ho    367    ccc    H11   9986 0.51201600   1.008000   ; qtot 0.269119
 9987         os    367    ccc     O6   9987 -0.26013600  16.000000   ; qtot 0.008983
; residue  368 ccc rtp ccc q 0.0
 9988         c3    368    ccc     C1   9988 -0.33178800  12.010000   ; qtot -0.322805
 9989         c3    368    ccc     C2   9989 0.30606500  12.010000   ; qtot -0.016740
 9990         h1    368    ccc     H1   9990 0.11662300   1.008000   ; qtot 0.099883
 9991         h1    368    ccc     H2   9991 0.11526800   1.008000   ; qtot 0.215151
 9992         c3    368    ccc     C3   9992 0.15592700  12.010000   ; qtot 0.371078
 9993         c3    368    ccc     C4   9993 0.28383300  12.010000   ; qtot 0.654911
 9994         c3    368    ccc     C5   9994 0.32403300  12.010000   ; qtot 0.978944
 9995         h1    368    ccc     H3   9995 0.13386900   1.008000   ; qtot 1.112813
 9996         h1    368    ccc     H4   9996 0.10146700   1.008000   ; qtot 1.214280
 9997         h2    368    ccc     H5   9997 0.10960400   1.008000   ; qtot 1.323884
 9998         os    368    ccc     O1   9998 -0.28650000  16.000000   ; qtot 1.037384
 9999         oh    368    ccc     O2   9999 -0.86012500  16.000000   ; qtot 0.177259
10000         oh    368    ccc     O3  10000 -0.83772800  16.000000   ; qtot -0.660469
10001         oh    368    ccc     O4  10001 -0.77449700  16.000000   ; qtot -1.434966
10002         c3    368    ccc     C6  10002 0.37576500  12.010000   ; qtot -1.059201
10003         ho    368    ccc     H6  10003 0.53656000   1.008000   ; qtot -0.522641
10004         ho    368    ccc     H7  10004 0.49492100   1.008000   ; qtot -0.027720
10005         ho    368    ccc     H8  10005 0.51297200   1.008000   ; qtot 0.485252
10006         h1    368    ccc     H9  10006 0.05653400   1.008000   ; qtot 0.541786
10007         h1    368    ccc    H10  10007 0.05653400   1.008000   ; qtot 0.598320
10008         oh    368    ccc     O5  10008 -0.84113600  16.000000   ; qtot -0.242816
10009         ho    368    ccc    H11  10009 0.51201600   1.008000   ; qtot 0.269200
10010         os    368    ccc     O6  10010 -0.26013600  16.000000   ; qtot 0.009064
; residue  369 ccc rtp ccc q 0.0
10011         c3    369    ccc     C1  10011 -0.33178800  12.010000   ; qtot -0.322724
10012         c3    369    ccc     C2  10012 0.30606500  12.010000   ; qtot -0.016659
10013         h1    369    ccc     H1  10013 0.11662300   1.008000   ; qtot 0.099964
10014         h1    369    ccc     H2  10014 0.11526800   1.008000   ; qtot 0.215232
10015         c3    369    ccc     C3  10015 0.15592700  12.010000   ; qtot 0.371159
10016         c3    369    ccc     C4  10016 0.28383300  12.010000   ; qtot 0.654992
10017         c3    369    ccc     C5  10017 0.32403300  12.010000   ; qtot 0.979025
10018         h1    369    ccc     H3  10018 0.13386900   1.008000   ; qtot 1.112894
10019         h1    369    ccc     H4  10019 0.10146700   1.008000   ; qtot 1.214361
10020         h2    369    ccc     H5  10020 0.10960400   1.008000   ; qtot 1.323965
10021         os    369    ccc     O1  10021 -0.28650000  16.000000   ; qtot 1.037465
10022         oh    369    ccc     O2  10022 -0.86012500  16.000000   ; qtot 0.177340
10023         oh    369    ccc     O3  10023 -0.83772800  16.000000   ; qtot -0.660388
10024         oh    369    ccc     O4  10024 -0.77449700  16.000000   ; qtot -1.434885
10025         c3    369    ccc     C6  10025 0.37576500  12.010000   ; qtot -1.059120
10026         ho    369    ccc     H6  10026 0.53656000   1.008000   ; qtot -0.522560
10027         ho    369    ccc     H7  10027 0.49492100   1.008000   ; qtot -0.027639
10028         ho    369    ccc     H8  10028 0.51297200   1.008000   ; qtot 0.485333
10029         h1    369    ccc     H9  10029 0.05653400   1.008000   ; qtot 0.541867
10030         h1    369    ccc    H10  10030 0.05653400   1.008000   ; qtot 0.598401
10031         oh    369    ccc     O5  10031 -0.84113600  16.000000   ; qtot -0.242735
10032         ho    369    ccc    H11  10032 0.51201600   1.008000   ; qtot 0.269281
10033         os    369    ccc     O6  10033 -0.26013600  16.000000   ; qtot 0.009145
; residue  370 ccc rtp ccc q 0.0
10034         c3    370    ccc     C1  10034 -0.33178800  12.010000   ; qtot -0.322643
10035         c3    370    ccc     C2  10035 0.30606500  12.010000   ; qtot -0.016578
10036         h1    370    ccc     H1  10036 0.11662300   1.008000   ; qtot 0.100045
10037         h1    370    ccc     H2  10037 0.11526800   1.008000   ; qtot 0.215313
10038         c3    370    ccc     C3  10038 0.15592700  12.010000   ; qtot 0.371240
10039         c3    370    ccc     C4  10039 0.28383300  12.010000   ; qtot 0.655073
10040         c3    370    ccc     C5  10040 0.32403300  12.010000   ; qtot 0.979106
10041         h1    370    ccc     H3  10041 0.13386900   1.008000   ; qtot 1.112975
10042         h1    370    ccc     H4  10042 0.10146700   1.008000   ; qtot 1.214442
10043         h2    370    ccc     H5  10043 0.10960400   1.008000   ; qtot 1.324046
10044         os    370    ccc     O1  10044 -0.28650000  16.000000   ; qtot 1.037546
10045         oh    370    ccc     O2  10045 -0.86012500  16.000000   ; qtot 0.177421
10046         oh    370    ccc     O3  10046 -0.83772800  16.000000   ; qtot -0.660307
10047         oh    370    ccc     O4  10047 -0.77449700  16.000000   ; qtot -1.434804
10048         c3    370    ccc     C6  10048 0.37576500  12.010000   ; qtot -1.059039
10049         ho    370    ccc     H6  10049 0.53656000   1.008000   ; qtot -0.522479
10050         ho    370    ccc     H7  10050 0.49492100   1.008000   ; qtot -0.027558
10051         ho    370    ccc     H8  10051 0.51297200   1.008000   ; qtot 0.485414
10052         h1    370    ccc     H9  10052 0.05653400   1.008000   ; qtot 0.541948
10053         h1    370    ccc    H10  10053 0.05653400   1.008000   ; qtot 0.598482
10054         oh    370    ccc     O5  10054 -0.84113600  16.000000   ; qtot -0.242654
10055         ho    370    ccc    H11  10055 0.51201600   1.008000   ; qtot 0.269362
10056         os    370    ccc     O6  10056 -0.26013600  16.000000   ; qtot 0.009226
; residue  371 ccc rtp ccc q 0.0
10057         c3    371    ccc     C1  10057 -0.33178800  12.010000   ; qtot -0.322562
10058         c3    371    ccc     C2  10058 0.30606500  12.010000   ; qtot -0.016497
10059         h1    371    ccc     H1  10059 0.11662300   1.008000   ; qtot 0.100126
10060         h1    371    ccc     H2  10060 0.11526800   1.008000   ; qtot 0.215394
10061         c3    371    ccc     C3  10061 0.15592700  12.010000   ; qtot 0.371321
10062         c3    371    ccc     C4  10062 0.28383300  12.010000   ; qtot 0.655154
10063         c3    371    ccc     C5  10063 0.32403300  12.010000   ; qtot 0.979187
10064         h1    371    ccc     H3  10064 0.13386900   1.008000   ; qtot 1.113056
10065         h1    371    ccc     H4  10065 0.10146700   1.008000   ; qtot 1.214523
10066         h2    371    ccc     H5  10066 0.10960400   1.008000   ; qtot 1.324127
10067         os    371    ccc     O1  10067 -0.28650000  16.000000   ; qtot 1.037627
10068         oh    371    ccc     O2  10068 -0.86012500  16.000000   ; qtot 0.177502
10069         oh    371    ccc     O3  10069 -0.83772800  16.000000   ; qtot -0.660226
10070         oh    371    ccc     O4  10070 -0.77449700  16.000000   ; qtot -1.434723
10071         c3    371    ccc     C6  10071 0.37576500  12.010000   ; qtot -1.058958
10072         ho    371    ccc     H6  10072 0.53656000   1.008000   ; qtot -0.522398
10073         ho    371    ccc     H7  10073 0.49492100   1.008000   ; qtot -0.027477
10074         ho    371    ccc     H8  10074 0.51297200   1.008000   ; qtot 0.485495
10075         h1    371    ccc     H9  10075 0.05653400   1.008000   ; qtot 0.542029
10076         h1    371    ccc    H10  10076 0.05653400   1.008000   ; qtot 0.598563
10077         oh    371    ccc     O5  10077 -0.84113600  16.000000   ; qtot -0.242573
10078         ho    371    ccc    H11  10078 0.51201600   1.008000   ; qtot 0.269443
10079         os    371    ccc     O6  10079 -0.26013600  16.000000   ; qtot 0.009307
; residue  372 ccc rtp ccc q 0.0
10080         c3    372    ccc     C1  10080 -0.33178800  12.010000   ; qtot -0.322481
10081         c3    372    ccc     C2  10081 0.30606500  12.010000   ; qtot -0.016416
10082         h1    372    ccc     H1  10082 0.11662300   1.008000   ; qtot 0.100207
10083         h1    372    ccc     H2  10083 0.11526800   1.008000   ; qtot 0.215475
10084         c3    372    ccc     C3  10084 0.15592700  12.010000   ; qtot 0.371402
10085         c3    372    ccc     C4  10085 0.28383300  12.010000   ; qtot 0.655235
10086         c3    372    ccc     C5  10086 0.32403300  12.010000   ; qtot 0.979268
10087         h1    372    ccc     H3  10087 0.13386900   1.008000   ; qtot 1.113137
10088         h1    372    ccc     H4  10088 0.10146700   1.008000   ; qtot 1.214604
10089         h2    372    ccc     H5  10089 0.10960400   1.008000   ; qtot 1.324208
10090         os    372    ccc     O1  10090 -0.28650000  16.000000   ; qtot 1.037708
10091         oh    372    ccc     O2  10091 -0.86012500  16.000000   ; qtot 0.177583
10092         oh    372    ccc     O3  10092 -0.83772800  16.000000   ; qtot -0.660145
10093         oh    372    ccc     O4  10093 -0.77449700  16.000000   ; qtot -1.434642
10094         c3    372    ccc     C6  10094 0.37576500  12.010000   ; qtot -1.058877
10095         ho    372    ccc     H6  10095 0.53656000   1.008000   ; qtot -0.522317
10096         ho    372    ccc     H7  10096 0.49492100   1.008000   ; qtot -0.027396
10097         ho    372    ccc     H8  10097 0.51297200   1.008000   ; qtot 0.485576
10098         h1    372    ccc     H9  10098 0.05653400   1.008000   ; qtot 0.542110
10099         h1    372    ccc    H10  10099 0.05653400   1.008000   ; qtot 0.598644
10100         oh    372    ccc     O5  10100 -0.84113600  16.000000   ; qtot -0.242492
10101         ho    372    ccc    H11  10101 0.51201600   1.008000   ; qtot 0.269524
10102         os    372    ccc     O6  10102 -0.26013600  16.000000   ; qtot 0.009388
; residue  373 ccc rtp ccc q 0.0
10103         c3    373    ccc     C1  10103 -0.33178800  12.010000   ; qtot -0.322400
10104         c3    373    ccc     C2  10104 0.30606500  12.010000   ; qtot -0.016335
10105         h1    373    ccc     H1  10105 0.11662300   1.008000   ; qtot 0.100288
10106         h1    373    ccc     H2  10106 0.11526800   1.008000   ; qtot 0.215556
10107         c3    373    ccc     C3  10107 0.15592700  12.010000   ; qtot 0.371483
10108         c3    373    ccc     C4  10108 0.28383300  12.010000   ; qtot 0.655316
10109         c3    373    ccc     C5  10109 0.32403300  12.010000   ; qtot 0.979349
10110         h1    373    ccc     H3  10110 0.13386900   1.008000   ; qtot 1.113218
10111         h1    373    ccc     H4  10111 0.10146700   1.008000   ; qtot 1.214685
10112         h2    373    ccc     H5  10112 0.10960400   1.008000   ; qtot 1.324289
10113         os    373    ccc     O1  10113 -0.28650000  16.000000   ; qtot 1.037789
10114         oh    373    ccc     O2  10114 -0.86012500  16.000000   ; qtot 0.177664
10115         oh    373    ccc     O3  10115 -0.83772800  16.000000   ; qtot -0.660064
10116         oh    373    ccc     O4  10116 -0.77449700  16.000000   ; qtot -1.434561
10117         c3    373    ccc     C6  10117 0.37576500  12.010000   ; qtot -1.058796
10118         ho    373    ccc     H6  10118 0.53656000   1.008000   ; qtot -0.522236
10119         ho    373    ccc     H7  10119 0.49492100   1.008000   ; qtot -0.027315
10120         ho    373    ccc     H8  10120 0.51297200   1.008000   ; qtot 0.485657
10121         h1    373    ccc     H9  10121 0.05653400   1.008000   ; qtot 0.542191
10122         h1    373    ccc    H10  10122 0.05653400   1.008000   ; qtot 0.598725
10123         oh    373    ccc     O5  10123 -0.84113600  16.000000   ; qtot -0.242411
10124         ho    373    ccc    H11  10124 0.51201600   1.008000   ; qtot 0.269605
10125         os    373    ccc     O6  10125 -0.26013600  16.000000   ; qtot 0.009469
; residue  374 ccc rtp ccc q 0.0
10126         c3    374    ccc     C1  10126 -0.33178800  12.010000   ; qtot -0.322319
10127         c3    374    ccc     C2  10127 0.30606500  12.010000   ; qtot -0.016254
10128         h1    374    ccc     H1  10128 0.11662300   1.008000   ; qtot 0.100369
10129         h1    374    ccc     H2  10129 0.11526800   1.008000   ; qtot 0.215637
10130         c3    374    ccc     C3  10130 0.15592700  12.010000   ; qtot 0.371564
10131         c3    374    ccc     C4  10131 0.28383300  12.010000   ; qtot 0.655397
10132         c3    374    ccc     C5  10132 0.32403300  12.010000   ; qtot 0.979430
10133         h1    374    ccc     H3  10133 0.13386900   1.008000   ; qtot 1.113299
10134         h1    374    ccc     H4  10134 0.10146700   1.008000   ; qtot 1.214766
10135         h2    374    ccc     H5  10135 0.10960400   1.008000   ; qtot 1.324370
10136         os    374    ccc     O1  10136 -0.28650000  16.000000   ; qtot 1.037870
10137         oh    374    ccc     O2  10137 -0.86012500  16.000000   ; qtot 0.177745
10138         oh    374    ccc     O3  10138 -0.83772800  16.000000   ; qtot -0.659983
10139         oh    374    ccc     O4  10139 -0.77449700  16.000000   ; qtot -1.434480
10140         c3    374    ccc     C6  10140 0.37576500  12.010000   ; qtot -1.058715
10141         ho    374    ccc     H6  10141 0.53656000   1.008000   ; qtot -0.522155
10142         ho    374    ccc     H7  10142 0.49492100   1.008000   ; qtot -0.027234
10143         ho    374    ccc     H8  10143 0.51297200   1.008000   ; qtot 0.485738
10144         h1    374    ccc     H9  10144 0.05653400   1.008000   ; qtot 0.542272
10145         h1    374    ccc    H10  10145 0.05653400   1.008000   ; qtot 0.598806
10146         oh    374    ccc     O5  10146 -0.84113600  16.000000   ; qtot -0.242330
10147         ho    374    ccc    H11  10147 0.51201600   1.008000   ; qtot 0.269686
10148         os    374    ccc     O6  10148 -0.26013600  16.000000   ; qtot 0.009550
; residue  375 ccc rtp ccc q 0.0
10149         c3    375    ccc     C1  10149 -0.33178800  12.010000   ; qtot -0.322238
10150         c3    375    ccc     C2  10150 0.30606500  12.010000   ; qtot -0.016173
10151         h1    375    ccc     H1  10151 0.11662300   1.008000   ; qtot 0.100450
10152         h1    375    ccc     H2  10152 0.11526800   1.008000   ; qtot 0.215718
10153         c3    375    ccc     C3  10153 0.15592700  12.010000   ; qtot 0.371645
10154         c3    375    ccc     C4  10154 0.28383300  12.010000   ; qtot 0.655478
10155         c3    375    ccc     C5  10155 0.32403300  12.010000   ; qtot 0.979511
10156         h1    375    ccc     H3  10156 0.13386900   1.008000   ; qtot 1.113380
10157         h1    375    ccc     H4  10157 0.10146700   1.008000   ; qtot 1.214847
10158         h2    375    ccc     H5  10158 0.10960400   1.008000   ; qtot 1.324451
10159         os    375    ccc     O1  10159 -0.28650000  16.000000   ; qtot 1.037951
10160         oh    375    ccc     O2  10160 -0.86012500  16.000000   ; qtot 0.177826
10161         oh    375    ccc     O3  10161 -0.83772800  16.000000   ; qtot -0.659902
10162         oh    375    ccc     O4  10162 -0.77449700  16.000000   ; qtot -1.434399
10163         c3    375    ccc     C6  10163 0.37576500  12.010000   ; qtot -1.058634
10164         ho    375    ccc     H6  10164 0.53656000   1.008000   ; qtot -0.522074
10165         ho    375    ccc     H7  10165 0.49492100   1.008000   ; qtot -0.027153
10166         ho    375    ccc     H8  10166 0.51297200   1.008000   ; qtot 0.485819
10167         h1    375    ccc     H9  10167 0.05653400   1.008000   ; qtot 0.542353
10168         h1    375    ccc    H10  10168 0.05653400   1.008000   ; qtot 0.598887
10169         oh    375    ccc     O5  10169 -0.84113600  16.000000   ; qtot -0.242249
10170         ho    375    ccc    H11  10170 0.51201600   1.008000   ; qtot 0.269767
10171         os    375    ccc     O6  10171 -0.26013600  16.000000   ; qtot 0.009631
; residue  376 ccc rtp ccc q 0.0
10172         c3    376    ccc     C1  10172 -0.33178800  12.010000   ; qtot -0.322157
10173         c3    376    ccc     C2  10173 0.30606500  12.010000   ; qtot -0.016092
10174         h1    376    ccc     H1  10174 0.11662300   1.008000   ; qtot 0.100531
10175         h1    376    ccc     H2  10175 0.11526800   1.008000   ; qtot 0.215799
10176         c3    376    ccc     C3  10176 0.15592700  12.010000   ; qtot 0.371726
10177         c3    376    ccc     C4  10177 0.28383300  12.010000   ; qtot 0.655559
10178         c3    376    ccc     C5  10178 0.32403300  12.010000   ; qtot 0.979592
10179         h1    376    ccc     H3  10179 0.13386900   1.008000   ; qtot 1.113461
10180         h1    376    ccc     H4  10180 0.10146700   1.008000   ; qtot 1.214928
10181         h2    376    ccc     H5  10181 0.10960400   1.008000   ; qtot 1.324532
10182         os    376    ccc     O1  10182 -0.28650000  16.000000   ; qtot 1.038032
10183         oh    376    ccc     O2  10183 -0.86012500  16.000000   ; qtot 0.177907
10184         oh    376    ccc     O3  10184 -0.83772800  16.000000   ; qtot -0.659821
10185         oh    376    ccc     O4  10185 -0.77449700  16.000000   ; qtot -1.434318
10186         c3    376    ccc     C6  10186 0.37576500  12.010000   ; qtot -1.058553
10187         ho    376    ccc     H6  10187 0.53656000   1.008000   ; qtot -0.521993
10188         ho    376    ccc     H7  10188 0.49492100   1.008000   ; qtot -0.027072
10189         ho    376    ccc     H8  10189 0.51297200   1.008000   ; qtot 0.485900
10190         h1    376    ccc     H9  10190 0.05653400   1.008000   ; qtot 0.542434
10191         h1    376    ccc    H10  10191 0.05653400   1.008000   ; qtot 0.598968
10192         oh    376    ccc     O5  10192 -0.84113600  16.000000   ; qtot -0.242168
10193         ho    376    ccc    H11  10193 0.51201600   1.008000   ; qtot 0.269848
10194         os    376    ccc     O6  10194 -0.26013600  16.000000   ; qtot 0.009712
; residue  377 ccc rtp ccc q 0.0
10195         c3    377    ccc     C1  10195 -0.33178800  12.010000   ; qtot -0.322076
10196         c3    377    ccc     C2  10196 0.30606500  12.010000   ; qtot -0.016011
10197         h1    377    ccc     H1  10197 0.11662300   1.008000   ; qtot 0.100612
10198         h1    377    ccc     H2  10198 0.11526800   1.008000   ; qtot 0.215880
10199         c3    377    ccc     C3  10199 0.15592700  12.010000   ; qtot 0.371807
10200         c3    377    ccc     C4  10200 0.28383300  12.010000   ; qtot 0.655640
10201         c3    377    ccc     C5  10201 0.32403300  12.010000   ; qtot 0.979673
10202         h1    377    ccc     H3  10202 0.13386900   1.008000   ; qtot 1.113542
10203         h1    377    ccc     H4  10203 0.10146700   1.008000   ; qtot 1.215009
10204         h2    377    ccc     H5  10204 0.10960400   1.008000   ; qtot 1.324613
10205         os    377    ccc     O1  10205 -0.28650000  16.000000   ; qtot 1.038113
10206         oh    377    ccc     O2  10206 -0.86012500  16.000000   ; qtot 0.177988
10207         oh    377    ccc     O3  10207 -0.83772800  16.000000   ; qtot -0.659740
10208         oh    377    ccc     O4  10208 -0.77449700  16.000000   ; qtot -1.434237
10209         c3    377    ccc     C6  10209 0.37576500  12.010000   ; qtot -1.058472
10210         ho    377    ccc     H6  10210 0.53656000   1.008000   ; qtot -0.521912
10211         ho    377    ccc     H7  10211 0.49492100   1.008000   ; qtot -0.026991
10212         ho    377    ccc     H8  10212 0.51297200   1.008000   ; qtot 0.485981
10213         h1    377    ccc     H9  10213 0.05653400   1.008000   ; qtot 0.542515
10214         h1    377    ccc    H10  10214 0.05653400   1.008000   ; qtot 0.599049
10215         oh    377    ccc     O5  10215 -0.84113600  16.000000   ; qtot -0.242087
10216         ho    377    ccc    H11  10216 0.51201600   1.008000   ; qtot 0.269929
10217         os    377    ccc     O6  10217 -0.26013600  16.000000   ; qtot 0.009793
; residue  378 ccc rtp ccc q 0.0
10218         c3    378    ccc     C1  10218 -0.33178800  12.010000   ; qtot -0.321995
10219         c3    378    ccc     C2  10219 0.30606500  12.010000   ; qtot -0.015930
10220         h1    378    ccc     H1  10220 0.11662300   1.008000   ; qtot 0.100693
10221         h1    378    ccc     H2  10221 0.11526800   1.008000   ; qtot 0.215961
10222         c3    378    ccc     C3  10222 0.15592700  12.010000   ; qtot 0.371888
10223         c3    378    ccc     C4  10223 0.28383300  12.010000   ; qtot 0.655721
10224         c3    378    ccc     C5  10224 0.32403300  12.010000   ; qtot 0.979754
10225         h1    378    ccc     H3  10225 0.13386900   1.008000   ; qtot 1.113623
10226         h1    378    ccc     H4  10226 0.10146700   1.008000   ; qtot 1.215090
10227         h2    378    ccc     H5  10227 0.10960400   1.008000   ; qtot 1.324694
10228         os    378    ccc     O1  10228 -0.28650000  16.000000   ; qtot 1.038194
10229         oh    378    ccc     O2  10229 -0.86012500  16.000000   ; qtot 0.178069
10230         oh    378    ccc     O3  10230 -0.83772800  16.000000   ; qtot -0.659659
10231         oh    378    ccc     O4  10231 -0.77449700  16.000000   ; qtot -1.434156
10232         c3    378    ccc     C6  10232 0.37576500  12.010000   ; qtot -1.058391
10233         ho    378    ccc     H6  10233 0.53656000   1.008000   ; qtot -0.521831
10234         ho    378    ccc     H7  10234 0.49492100   1.008000   ; qtot -0.026910
10235         ho    378    ccc     H8  10235 0.51297200   1.008000   ; qtot 0.486062
10236         h1    378    ccc     H9  10236 0.05653400   1.008000   ; qtot 0.542596
10237         h1    378    ccc    H10  10237 0.05653400   1.008000   ; qtot 0.599130
10238         oh    378    ccc     O5  10238 -0.84113600  16.000000   ; qtot -0.242006
10239         ho    378    ccc    H11  10239 0.51201600   1.008000   ; qtot 0.270010
10240         os    378    ccc     O6  10240 -0.26013600  16.000000   ; qtot 0.009874
; residue  379 ccc rtp ccc q 0.0
10241         c3    379    ccc     C1  10241 -0.33178800  12.010000   ; qtot -0.321914
10242         c3    379    ccc     C2  10242 0.30606500  12.010000   ; qtot -0.015849
10243         h1    379    ccc     H1  10243 0.11662300   1.008000   ; qtot 0.100774
10244         h1    379    ccc     H2  10244 0.11526800   1.008000   ; qtot 0.216042
10245         c3    379    ccc     C3  10245 0.15592700  12.010000   ; qtot 0.371969
10246         c3    379    ccc     C4  10246 0.28383300  12.010000   ; qtot 0.655802
10247         c3    379    ccc     C5  10247 0.32403300  12.010000   ; qtot 0.979835
10248         h1    379    ccc     H3  10248 0.13386900   1.008000   ; qtot 1.113704
10249         h1    379    ccc     H4  10249 0.10146700   1.008000   ; qtot 1.215171
10250         h2    379    ccc     H5  10250 0.10960400   1.008000   ; qtot 1.324775
10251         os    379    ccc     O1  10251 -0.28650000  16.000000   ; qtot 1.038275
10252         oh    379    ccc     O2  10252 -0.86012500  16.000000   ; qtot 0.178150
10253         oh    379    ccc     O3  10253 -0.83772800  16.000000   ; qtot -0.659578
10254         oh    379    ccc     O4  10254 -0.77449700  16.000000   ; qtot -1.434075
10255         c3    379    ccc     C6  10255 0.37576500  12.010000   ; qtot -1.058310
10256         ho    379    ccc     H6  10256 0.53656000   1.008000   ; qtot -0.521750
10257         ho    379    ccc     H7  10257 0.49492100   1.008000   ; qtot -0.026829
10258         ho    379    ccc     H8  10258 0.51297200   1.008000   ; qtot 0.486143
10259         h1    379    ccc     H9  10259 0.05653400   1.008000   ; qtot 0.542677
10260         h1    379    ccc    H10  10260 0.05653400   1.008000   ; qtot 0.599211
10261         oh    379    ccc     O5  10261 -0.84113600  16.000000   ; qtot -0.241925
10262         ho    379    ccc    H11  10262 0.51201600   1.008000   ; qtot 0.270091
10263         os    379    ccc     O6  10263 -0.26013600  16.000000   ; qtot 0.009955
; residue  380 ccc rtp ccc q 0.0
10264         c3    380    ccc     C1  10264 -0.33178800  12.010000   ; qtot -0.321833
10265         c3    380    ccc     C2  10265 0.30606500  12.010000   ; qtot -0.015768
10266         h1    380    ccc     H1  10266 0.11662300   1.008000   ; qtot 0.100855
10267         h1    380    ccc     H2  10267 0.11526800   1.008000   ; qtot 0.216123
10268         c3    380    ccc     C3  10268 0.15592700  12.010000   ; qtot 0.372050
10269         c3    380    ccc     C4  10269 0.28383300  12.010000   ; qtot 0.655883
10270         c3    380    ccc     C5  10270 0.32403300  12.010000   ; qtot 0.979916
10271         h1    380    ccc     H3  10271 0.13386900   1.008000   ; qtot 1.113785
10272         h1    380    ccc     H4  10272 0.10146700   1.008000   ; qtot 1.215252
10273         h2    380    ccc     H5  10273 0.10960400   1.008000   ; qtot 1.324856
10274         os    380    ccc     O1  10274 -0.28650000  16.000000   ; qtot 1.038356
10275         oh    380    ccc     O2  10275 -0.86012500  16.000000   ; qtot 0.178231
10276         oh    380    ccc     O3  10276 -0.83772800  16.000000   ; qtot -0.659497
10277         oh    380    ccc     O4  10277 -0.77449700  16.000000   ; qtot -1.433994
10278         c3    380    ccc     C6  10278 0.37576500  12.010000   ; qtot -1.058229
10279         ho    380    ccc     H6  10279 0.53656000   1.008000   ; qtot -0.521669
10280         ho    380    ccc     H7  10280 0.49492100   1.008000   ; qtot -0.026748
10281         ho    380    ccc     H8  10281 0.51297200   1.008000   ; qtot 0.486224
10282         h1    380    ccc     H9  10282 0.05653400   1.008000   ; qtot 0.542758
10283         h1    380    ccc    H10  10283 0.05653400   1.008000   ; qtot 0.599292
10284         oh    380    ccc     O5  10284 -0.84113600  16.000000   ; qtot -0.241844
10285         ho    380    ccc    H11  10285 0.51201600   1.008000   ; qtot 0.270172
10286         os    380    ccc     O6  10286 -0.26013600  16.000000   ; qtot 0.010036
; residue  381 ccc rtp ccc q 0.0
10287         c3    381    ccc     C1  10287 -0.33178800  12.010000   ; qtot -0.321752
10288         c3    381    ccc     C2  10288 0.30606500  12.010000   ; qtot -0.015687
10289         h1    381    ccc     H1  10289 0.11662300   1.008000   ; qtot 0.100936
10290         h1    381    ccc     H2  10290 0.11526800   1.008000   ; qtot 0.216204
10291         c3    381    ccc     C3  10291 0.15592700  12.010000   ; qtot 0.372131
10292         c3    381    ccc     C4  10292 0.28383300  12.010000   ; qtot 0.655964
10293         c3    381    ccc     C5  10293 0.32403300  12.010000   ; qtot 0.979997
10294         h1    381    ccc     H3  10294 0.13386900   1.008000   ; qtot 1.113866
10295         h1    381    ccc     H4  10295 0.10146700   1.008000   ; qtot 1.215333
10296         h2    381    ccc     H5  10296 0.10960400   1.008000   ; qtot 1.324937
10297         os    381    ccc     O1  10297 -0.28650000  16.000000   ; qtot 1.038437
10298         oh    381    ccc     O2  10298 -0.86012500  16.000000   ; qtot 0.178312
10299         oh    381    ccc     O3  10299 -0.83772800  16.000000   ; qtot -0.659416
10300         oh    381    ccc     O4  10300 -0.77449700  16.000000   ; qtot -1.433913
10301         c3    381    ccc     C6  10301 0.37576500  12.010000   ; qtot -1.058148
10302         ho    381    ccc     H6  10302 0.53656000   1.008000   ; qtot -0.521588
10303         ho    381    ccc     H7  10303 0.49492100   1.008000   ; qtot -0.026667
10304         ho    381    ccc     H8  10304 0.51297200   1.008000   ; qtot 0.486305
10305         h1    381    ccc     H9  10305 0.05653400   1.008000   ; qtot 0.542839
10306         h1    381    ccc    H10  10306 0.05653400   1.008000   ; qtot 0.599373
10307         oh    381    ccc     O5  10307 -0.84113600  16.000000   ; qtot -0.241763
10308         ho    381    ccc    H11  10308 0.51201600   1.008000   ; qtot 0.270253
10309         os    381    ccc     O6  10309 -0.26013600  16.000000   ; qtot 0.010117
; residue  382 ccc rtp ccc q 0.0
10310         c3    382    ccc     C1  10310 -0.33178800  12.010000   ; qtot -0.321671
10311         c3    382    ccc     C2  10311 0.30606500  12.010000   ; qtot -0.015606
10312         h1    382    ccc     H1  10312 0.11662300   1.008000   ; qtot 0.101017
10313         h1    382    ccc     H2  10313 0.11526800   1.008000   ; qtot 0.216285
10314         c3    382    ccc     C3  10314 0.15592700  12.010000   ; qtot 0.372212
10315         c3    382    ccc     C4  10315 0.28383300  12.010000   ; qtot 0.656045
10316         c3    382    ccc     C5  10316 0.32403300  12.010000   ; qtot 0.980078
10317         h1    382    ccc     H3  10317 0.13386900   1.008000   ; qtot 1.113947
10318         h1    382    ccc     H4  10318 0.10146700   1.008000   ; qtot 1.215414
10319         h2    382    ccc     H5  10319 0.10960400   1.008000   ; qtot 1.325018
10320         os    382    ccc     O1  10320 -0.28650000  16.000000   ; qtot 1.038518
10321         oh    382    ccc     O2  10321 -0.86012500  16.000000   ; qtot 0.178393
10322         oh    382    ccc     O3  10322 -0.83772800  16.000000   ; qtot -0.659335
10323         oh    382    ccc     O4  10323 -0.77449700  16.000000   ; qtot -1.433832
10324         c3    382    ccc     C6  10324 0.37576500  12.010000   ; qtot -1.058067
10325         ho    382    ccc     H6  10325 0.53656000   1.008000   ; qtot -0.521507
10326         ho    382    ccc     H7  10326 0.49492100   1.008000   ; qtot -0.026586
10327         ho    382    ccc     H8  10327 0.51297200   1.008000   ; qtot 0.486386
10328         h1    382    ccc     H9  10328 0.05653400   1.008000   ; qtot 0.542920
10329         h1    382    ccc    H10  10329 0.05653400   1.008000   ; qtot 0.599454
10330         oh    382    ccc     O5  10330 -0.84113600  16.000000   ; qtot -0.241682
10331         ho    382    ccc    H11  10331 0.51201600   1.008000   ; qtot 0.270334
10332         os    382    ccc     O6  10332 -0.26013600  16.000000   ; qtot 0.010198
; residue  383 ccc rtp ccc q 0.0
10333         c3    383    ccc     C1  10333 -0.33178800  12.010000   ; qtot -0.321590
10334         c3    383    ccc     C2  10334 0.30606500  12.010000   ; qtot -0.015525
10335         h1    383    ccc     H1  10335 0.11662300   1.008000   ; qtot 0.101098
10336         h1    383    ccc     H2  10336 0.11526800   1.008000   ; qtot 0.216366
10337         c3    383    ccc     C3  10337 0.15592700  12.010000   ; qtot 0.372293
10338         c3    383    ccc     C4  10338 0.28383300  12.010000   ; qtot 0.656126
10339         c3    383    ccc     C5  10339 0.32403300  12.010000   ; qtot 0.980159
10340         h1    383    ccc     H3  10340 0.13386900   1.008000   ; qtot 1.114028
10341         h1    383    ccc     H4  10341 0.10146700   1.008000   ; qtot 1.215495
10342         h2    383    ccc     H5  10342 0.10960400   1.008000   ; qtot 1.325099
10343         os    383    ccc     O1  10343 -0.28650000  16.000000   ; qtot 1.038599
10344         oh    383    ccc     O2  10344 -0.86012500  16.000000   ; qtot 0.178474
10345         oh    383    ccc     O3  10345 -0.83772800  16.000000   ; qtot -0.659254
10346         oh    383    ccc     O4  10346 -0.77449700  16.000000   ; qtot -1.433751
10347         c3    383    ccc     C6  10347 0.37576500  12.010000   ; qtot -1.057986
10348         ho    383    ccc     H6  10348 0.53656000   1.008000   ; qtot -0.521426
10349         ho    383    ccc     H7  10349 0.49492100   1.008000   ; qtot -0.026505
10350         ho    383    ccc     H8  10350 0.51297200   1.008000   ; qtot 0.486467
10351         h1    383    ccc     H9  10351 0.05653400   1.008000   ; qtot 0.543001
10352         h1    383    ccc    H10  10352 0.05653400   1.008000   ; qtot 0.599535
10353         oh    383    ccc     O5  10353 -0.84113600  16.000000   ; qtot -0.241601
10354         ho    383    ccc    H11  10354 0.51201600   1.008000   ; qtot 0.270415
10355         os    383    ccc     O6  10355 -0.26013600  16.000000   ; qtot 0.010279
; residue  384 ccc rtp ccc q 0.0
10356         c3    384    ccc     C1  10356 -0.33178800  12.010000   ; qtot -0.321509
10357         c3    384    ccc     C2  10357 0.30606500  12.010000   ; qtot -0.015444
10358         h1    384    ccc     H1  10358 0.11662300   1.008000   ; qtot 0.101179
10359         h1    384    ccc     H2  10359 0.11526800   1.008000   ; qtot 0.216447
10360         c3    384    ccc     C3  10360 0.15592700  12.010000   ; qtot 0.372374
10361         c3    384    ccc     C4  10361 0.28383300  12.010000   ; qtot 0.656207
10362         c3    384    ccc     C5  10362 0.32403300  12.010000   ; qtot 0.980240
10363         h1    384    ccc     H3  10363 0.13386900   1.008000   ; qtot 1.114109
10364         h1    384    ccc     H4  10364 0.10146700   1.008000   ; qtot 1.215576
10365         h2    384    ccc     H5  10365 0.10960400   1.008000   ; qtot 1.325180
10366         os    384    ccc     O1  10366 -0.28650000  16.000000   ; qtot 1.038680
10367         oh    384    ccc     O2  10367 -0.86012500  16.000000   ; qtot 0.178555
10368         oh    384    ccc     O3  10368 -0.83772800  16.000000   ; qtot -0.659173
10369         oh    384    ccc     O4  10369 -0.77449700  16.000000   ; qtot -1.433670
10370         c3    384    ccc     C6  10370 0.37576500  12.010000   ; qtot -1.057905
10371         ho    384    ccc     H6  10371 0.53656000   1.008000   ; qtot -0.521345
10372         ho    384    ccc     H7  10372 0.49492100   1.008000   ; qtot -0.026424
10373         ho    384    ccc     H8  10373 0.51297200   1.008000   ; qtot 0.486548
10374         h1    384    ccc     H9  10374 0.05653400   1.008000   ; qtot 0.543082
10375         h1    384    ccc    H10  10375 0.05653400   1.008000   ; qtot 0.599616
10376         oh    384    ccc     O5  10376 -0.84113600  16.000000   ; qtot -0.241520
10377         ho    384    ccc    H11  10377 0.51201600   1.008000   ; qtot 0.270496
10378         os    384    ccc     O6  10378 -0.26013600  16.000000   ; qtot 0.010360
; residue  385 ccc rtp ccc q 0.0
10379         c3    385    ccc     C1  10379 -0.33178800  12.010000   ; qtot -0.321428
10380         c3    385    ccc     C2  10380 0.30606500  12.010000   ; qtot -0.015363
10381         h1    385    ccc     H1  10381 0.11662300   1.008000   ; qtot 0.101260
10382         h1    385    ccc     H2  10382 0.11526800   1.008000   ; qtot 0.216528
10383         c3    385    ccc     C3  10383 0.15592700  12.010000   ; qtot 0.372455
10384         c3    385    ccc     C4  10384 0.28383300  12.010000   ; qtot 0.656288
10385         c3    385    ccc     C5  10385 0.32403300  12.010000   ; qtot 0.980321
10386         h1    385    ccc     H3  10386 0.13386900   1.008000   ; qtot 1.114190
10387         h1    385    ccc     H4  10387 0.10146700   1.008000   ; qtot 1.215657
10388         h2    385    ccc     H5  10388 0.10960400   1.008000   ; qtot 1.325261
10389         os    385    ccc     O1  10389 -0.28650000  16.000000   ; qtot 1.038761
10390         oh    385    ccc     O2  10390 -0.86012500  16.000000   ; qtot 0.178636
10391         oh    385    ccc     O3  10391 -0.83772800  16.000000   ; qtot -0.659092
10392         oh    385    ccc     O4  10392 -0.77449700  16.000000   ; qtot -1.433589
10393         c3    385    ccc     C6  10393 0.37576500  12.010000   ; qtot -1.057824
10394         ho    385    ccc     H6  10394 0.53656000   1.008000   ; qtot -0.521264
10395         ho    385    ccc     H7  10395 0.49492100   1.008000   ; qtot -0.026343
10396         ho    385    ccc     H8  10396 0.51297200   1.008000   ; qtot 0.486629
10397         h1    385    ccc     H9  10397 0.05653400   1.008000   ; qtot 0.543163
10398         h1    385    ccc    H10  10398 0.05653400   1.008000   ; qtot 0.599697
10399         oh    385    ccc     O5  10399 -0.84113600  16.000000   ; qtot -0.241439
10400         ho    385    ccc    H11  10400 0.51201600   1.008000   ; qtot 0.270577
10401         os    385    ccc     O6  10401 -0.26013600  16.000000   ; qtot 0.010441
; residue  386 ccc rtp ccc q 0.0
10402         c3    386    ccc     C1  10402 -0.33178800  12.010000   ; qtot -0.321347
10403         c3    386    ccc     C2  10403 0.30606500  12.010000   ; qtot -0.015282
10404         h1    386    ccc     H1  10404 0.11662300   1.008000   ; qtot 0.101341
10405         h1    386    ccc     H2  10405 0.11526800   1.008000   ; qtot 0.216609
10406         c3    386    ccc     C3  10406 0.15592700  12.010000   ; qtot 0.372536
10407         c3    386    ccc     C4  10407 0.28383300  12.010000   ; qtot 0.656369
10408         c3    386    ccc     C5  10408 0.32403300  12.010000   ; qtot 0.980402
10409         h1    386    ccc     H3  10409 0.13386900   1.008000   ; qtot 1.114271
10410         h1    386    ccc     H4  10410 0.10146700   1.008000   ; qtot 1.215738
10411         h2    386    ccc     H5  10411 0.10960400   1.008000   ; qtot 1.325342
10412         os    386    ccc     O1  10412 -0.28650000  16.000000   ; qtot 1.038842
10413         oh    386    ccc     O2  10413 -0.86012500  16.000000   ; qtot 0.178717
10414         oh    386    ccc     O3  10414 -0.83772800  16.000000   ; qtot -0.659011
10415         oh    386    ccc     O4  10415 -0.77449700  16.000000   ; qtot -1.433508
10416         c3    386    ccc     C6  10416 0.37576500  12.010000   ; qtot -1.057743
10417         ho    386    ccc     H6  10417 0.53656000   1.008000   ; qtot -0.521183
10418         ho    386    ccc     H7  10418 0.49492100   1.008000   ; qtot -0.026262
10419         ho    386    ccc     H8  10419 0.51297200   1.008000   ; qtot 0.486710
10420         h1    386    ccc     H9  10420 0.05653400   1.008000   ; qtot 0.543244
10421         h1    386    ccc    H10  10421 0.05653400   1.008000   ; qtot 0.599778
10422         oh    386    ccc     O5  10422 -0.84113600  16.000000   ; qtot -0.241358
10423         ho    386    ccc    H11  10423 0.51201600   1.008000   ; qtot 0.270658
10424         os    386    ccc     O6  10424 -0.26013600  16.000000   ; qtot 0.010522
; residue  387 ccc rtp ccc q 0.0
10425         c3    387    ccc     C1  10425 -0.33178800  12.010000   ; qtot -0.321266
10426         c3    387    ccc     C2  10426 0.30606500  12.010000   ; qtot -0.015201
10427         h1    387    ccc     H1  10427 0.11662300   1.008000   ; qtot 0.101422
10428         h1    387    ccc     H2  10428 0.11526800   1.008000   ; qtot 0.216690
10429         c3    387    ccc     C3  10429 0.15592700  12.010000   ; qtot 0.372617
10430         c3    387    ccc     C4  10430 0.28383300  12.010000   ; qtot 0.656450
10431         c3    387    ccc     C5  10431 0.32403300  12.010000   ; qtot 0.980483
10432         h1    387    ccc     H3  10432 0.13386900   1.008000   ; qtot 1.114352
10433         h1    387    ccc     H4  10433 0.10146700   1.008000   ; qtot 1.215819
10434         h2    387    ccc     H5  10434 0.10960400   1.008000   ; qtot 1.325423
10435         os    387    ccc     O1  10435 -0.28650000  16.000000   ; qtot 1.038923
10436         oh    387    ccc     O2  10436 -0.86012500  16.000000   ; qtot 0.178798
10437         oh    387    ccc     O3  10437 -0.83772800  16.000000   ; qtot -0.658930
10438         oh    387    ccc     O4  10438 -0.77449700  16.000000   ; qtot -1.433427
10439         c3    387    ccc     C6  10439 0.37576500  12.010000   ; qtot -1.057662
10440         ho    387    ccc     H6  10440 0.53656000   1.008000   ; qtot -0.521102
10441         ho    387    ccc     H7  10441 0.49492100   1.008000   ; qtot -0.026181
10442         ho    387    ccc     H8  10442 0.51297200   1.008000   ; qtot 0.486791
10443         h1    387    ccc     H9  10443 0.05653400   1.008000   ; qtot 0.543325
10444         h1    387    ccc    H10  10444 0.05653400   1.008000   ; qtot 0.599859
10445         oh    387    ccc     O5  10445 -0.84113600  16.000000   ; qtot -0.241277
10446         ho    387    ccc    H11  10446 0.51201600   1.008000   ; qtot 0.270739
10447         os    387    ccc     O6  10447 -0.26013600  16.000000   ; qtot 0.010603
; residue  388 ccc rtp ccc q 0.0
10448         c3    388    ccc     C1  10448 -0.33178800  12.010000   ; qtot -0.321185
10449         c3    388    ccc     C2  10449 0.30606500  12.010000   ; qtot -0.015120
10450         h1    388    ccc     H1  10450 0.11662300   1.008000   ; qtot 0.101503
10451         h1    388    ccc     H2  10451 0.11526800   1.008000   ; qtot 0.216771
10452         c3    388    ccc     C3  10452 0.15592700  12.010000   ; qtot 0.372698
10453         c3    388    ccc     C4  10453 0.28383300  12.010000   ; qtot 0.656531
10454         c3    388    ccc     C5  10454 0.32403300  12.010000   ; qtot 0.980564
10455         h1    388    ccc     H3  10455 0.13386900   1.008000   ; qtot 1.114433
10456         h1    388    ccc     H4  10456 0.10146700   1.008000   ; qtot 1.215900
10457         h2    388    ccc     H5  10457 0.10960400   1.008000   ; qtot 1.325504
10458         os    388    ccc     O1  10458 -0.28650000  16.000000   ; qtot 1.039004
10459         oh    388    ccc     O2  10459 -0.86012500  16.000000   ; qtot 0.178879
10460         oh    388    ccc     O3  10460 -0.83772800  16.000000   ; qtot -0.658849
10461         oh    388    ccc     O4  10461 -0.77449700  16.000000   ; qtot -1.433346
10462         c3    388    ccc     C6  10462 0.37576500  12.010000   ; qtot -1.057581
10463         ho    388    ccc     H6  10463 0.53656000   1.008000   ; qtot -0.521021
10464         ho    388    ccc     H7  10464 0.49492100   1.008000   ; qtot -0.026100
10465         ho    388    ccc     H8  10465 0.51297200   1.008000   ; qtot 0.486872
10466         h1    388    ccc     H9  10466 0.05653400   1.008000   ; qtot 0.543406
10467         h1    388    ccc    H10  10467 0.05653400   1.008000   ; qtot 0.599940
10468         oh    388    ccc     O5  10468 -0.84113600  16.000000   ; qtot -0.241196
10469         ho    388    ccc    H11  10469 0.51201600   1.008000   ; qtot 0.270820
10470         os    388    ccc     O6  10470 -0.26013600  16.000000   ; qtot 0.010684
; residue  389 ccc rtp ccc q 0.0
10471         c3    389    ccc     C1  10471 -0.33178800  12.010000   ; qtot -0.321104
10472         c3    389    ccc     C2  10472 0.30606500  12.010000   ; qtot -0.015039
10473         h1    389    ccc     H1  10473 0.11662300   1.008000   ; qtot 0.101584
10474         h1    389    ccc     H2  10474 0.11526800   1.008000   ; qtot 0.216852
10475         c3    389    ccc     C3  10475 0.15592700  12.010000   ; qtot 0.372779
10476         c3    389    ccc     C4  10476 0.28383300  12.010000   ; qtot 0.656612
10477         c3    389    ccc     C5  10477 0.32403300  12.010000   ; qtot 0.980645
10478         h1    389    ccc     H3  10478 0.13386900   1.008000   ; qtot 1.114514
10479         h1    389    ccc     H4  10479 0.10146700   1.008000   ; qtot 1.215981
10480         h2    389    ccc     H5  10480 0.10960400   1.008000   ; qtot 1.325585
10481         os    389    ccc     O1  10481 -0.28650000  16.000000   ; qtot 1.039085
10482         oh    389    ccc     O2  10482 -0.86012500  16.000000   ; qtot 0.178960
10483         oh    389    ccc     O3  10483 -0.83772800  16.000000   ; qtot -0.658767
10484         oh    389    ccc     O4  10484 -0.77449700  16.000000   ; qtot -1.433264
10485         c3    389    ccc     C6  10485 0.37576500  12.010000   ; qtot -1.057499
10486         ho    389    ccc     H6  10486 0.53656000   1.008000   ; qtot -0.520939
10487         ho    389    ccc     H7  10487 0.49492100   1.008000   ; qtot -0.026018
10488         ho    389    ccc     H8  10488 0.51297200   1.008000   ; qtot 0.486954
10489         h1    389    ccc     H9  10489 0.05653400   1.008000   ; qtot 0.543488
10490         h1    389    ccc    H10  10490 0.05653400   1.008000   ; qtot 0.600022
10491         oh    389    ccc     O5  10491 -0.84113600  16.000000   ; qtot -0.241114
10492         ho    389    ccc    H11  10492 0.51201600   1.008000   ; qtot 0.270902
10493         os    389    ccc     O6  10493 -0.26013600  16.000000   ; qtot 0.010766
; residue  390 ccc rtp ccc q 0.0
10494         c3    390    ccc     C1  10494 -0.33178800  12.010000   ; qtot -0.321022
10495         c3    390    ccc     C2  10495 0.30606500  12.010000   ; qtot -0.014957
10496         h1    390    ccc     H1  10496 0.11662300   1.008000   ; qtot 0.101666
10497         h1    390    ccc     H2  10497 0.11526800   1.008000   ; qtot 0.216934
10498         c3    390    ccc     C3  10498 0.15592700  12.010000   ; qtot 0.372861
10499         c3    390    ccc     C4  10499 0.28383300  12.010000   ; qtot 0.656694
10500         c3    390    ccc     C5  10500 0.32403300  12.010000   ; qtot 0.980727
10501         h1    390    ccc     H3  10501 0.13386900   1.008000   ; qtot 1.114596
10502         h1    390    ccc     H4  10502 0.10146700   1.008000   ; qtot 1.216063
10503         h2    390    ccc     H5  10503 0.10960400   1.008000   ; qtot 1.325667
10504         os    390    ccc     O1  10504 -0.28650000  16.000000   ; qtot 1.039167
10505         oh    390    ccc     O2  10505 -0.86012500  16.000000   ; qtot 0.179042
10506         oh    390    ccc     O3  10506 -0.83772800  16.000000   ; qtot -0.658686
10507         oh    390    ccc     O4  10507 -0.77449700  16.000000   ; qtot -1.433183
10508         c3    390    ccc     C6  10508 0.37576500  12.010000   ; qtot -1.057418
10509         ho    390    ccc     H6  10509 0.53656000   1.008000   ; qtot -0.520858
10510         ho    390    ccc     H7  10510 0.49492100   1.008000   ; qtot -0.025937
10511         ho    390    ccc     H8  10511 0.51297200   1.008000   ; qtot 0.487035
10512         h1    390    ccc     H9  10512 0.05653400   1.008000   ; qtot 0.543569
10513         h1    390    ccc    H10  10513 0.05653400   1.008000   ; qtot 0.600103
10514         oh    390    ccc     O5  10514 -0.84113600  16.000000   ; qtot -0.241033
10515         ho    390    ccc    H11  10515 0.51201600   1.008000   ; qtot 0.270983
10516         os    390    ccc     O6  10516 -0.26013600  16.000000   ; qtot 0.010847
; residue  391 ccc rtp ccc q 0.0
10517         c3    391    ccc     C1  10517 -0.33178800  12.010000   ; qtot -0.320941
10518         c3    391    ccc     C2  10518 0.30606500  12.010000   ; qtot -0.014876
10519         h1    391    ccc     H1  10519 0.11662300   1.008000   ; qtot 0.101747
10520         h1    391    ccc     H2  10520 0.11526800   1.008000   ; qtot 0.217015
10521         c3    391    ccc     C3  10521 0.15592700  12.010000   ; qtot 0.372942
10522         c3    391    ccc     C4  10522 0.28383300  12.010000   ; qtot 0.656775
10523         c3    391    ccc     C5  10523 0.32403300  12.010000   ; qtot 0.980808
10524         h1    391    ccc     H3  10524 0.13386900   1.008000   ; qtot 1.114677
10525         h1    391    ccc     H4  10525 0.10146700   1.008000   ; qtot 1.216144
10526         h2    391    ccc     H5  10526 0.10960400   1.008000   ; qtot 1.325748
10527         os    391    ccc     O1  10527 -0.28650000  16.000000   ; qtot 1.039248
10528         oh    391    ccc     O2  10528 -0.86012500  16.000000   ; qtot 0.179123
10529         oh    391    ccc     O3  10529 -0.83772800  16.000000   ; qtot -0.658605
10530         oh    391    ccc     O4  10530 -0.77449700  16.000000   ; qtot -1.433102
10531         c3    391    ccc     C6  10531 0.37576500  12.010000   ; qtot -1.057337
10532         ho    391    ccc     H6  10532 0.53656000   1.008000   ; qtot -0.520777
10533         ho    391    ccc     H7  10533 0.49492100   1.008000   ; qtot -0.025856
10534         ho    391    ccc     H8  10534 0.51297200   1.008000   ; qtot 0.487116
10535         h1    391    ccc     H9  10535 0.05653400   1.008000   ; qtot 0.543650
10536         h1    391    ccc    H10  10536 0.05653400   1.008000   ; qtot 0.600184
10537         oh    391    ccc     O5  10537 -0.84113600  16.000000   ; qtot -0.240952
10538         ho    391    ccc    H11  10538 0.51201600   1.008000   ; qtot 0.271064
10539         os    391    ccc     O6  10539 -0.26013600  16.000000   ; qtot 0.010928
; residue  392 ccc rtp ccc q 0.0
10540         c3    392    ccc     C1  10540 -0.33178800  12.010000   ; qtot -0.320860
10541         c3    392    ccc     C2  10541 0.30606500  12.010000   ; qtot -0.014795
10542         h1    392    ccc     H1  10542 0.11662300   1.008000   ; qtot 0.101828
10543         h1    392    ccc     H2  10543 0.11526800   1.008000   ; qtot 0.217096
10544         c3    392    ccc     C3  10544 0.15592700  12.010000   ; qtot 0.373023
10545         c3    392    ccc     C4  10545 0.28383300  12.010000   ; qtot 0.656856
10546         c3    392    ccc     C5  10546 0.32403300  12.010000   ; qtot 0.980889
10547         h1    392    ccc     H3  10547 0.13386900   1.008000   ; qtot 1.114758
10548         h1    392    ccc     H4  10548 0.10146700   1.008000   ; qtot 1.216225
10549         h2    392    ccc     H5  10549 0.10960400   1.008000   ; qtot 1.325829
10550         os    392    ccc     O1  10550 -0.28650000  16.000000   ; qtot 1.039329
10551         oh    392    ccc     O2  10551 -0.86012500  16.000000   ; qtot 0.179204
10552         oh    392    ccc     O3  10552 -0.83772800  16.000000   ; qtot -0.658524
10553         oh    392    ccc     O4  10553 -0.77449700  16.000000   ; qtot -1.433021
10554         c3    392    ccc     C6  10554 0.37576500  12.010000   ; qtot -1.057256
10555         ho    392    ccc     H6  10555 0.53656000   1.008000   ; qtot -0.520696
10556         ho    392    ccc     H7  10556 0.49492100   1.008000   ; qtot -0.025775
10557         ho    392    ccc     H8  10557 0.51297200   1.008000   ; qtot 0.487197
10558         h1    392    ccc     H9  10558 0.05653400   1.008000   ; qtot 0.543731
10559         h1    392    ccc    H10  10559 0.05653400   1.008000   ; qtot 0.600265
10560         oh    392    ccc     O5  10560 -0.84113600  16.000000   ; qtot -0.240871
10561         ho    392    ccc    H11  10561 0.51201600   1.008000   ; qtot 0.271145
10562         os    392    ccc     O6  10562 -0.26013600  16.000000   ; qtot 0.011009
; residue  393 ccc rtp ccc q 0.0
10563         c3    393    ccc     C1  10563 -0.33178800  12.010000   ; qtot -0.320779
10564         c3    393    ccc     C2  10564 0.30606500  12.010000   ; qtot -0.014714
10565         h1    393    ccc     H1  10565 0.11662300   1.008000   ; qtot 0.101909
10566         h1    393    ccc     H2  10566 0.11526800   1.008000   ; qtot 0.217177
10567         c3    393    ccc     C3  10567 0.15592700  12.010000   ; qtot 0.373104
10568         c3    393    ccc     C4  10568 0.28383300  12.010000   ; qtot 0.656937
10569         c3    393    ccc     C5  10569 0.32403300  12.010000   ; qtot 0.980970
10570         h1    393    ccc     H3  10570 0.13386900   1.008000   ; qtot 1.114839
10571         h1    393    ccc     H4  10571 0.10146700   1.008000   ; qtot 1.216306
10572         h2    393    ccc     H5  10572 0.10960400   1.008000   ; qtot 1.325910
10573         os    393    ccc     O1  10573 -0.28650000  16.000000   ; qtot 1.039410
10574         oh    393    ccc     O2  10574 -0.86012500  16.000000   ; qtot 0.179285
10575         oh    393    ccc     O3  10575 -0.83772800  16.000000   ; qtot -0.658443
10576         oh    393    ccc     O4  10576 -0.77449700  16.000000   ; qtot -1.432940
10577         c3    393    ccc     C6  10577 0.37576500  12.010000   ; qtot -1.057175
10578         ho    393    ccc     H6  10578 0.53656000   1.008000   ; qtot -0.520615
10579         ho    393    ccc     H7  10579 0.49492100   1.008000   ; qtot -0.025694
10580         ho    393    ccc     H8  10580 0.51297200   1.008000   ; qtot 0.487278
10581         h1    393    ccc     H9  10581 0.05653400   1.008000   ; qtot 0.543812
10582         h1    393    ccc    H10  10582 0.05653400   1.008000   ; qtot 0.600346
10583         oh    393    ccc     O5  10583 -0.84113600  16.000000   ; qtot -0.240790
10584         ho    393    ccc    H11  10584 0.51201600   1.008000   ; qtot 0.271226
10585         os    393    ccc     O6  10585 -0.26013600  16.000000   ; qtot 0.011090
; residue  394 ccc rtp ccc q 0.0
10586         c3    394    ccc     C1  10586 -0.33178800  12.010000   ; qtot -0.320698
10587         c3    394    ccc     C2  10587 0.30606500  12.010000   ; qtot -0.014633
10588         h1    394    ccc     H1  10588 0.11662300   1.008000   ; qtot 0.101990
10589         h1    394    ccc     H2  10589 0.11526800   1.008000   ; qtot 0.217258
10590         c3    394    ccc     C3  10590 0.15592700  12.010000   ; qtot 0.373185
10591         c3    394    ccc     C4  10591 0.28383300  12.010000   ; qtot 0.657018
10592         c3    394    ccc     C5  10592 0.32403300  12.010000   ; qtot 0.981051
10593         h1    394    ccc     H3  10593 0.13386900   1.008000   ; qtot 1.114920
10594         h1    394    ccc     H4  10594 0.10146700   1.008000   ; qtot 1.216387
10595         h2    394    ccc     H5  10595 0.10960400   1.008000   ; qtot 1.325991
10596         os    394    ccc     O1  10596 -0.28650000  16.000000   ; qtot 1.039491
10597         oh    394    ccc     O2  10597 -0.86012500  16.000000   ; qtot 0.179366
10598         oh    394    ccc     O3  10598 -0.83772800  16.000000   ; qtot -0.658362
10599         oh    394    ccc     O4  10599 -0.77449700  16.000000   ; qtot -1.432859
10600         c3    394    ccc     C6  10600 0.37576500  12.010000   ; qtot -1.057094
10601         ho    394    ccc     H6  10601 0.53656000   1.008000   ; qtot -0.520534
10602         ho    394    ccc     H7  10602 0.49492100   1.008000   ; qtot -0.025613
10603         ho    394    ccc     H8  10603 0.51297200   1.008000   ; qtot 0.487359
10604         h1    394    ccc     H9  10604 0.05653400   1.008000   ; qtot 0.543893
10605         h1    394    ccc    H10  10605 0.05653400   1.008000   ; qtot 0.600427
10606         oh    394    ccc     O5  10606 -0.84113600  16.000000   ; qtot -0.240709
10607         ho    394    ccc    H11  10607 0.51201600   1.008000   ; qtot 0.271307
10608         os    394    ccc     O6  10608 -0.26013600  16.000000   ; qtot 0.011171
; residue  395 ccc rtp ccc q 0.0
10609         c3    395    ccc     C1  10609 -0.33178800  12.010000   ; qtot -0.320617
10610         c3    395    ccc     C2  10610 0.30606500  12.010000   ; qtot -0.014552
10611         h1    395    ccc     H1  10611 0.11662300   1.008000   ; qtot 0.102071
10612         h1    395    ccc     H2  10612 0.11526800   1.008000   ; qtot 0.217339
10613         c3    395    ccc     C3  10613 0.15592700  12.010000   ; qtot 0.373266
10614         c3    395    ccc     C4  10614 0.28383300  12.010000   ; qtot 0.657099
10615         c3    395    ccc     C5  10615 0.32403300  12.010000   ; qtot 0.981132
10616         h1    395    ccc     H3  10616 0.13386900   1.008000   ; qtot 1.115001
10617         h1    395    ccc     H4  10617 0.10146700   1.008000   ; qtot 1.216468
10618         h2    395    ccc     H5  10618 0.10960400   1.008000   ; qtot 1.326072
10619         os    395    ccc     O1  10619 -0.28650000  16.000000   ; qtot 1.039572
10620         oh    395    ccc     O2  10620 -0.86012500  16.000000   ; qtot 0.179447
10621         oh    395    ccc     O3  10621 -0.83772800  16.000000   ; qtot -0.658281
10622         oh    395    ccc     O4  10622 -0.77449700  16.000000   ; qtot -1.432778
10623         c3    395    ccc     C6  10623 0.37576500  12.010000   ; qtot -1.057013
10624         ho    395    ccc     H6  10624 0.53656000   1.008000   ; qtot -0.520453
10625         ho    395    ccc     H7  10625 0.49492100   1.008000   ; qtot -0.025532
10626         ho    395    ccc     H8  10626 0.51297200   1.008000   ; qtot 0.487440
10627         h1    395    ccc     H9  10627 0.05653400   1.008000   ; qtot 0.543974
10628         h1    395    ccc    H10  10628 0.05653400   1.008000   ; qtot 0.600508
10629         oh    395    ccc     O5  10629 -0.84113600  16.000000   ; qtot -0.240628
10630         ho    395    ccc    H11  10630 0.51201600   1.008000   ; qtot 0.271388
10631         os    395    ccc     O6  10631 -0.26013600  16.000000   ; qtot 0.011252
; residue  396 ccc rtp ccc q 0.0
10632         c3    396    ccc     C1  10632 -0.33178800  12.010000   ; qtot -0.320536
10633         c3    396    ccc     C2  10633 0.30606500  12.010000   ; qtot -0.014471
10634         h1    396    ccc     H1  10634 0.11662300   1.008000   ; qtot 0.102152
10635         h1    396    ccc     H2  10635 0.11526800   1.008000   ; qtot 0.217420
10636         c3    396    ccc     C3  10636 0.15592700  12.010000   ; qtot 0.373347
10637         c3    396    ccc     C4  10637 0.28383300  12.010000   ; qtot 0.657180
10638         c3    396    ccc     C5  10638 0.32403300  12.010000   ; qtot 0.981213
10639         h1    396    ccc     H3  10639 0.13386900   1.008000   ; qtot 1.115082
10640         h1    396    ccc     H4  10640 0.10146700   1.008000   ; qtot 1.216549
10641         h2    396    ccc     H5  10641 0.10960400   1.008000   ; qtot 1.326153
10642         os    396    ccc     O1  10642 -0.28650000  16.000000   ; qtot 1.039653
10643         oh    396    ccc     O2  10643 -0.86012500  16.000000   ; qtot 0.179528
10644         oh    396    ccc     O3  10644 -0.83772800  16.000000   ; qtot -0.658200
10645         oh    396    ccc     O4  10645 -0.77449700  16.000000   ; qtot -1.432697
10646         c3    396    ccc     C6  10646 0.37576500  12.010000   ; qtot -1.056932
10647         ho    396    ccc     H6  10647 0.53656000   1.008000   ; qtot -0.520372
10648         ho    396    ccc     H7  10648 0.49492100   1.008000   ; qtot -0.025451
10649         ho    396    ccc     H8  10649 0.51297200   1.008000   ; qtot 0.487521
10650         h1    396    ccc     H9  10650 0.05653400   1.008000   ; qtot 0.544055
10651         h1    396    ccc    H10  10651 0.05653400   1.008000   ; qtot 0.600589
10652         oh    396    ccc     O5  10652 -0.84113600  16.000000   ; qtot -0.240547
10653         ho    396    ccc    H11  10653 0.51201600   1.008000   ; qtot 0.271469
10654         os    396    ccc     O6  10654 -0.26013600  16.000000   ; qtot 0.011333
; residue  397 ccc rtp ccc q 0.0
10655         c3    397    ccc     C1  10655 -0.33178800  12.010000   ; qtot -0.320455
10656         c3    397    ccc     C2  10656 0.30606500  12.010000   ; qtot -0.014390
10657         h1    397    ccc     H1  10657 0.11662300   1.008000   ; qtot 0.102233
10658         h1    397    ccc     H2  10658 0.11526800   1.008000   ; qtot 0.217501
10659         c3    397    ccc     C3  10659 0.15592700  12.010000   ; qtot 0.373428
10660         c3    397    ccc     C4  10660 0.28383300  12.010000   ; qtot 0.657261
10661         c3    397    ccc     C5  10661 0.32403300  12.010000   ; qtot 0.981294
10662         h1    397    ccc     H3  10662 0.13386900   1.008000   ; qtot 1.115163
10663         h1    397    ccc     H4  10663 0.10146700   1.008000   ; qtot 1.216630
10664         h2    397    ccc     H5  10664 0.10960400   1.008000   ; qtot 1.326234
10665         os    397    ccc     O1  10665 -0.28650000  16.000000   ; qtot 1.039734
10666         oh    397    ccc     O2  10666 -0.86012500  16.000000   ; qtot 0.179609
10667         oh    397    ccc     O3  10667 -0.83772800  16.000000   ; qtot -0.658119
10668         oh    397    ccc     O4  10668 -0.77449700  16.000000   ; qtot -1.432616
10669         c3    397    ccc     C6  10669 0.37576500  12.010000   ; qtot -1.056851
10670         ho    397    ccc     H6  10670 0.53656000   1.008000   ; qtot -0.520291
10671         ho    397    ccc     H7  10671 0.49492100   1.008000   ; qtot -0.025370
10672         ho    397    ccc     H8  10672 0.51297200   1.008000   ; qtot 0.487602
10673         h1    397    ccc     H9  10673 0.05653400   1.008000   ; qtot 0.544136
10674         h1    397    ccc    H10  10674 0.05653400   1.008000   ; qtot 0.600670
10675         oh    397    ccc     O5  10675 -0.84113600  16.000000   ; qtot -0.240466
10676         ho    397    ccc    H11  10676 0.51201600   1.008000   ; qtot 0.271550
10677         os    397    ccc     O6  10677 -0.26013600  16.000000   ; qtot 0.011414
; residue  398 ccc rtp ccc q 0.0
10678         c3    398    ccc     C1  10678 -0.33178800  12.010000   ; qtot -0.320374
10679         c3    398    ccc     C2  10679 0.30606500  12.010000   ; qtot -0.014309
10680         h1    398    ccc     H1  10680 0.11662300   1.008000   ; qtot 0.102314
10681         h1    398    ccc     H2  10681 0.11526800   1.008000   ; qtot 0.217582
10682         c3    398    ccc     C3  10682 0.15592700  12.010000   ; qtot 0.373509
10683         c3    398    ccc     C4  10683 0.28383300  12.010000   ; qtot 0.657342
10684         c3    398    ccc     C5  10684 0.32403300  12.010000   ; qtot 0.981375
10685         h1    398    ccc     H3  10685 0.13386900   1.008000   ; qtot 1.115244
10686         h1    398    ccc     H4  10686 0.10146700   1.008000   ; qtot 1.216711
10687         h2    398    ccc     H5  10687 0.10960400   1.008000   ; qtot 1.326315
10688         os    398    ccc     O1  10688 -0.28650000  16.000000   ; qtot 1.039815
10689         oh    398    ccc     O2  10689 -0.86012500  16.000000   ; qtot 0.179690
10690         oh    398    ccc     O3  10690 -0.83772800  16.000000   ; qtot -0.658038
10691         oh    398    ccc     O4  10691 -0.77449700  16.000000   ; qtot -1.432535
10692         c3    398    ccc     C6  10692 0.37576500  12.010000   ; qtot -1.056770
10693         ho    398    ccc     H6  10693 0.53656000   1.008000   ; qtot -0.520210
10694         ho    398    ccc     H7  10694 0.49492100   1.008000   ; qtot -0.025289
10695         ho    398    ccc     H8  10695 0.51297200   1.008000   ; qtot 0.487683
10696         h1    398    ccc     H9  10696 0.05653400   1.008000   ; qtot 0.544217
10697         h1    398    ccc    H10  10697 0.05653400   1.008000   ; qtot 0.600751
10698         oh    398    ccc     O5  10698 -0.84113600  16.000000   ; qtot -0.240385
10699         ho    398    ccc    H11  10699 0.51201600   1.008000   ; qtot 0.271631
10700         os    398    ccc     O6  10700 -0.26013600  16.000000   ; qtot 0.011495
; residue  399 ccc rtp ccc q 0.0
10701         c3    399    ccc     C1  10701 -0.33178800  12.010000   ; qtot -0.320293
10702         c3    399    ccc     C2  10702 0.30606500  12.010000   ; qtot -0.014228
10703         h1    399    ccc     H1  10703 0.11662300   1.008000   ; qtot 0.102395
10704         h1    399    ccc     H2  10704 0.11526800   1.008000   ; qtot 0.217663
10705         c3    399    ccc     C3  10705 0.15592700  12.010000   ; qtot 0.373590
10706         c3    399    ccc     C4  10706 0.28383300  12.010000   ; qtot 0.657423
10707         c3    399    ccc     C5  10707 0.32403300  12.010000   ; qtot 0.981456
10708         h1    399    ccc     H3  10708 0.13386900   1.008000   ; qtot 1.115325
10709         h1    399    ccc     H4  10709 0.10146700   1.008000   ; qtot 1.216792
10710         h2    399    ccc     H5  10710 0.10960400   1.008000   ; qtot 1.326396
10711         os    399    ccc     O1  10711 -0.28650000  16.000000   ; qtot 1.039896
10712         oh    399    ccc     O2  10712 -0.86012500  16.000000   ; qtot 0.179771
10713         oh    399    ccc     O3  10713 -0.83772800  16.000000   ; qtot -0.657957
10714         oh    399    ccc     O4  10714 -0.77449700  16.000000   ; qtot -1.432454
10715         c3    399    ccc     C6  10715 0.37576500  12.010000   ; qtot -1.056689
10716         ho    399    ccc     H6  10716 0.53656000   1.008000   ; qtot -0.520129
10717         ho    399    ccc     H7  10717 0.49492100   1.008000   ; qtot -0.025208
10718         ho    399    ccc     H8  10718 0.51297200   1.008000   ; qtot 0.487764
10719         h1    399    ccc     H9  10719 0.05653400   1.008000   ; qtot 0.544298
10720         h1    399    ccc    H10  10720 0.05653400   1.008000   ; qtot 0.600832
10721         oh    399    ccc     O5  10721 -0.84113600  16.000000   ; qtot -0.240304
10722         ho    399    ccc    H11  10722 0.51201600   1.008000   ; qtot 0.271712
10723         os    399    ccc     O6  10723 -0.26013600  16.000000   ; qtot 0.011576
; residue  400 ccc rtp ccc q 0.0
10724         c3    400    ccc     C1  10724 -0.33178800  12.010000   ; qtot -0.320212
10725         c3    400    ccc     C2  10725 0.30606500  12.010000   ; qtot -0.014147
10726         h1    400    ccc     H1  10726 0.11662300   1.008000   ; qtot 0.102476
10727         h1    400    ccc     H2  10727 0.11526800   1.008000   ; qtot 0.217744
10728         c3    400    ccc     C3  10728 0.15592700  12.010000   ; qtot 0.373671
10729         c3    400    ccc     C4  10729 0.28383300  12.010000   ; qtot 0.657504
10730         c3    400    ccc     C5  10730 0.32403300  12.010000   ; qtot 0.981537
10731         h1    400    ccc     H3  10731 0.13386900   1.008000   ; qtot 1.115406
10732         h1    400    ccc     H4  10732 0.10146700   1.008000   ; qtot 1.216873
10733         h2    400    ccc     H5  10733 0.10960400   1.008000   ; qtot 1.326477
10734         os    400    ccc     O1  10734 -0.28650000  16.000000   ; qtot 1.039977
10735         oh    400    ccc     O2  10735 -0.86012500  16.000000   ; qtot 0.179852
10736         oh    400    ccc     O3  10736 -0.83772800  16.000000   ; qtot -0.657876
10737         oh    400    ccc     O4  10737 -0.77449700  16.000000   ; qtot -1.432373
10738         c3    400    ccc     C6  10738 0.37576500  12.010000   ; qtot -1.056608
10739         ho    400    ccc     H6  10739 0.53656000   1.008000   ; qtot -0.520048
10740         ho    400    ccc     H7  10740 0.49492100   1.008000   ; qtot -0.025127
10741         ho    400    ccc     H8  10741 0.51297200   1.008000   ; qtot 0.487845
10742         h1    400    ccc     H9  10742 0.05653400   1.008000   ; qtot 0.544379
10743         h1    400    ccc    H10  10743 0.05653400   1.008000   ; qtot 0.600913
10744         oh    400    ccc     O5  10744 -0.84113600  16.000000   ; qtot -0.240223
10745         ho    400    ccc    H11  10745 0.51201600   1.008000   ; qtot 0.271793
10746         os    400    ccc     O6  10746 -0.26013600  16.000000   ; qtot 0.011657
; residue  401 ccc rtp ccc q 0.0
10747         c3    401    ccc     C1  10747 -0.33178800  12.010000   ; qtot -0.320131
10748         c3    401    ccc     C2  10748 0.30606500  12.010000   ; qtot -0.014066
10749         h1    401    ccc     H1  10749 0.11662300   1.008000   ; qtot 0.102557
10750         h1    401    ccc     H2  10750 0.11526800   1.008000   ; qtot 0.217825
10751         c3    401    ccc     C3  10751 0.15592700  12.010000   ; qtot 0.373752
10752         c3    401    ccc     C4  10752 0.28383300  12.010000   ; qtot 0.657585
10753         c3    401    ccc     C5  10753 0.32403300  12.010000   ; qtot 0.981618
10754         h1    401    ccc     H3  10754 0.13386900   1.008000   ; qtot 1.115487
10755         h1    401    ccc     H4  10755 0.10146700   1.008000   ; qtot 1.216954
10756         h2    401    ccc     H5  10756 0.10960400   1.008000   ; qtot 1.326558
10757         os    401    ccc     O1  10757 -0.28650000  16.000000   ; qtot 1.040058
10758         oh    401    ccc     O2  10758 -0.86012500  16.000000   ; qtot 0.179933
10759         oh    401    ccc     O3  10759 -0.83772800  16.000000   ; qtot -0.657795
10760         oh    401    ccc     O4  10760 -0.77449700  16.000000   ; qtot -1.432292
10761         c3    401    ccc     C6  10761 0.37576500  12.010000   ; qtot -1.056527
10762         ho    401    ccc     H6  10762 0.53656000   1.008000   ; qtot -0.519967
10763         ho    401    ccc     H7  10763 0.49492100   1.008000   ; qtot -0.025046
10764         ho    401    ccc     H8  10764 0.51297200   1.008000   ; qtot 0.487926
10765         h1    401    ccc     H9  10765 0.05653400   1.008000   ; qtot 0.544460
10766         h1    401    ccc    H10  10766 0.05653400   1.008000   ; qtot 0.600994
10767         oh    401    ccc     O5  10767 -0.84113600  16.000000   ; qtot -0.240142
10768         ho    401    ccc    H11  10768 0.51201600   1.008000   ; qtot 0.271874
10769         os    401    ccc     O6  10769 -0.26013600  16.000000   ; qtot 0.011738
; residue  402 ccc rtp ccc q 0.0
10770         c3    402    ccc     C1  10770 -0.33178800  12.010000   ; qtot -0.320050
10771         c3    402    ccc     C2  10771 0.30606500  12.010000   ; qtot -0.013985
10772         h1    402    ccc     H1  10772 0.11662300   1.008000   ; qtot 0.102638
10773         h1    402    ccc     H2  10773 0.11526800   1.008000   ; qtot 0.217906
10774         c3    402    ccc     C3  10774 0.15592700  12.010000   ; qtot 0.373833
10775         c3    402    ccc     C4  10775 0.28383300  12.010000   ; qtot 0.657666
10776         c3    402    ccc     C5  10776 0.32403300  12.010000   ; qtot 0.981699
10777         h1    402    ccc     H3  10777 0.13386900   1.008000   ; qtot 1.115568
10778         h1    402    ccc     H4  10778 0.10146700   1.008000   ; qtot 1.217035
10779         h2    402    ccc     H5  10779 0.10960400   1.008000   ; qtot 1.326639
10780         os    402    ccc     O1  10780 -0.28650000  16.000000   ; qtot 1.040139
10781         oh    402    ccc     O2  10781 -0.86012500  16.000000   ; qtot 0.180014
10782         oh    402    ccc     O3  10782 -0.83772800  16.000000   ; qtot -0.657714
10783         oh    402    ccc     O4  10783 -0.77449700  16.000000   ; qtot -1.432211
10784         c3    402    ccc     C6  10784 0.37576500  12.010000   ; qtot -1.056446
10785         ho    402    ccc     H6  10785 0.53656000   1.008000   ; qtot -0.519886
10786         ho    402    ccc     H7  10786 0.49492100   1.008000   ; qtot -0.024965
10787         ho    402    ccc     H8  10787 0.51297200   1.008000   ; qtot 0.488007
10788         h1    402    ccc     H9  10788 0.05653400   1.008000   ; qtot 0.544541
10789         h1    402    ccc    H10  10789 0.05653400   1.008000   ; qtot 0.601075
10790         oh    402    ccc     O5  10790 -0.84113600  16.000000   ; qtot -0.240061
10791         ho    402    ccc    H11  10791 0.51201600   1.008000   ; qtot 0.271955
10792         os    402    ccc     O6  10792 -0.26013600  16.000000   ; qtot 0.011819
; residue  403 ccc rtp ccc q 0.0
10793         c3    403    ccc     C1  10793 -0.33178800  12.010000   ; qtot -0.319969
10794         c3    403    ccc     C2  10794 0.30606500  12.010000   ; qtot -0.013904
10795         h1    403    ccc     H1  10795 0.11662300   1.008000   ; qtot 0.102719
10796         h1    403    ccc     H2  10796 0.11526800   1.008000   ; qtot 0.217987
10797         c3    403    ccc     C3  10797 0.15592700  12.010000   ; qtot 0.373914
10798         c3    403    ccc     C4  10798 0.28383300  12.010000   ; qtot 0.657747
10799         c3    403    ccc     C5  10799 0.32403300  12.010000   ; qtot 0.981780
10800         h1    403    ccc     H3  10800 0.13386900   1.008000   ; qtot 1.115649
10801         h1    403    ccc     H4  10801 0.10146700   1.008000   ; qtot 1.217116
10802         h2    403    ccc     H5  10802 0.10960400   1.008000   ; qtot 1.326720
10803         os    403    ccc     O1  10803 -0.28650000  16.000000   ; qtot 1.040220
10804         oh    403    ccc     O2  10804 -0.86012500  16.000000   ; qtot 0.180095
10805         oh    403    ccc     O3  10805 -0.83772800  16.000000   ; qtot -0.657633
10806         oh    403    ccc     O4  10806 -0.77449700  16.000000   ; qtot -1.432130
10807         c3    403    ccc     C6  10807 0.37576500  12.010000   ; qtot -1.056365
10808         ho    403    ccc     H6  10808 0.53656000   1.008000   ; qtot -0.519805
10809         ho    403    ccc     H7  10809 0.49492100   1.008000   ; qtot -0.024884
10810         ho    403    ccc     H8  10810 0.51297200   1.008000   ; qtot 0.488088
10811         h1    403    ccc     H9  10811 0.05653400   1.008000   ; qtot 0.544622
10812         h1    403    ccc    H10  10812 0.05653400   1.008000   ; qtot 0.601156
10813         oh    403    ccc     O5  10813 -0.84113600  16.000000   ; qtot -0.239980
10814         ho    403    ccc    H11  10814 0.51201600   1.008000   ; qtot 0.272036
10815         os    403    ccc     O6  10815 -0.26013600  16.000000   ; qtot 0.011900
; residue  404 ccc rtp ccc q 0.0
10816         c3    404    ccc     C1  10816 -0.33178800  12.010000   ; qtot -0.319888
10817         c3    404    ccc     C2  10817 0.30606500  12.010000   ; qtot -0.013823
10818         h1    404    ccc     H1  10818 0.11662300   1.008000   ; qtot 0.102800
10819         h1    404    ccc     H2  10819 0.11526800   1.008000   ; qtot 0.218068
10820         c3    404    ccc     C3  10820 0.15592700  12.010000   ; qtot 0.373995
10821         c3    404    ccc     C4  10821 0.28383300  12.010000   ; qtot 0.657828
10822         c3    404    ccc     C5  10822 0.32403300  12.010000   ; qtot 0.981861
10823         h1    404    ccc     H3  10823 0.13386900   1.008000   ; qtot 1.115730
10824         h1    404    ccc     H4  10824 0.10146700   1.008000   ; qtot 1.217197
10825         h2    404    ccc     H5  10825 0.10960400   1.008000   ; qtot 1.326801
10826         os    404    ccc     O1  10826 -0.28650000  16.000000   ; qtot 1.040301
10827         oh    404    ccc     O2  10827 -0.86012500  16.000000   ; qtot 0.180176
10828         oh    404    ccc     O3  10828 -0.83772800  16.000000   ; qtot -0.657552
10829         oh    404    ccc     O4  10829 -0.77449700  16.000000   ; qtot -1.432049
10830         c3    404    ccc     C6  10830 0.37576500  12.010000   ; qtot -1.056284
10831         ho    404    ccc     H6  10831 0.53656000   1.008000   ; qtot -0.519724
10832         ho    404    ccc     H7  10832 0.49492100   1.008000   ; qtot -0.024803
10833         ho    404    ccc     H8  10833 0.51297200   1.008000   ; qtot 0.488169
10834         h1    404    ccc     H9  10834 0.05653400   1.008000   ; qtot 0.544703
10835         h1    404    ccc    H10  10835 0.05653400   1.008000   ; qtot 0.601237
10836         oh    404    ccc     O5  10836 -0.84113600  16.000000   ; qtot -0.239899
10837         ho    404    ccc    H11  10837 0.51201600   1.008000   ; qtot 0.272117
10838         os    404    ccc     O6  10838 -0.26013600  16.000000   ; qtot 0.011981
; residue  405 ccc rtp ccc q 0.0
10839         c3    405    ccc     C1  10839 -0.33178800  12.010000   ; qtot -0.319807
10840         c3    405    ccc     C2  10840 0.30606500  12.010000   ; qtot -0.013742
10841         h1    405    ccc     H1  10841 0.11662300   1.008000   ; qtot 0.102881
10842         h1    405    ccc     H2  10842 0.11526800   1.008000   ; qtot 0.218149
10843         c3    405    ccc     C3  10843 0.15592700  12.010000   ; qtot 0.374076
10844         c3    405    ccc     C4  10844 0.28383300  12.010000   ; qtot 0.657909
10845         c3    405    ccc     C5  10845 0.32403300  12.010000   ; qtot 0.981942
10846         h1    405    ccc     H3  10846 0.13386900   1.008000   ; qtot 1.115811
10847         h1    405    ccc     H4  10847 0.10146700   1.008000   ; qtot 1.217278
10848         h2    405    ccc     H5  10848 0.10960400   1.008000   ; qtot 1.326882
10849         os    405    ccc     O1  10849 -0.28650000  16.000000   ; qtot 1.040382
10850         oh    405    ccc     O2  10850 -0.86012500  16.000000   ; qtot 0.180257
10851         oh    405    ccc     O3  10851 -0.83772800  16.000000   ; qtot -0.657471
10852         oh    405    ccc     O4  10852 -0.77449700  16.000000   ; qtot -1.431968
10853         c3    405    ccc     C6  10853 0.37576500  12.010000   ; qtot -1.056203
10854         ho    405    ccc     H6  10854 0.53656000   1.008000   ; qtot -0.519643
10855         ho    405    ccc     H7  10855 0.49492100   1.008000   ; qtot -0.024722
10856         ho    405    ccc     H8  10856 0.51297200   1.008000   ; qtot 0.488250
10857         h1    405    ccc     H9  10857 0.05653400   1.008000   ; qtot 0.544784
10858         h1    405    ccc    H10  10858 0.05653400   1.008000   ; qtot 0.601318
10859         oh    405    ccc     O5  10859 -0.84113600  16.000000   ; qtot -0.239818
10860         ho    405    ccc    H11  10860 0.51201600   1.008000   ; qtot 0.272198
10861         os    405    ccc     O6  10861 -0.26013600  16.000000   ; qtot 0.012062
; residue  406 ccc rtp ccc q 0.0
10862         c3    406    ccc     C1  10862 -0.33178800  12.010000   ; qtot -0.319726
10863         c3    406    ccc     C2  10863 0.30606500  12.010000   ; qtot -0.013661
10864         h1    406    ccc     H1  10864 0.11662300   1.008000   ; qtot 0.102962
10865         h1    406    ccc     H2  10865 0.11526800   1.008000   ; qtot 0.218230
10866         c3    406    ccc     C3  10866 0.15592700  12.010000   ; qtot 0.374157
10867         c3    406    ccc     C4  10867 0.28383300  12.010000   ; qtot 0.657990
10868         c3    406    ccc     C5  10868 0.32403300  12.010000   ; qtot 0.982023
10869         h1    406    ccc     H3  10869 0.13386900   1.008000   ; qtot 1.115892
10870         h1    406    ccc     H4  10870 0.10146700   1.008000   ; qtot 1.217359
10871         h2    406    ccc     H5  10871 0.10960400   1.008000   ; qtot 1.326963
10872         os    406    ccc     O1  10872 -0.28650000  16.000000   ; qtot 1.040463
10873         oh    406    ccc     O2  10873 -0.86012500  16.000000   ; qtot 0.180338
10874         oh    406    ccc     O3  10874 -0.83772800  16.000000   ; qtot -0.657390
10875         oh    406    ccc     O4  10875 -0.77449700  16.000000   ; qtot -1.431887
10876         c3    406    ccc     C6  10876 0.37576500  12.010000   ; qtot -1.056122
10877         ho    406    ccc     H6  10877 0.53656000   1.008000   ; qtot -0.519562
10878         ho    406    ccc     H7  10878 0.49492100   1.008000   ; qtot -0.024641
10879         ho    406    ccc     H8  10879 0.51297200   1.008000   ; qtot 0.488331
10880         h1    406    ccc     H9  10880 0.05653400   1.008000   ; qtot 0.544865
10881         h1    406    ccc    H10  10881 0.05653400   1.008000   ; qtot 0.601399
10882         oh    406    ccc     O5  10882 -0.84113600  16.000000   ; qtot -0.239737
10883         ho    406    ccc    H11  10883 0.51201600   1.008000   ; qtot 0.272279
10884         os    406    ccc     O6  10884 -0.26013600  16.000000   ; qtot 0.012143
; residue  407 ccc rtp ccc q 0.0
10885         c3    407    ccc     C1  10885 -0.33178800  12.010000   ; qtot -0.319645
10886         c3    407    ccc     C2  10886 0.30606500  12.010000   ; qtot -0.013580
10887         h1    407    ccc     H1  10887 0.11662300   1.008000   ; qtot 0.103043
10888         h1    407    ccc     H2  10888 0.11526800   1.008000   ; qtot 0.218311
10889         c3    407    ccc     C3  10889 0.15592700  12.010000   ; qtot 0.374238
10890         c3    407    ccc     C4  10890 0.28383300  12.010000   ; qtot 0.658071
10891         c3    407    ccc     C5  10891 0.32403300  12.010000   ; qtot 0.982104
10892         h1    407    ccc     H3  10892 0.13386900   1.008000   ; qtot 1.115973
10893         h1    407    ccc     H4  10893 0.10146700   1.008000   ; qtot 1.217440
10894         h2    407    ccc     H5  10894 0.10960400   1.008000   ; qtot 1.327044
10895         os    407    ccc     O1  10895 -0.28650000  16.000000   ; qtot 1.040544
10896         oh    407    ccc     O2  10896 -0.86012500  16.000000   ; qtot 0.180419
10897         oh    407    ccc     O3  10897 -0.83772800  16.000000   ; qtot -0.657309
10898         oh    407    ccc     O4  10898 -0.77449700  16.000000   ; qtot -1.431806
10899         c3    407    ccc     C6  10899 0.37576500  12.010000   ; qtot -1.056041
10900         ho    407    ccc     H6  10900 0.53656000   1.008000   ; qtot -0.519481
10901         ho    407    ccc     H7  10901 0.49492100   1.008000   ; qtot -0.024560
10902         ho    407    ccc     H8  10902 0.51297200   1.008000   ; qtot 0.488412
10903         h1    407    ccc     H9  10903 0.05653400   1.008000   ; qtot 0.544946
10904         h1    407    ccc    H10  10904 0.05653400   1.008000   ; qtot 0.601480
10905         oh    407    ccc     O5  10905 -0.84113600  16.000000   ; qtot -0.239656
10906         ho    407    ccc    H11  10906 0.51201600   1.008000   ; qtot 0.272360
10907         os    407    ccc     O6  10907 -0.26013600  16.000000   ; qtot 0.012224
; residue  408 ccc rtp ccc q 0.0
10908         c3    408    ccc     C1  10908 -0.33178800  12.010000   ; qtot -0.319564
10909         c3    408    ccc     C2  10909 0.30606500  12.010000   ; qtot -0.013499
10910         h1    408    ccc     H1  10910 0.11662300   1.008000   ; qtot 0.103124
10911         h1    408    ccc     H2  10911 0.11526800   1.008000   ; qtot 0.218392
10912         c3    408    ccc     C3  10912 0.15592700  12.010000   ; qtot 0.374319
10913         c3    408    ccc     C4  10913 0.28383300  12.010000   ; qtot 0.658152
10914         c3    408    ccc     C5  10914 0.32403300  12.010000   ; qtot 0.982185
10915         h1    408    ccc     H3  10915 0.13386900   1.008000   ; qtot 1.116054
10916         h1    408    ccc     H4  10916 0.10146700   1.008000   ; qtot 1.217521
10917         h2    408    ccc     H5  10917 0.10960400   1.008000   ; qtot 1.327125
10918         os    408    ccc     O1  10918 -0.28650000  16.000000   ; qtot 1.040625
10919         oh    408    ccc     O2  10919 -0.86012500  16.000000   ; qtot 0.180500
10920         oh    408    ccc     O3  10920 -0.83772800  16.000000   ; qtot -0.657228
10921         oh    408    ccc     O4  10921 -0.77449700  16.000000   ; qtot -1.431725
10922         c3    408    ccc     C6  10922 0.37576500  12.010000   ; qtot -1.055960
10923         ho    408    ccc     H6  10923 0.53656000   1.008000   ; qtot -0.519400
10924         ho    408    ccc     H7  10924 0.49492100   1.008000   ; qtot -0.024479
10925         ho    408    ccc     H8  10925 0.51297200   1.008000   ; qtot 0.488493
10926         h1    408    ccc     H9  10926 0.05653400   1.008000   ; qtot 0.545027
10927         h1    408    ccc    H10  10927 0.05653400   1.008000   ; qtot 0.601561
10928         oh    408    ccc     O5  10928 -0.84113600  16.000000   ; qtot -0.239575
10929         ho    408    ccc    H11  10929 0.51201600   1.008000   ; qtot 0.272441
10930         os    408    ccc     O6  10930 -0.26013600  16.000000   ; qtot 0.012305
; residue  409 ccc rtp ccc q 0.0
10931         c3    409    ccc     C1  10931 -0.33178800  12.010000   ; qtot -0.319483
10932         c3    409    ccc     C2  10932 0.30606500  12.010000   ; qtot -0.013418
10933         h1    409    ccc     H1  10933 0.11662300   1.008000   ; qtot 0.103205
10934         h1    409    ccc     H2  10934 0.11526800   1.008000   ; qtot 0.218473
10935         c3    409    ccc     C3  10935 0.15592700  12.010000   ; qtot 0.374400
10936         c3    409    ccc     C4  10936 0.28383300  12.010000   ; qtot 0.658233
10937         c3    409    ccc     C5  10937 0.32403300  12.010000   ; qtot 0.982266
10938         h1    409    ccc     H3  10938 0.13386900   1.008000   ; qtot 1.116135
10939         h1    409    ccc     H4  10939 0.10146700   1.008000   ; qtot 1.217602
10940         h2    409    ccc     H5  10940 0.10960400   1.008000   ; qtot 1.327206
10941         os    409    ccc     O1  10941 -0.28650000  16.000000   ; qtot 1.040706
10942         oh    409    ccc     O2  10942 -0.86012500  16.000000   ; qtot 0.180581
10943         oh    409    ccc     O3  10943 -0.83772800  16.000000   ; qtot -0.657147
10944         oh    409    ccc     O4  10944 -0.77449700  16.000000   ; qtot -1.431644
10945         c3    409    ccc     C6  10945 0.37576500  12.010000   ; qtot -1.055879
10946         ho    409    ccc     H6  10946 0.53656000   1.008000   ; qtot -0.519319
10947         ho    409    ccc     H7  10947 0.49492100   1.008000   ; qtot -0.024398
10948         ho    409    ccc     H8  10948 0.51297200   1.008000   ; qtot 0.488574
10949         h1    409    ccc     H9  10949 0.05653400   1.008000   ; qtot 0.545108
10950         h1    409    ccc    H10  10950 0.05653400   1.008000   ; qtot 0.601642
10951         oh    409    ccc     O5  10951 -0.84113600  16.000000   ; qtot -0.239494
10952         ho    409    ccc    H11  10952 0.51201600   1.008000   ; qtot 0.272522
10953         os    409    ccc     O6  10953 -0.26013600  16.000000   ; qtot 0.012386
; residue  410 ccc rtp ccc q 0.0
10954         c3    410    ccc     C1  10954 -0.33178800  12.010000   ; qtot -0.319402
10955         c3    410    ccc     C2  10955 0.30606500  12.010000   ; qtot -0.013337
10956         h1    410    ccc     H1  10956 0.11662300   1.008000   ; qtot 0.103286
10957         h1    410    ccc     H2  10957 0.11526800   1.008000   ; qtot 0.218554
10958         c3    410    ccc     C3  10958 0.15592700  12.010000   ; qtot 0.374481
10959         c3    410    ccc     C4  10959 0.28383300  12.010000   ; qtot 0.658314
10960         c3    410    ccc     C5  10960 0.32403300  12.010000   ; qtot 0.982347
10961         h1    410    ccc     H3  10961 0.13386900   1.008000   ; qtot 1.116216
10962         h1    410    ccc     H4  10962 0.10146700   1.008000   ; qtot 1.217683
10963         h2    410    ccc     H5  10963 0.10960400   1.008000   ; qtot 1.327287
10964         os    410    ccc     O1  10964 -0.28650000  16.000000   ; qtot 1.040787
10965         oh    410    ccc     O2  10965 -0.86012500  16.000000   ; qtot 0.180662
10966         oh    410    ccc     O3  10966 -0.83772800  16.000000   ; qtot -0.657066
10967         oh    410    ccc     O4  10967 -0.77449700  16.000000   ; qtot -1.431563
10968         c3    410    ccc     C6  10968 0.37576500  12.010000   ; qtot -1.055798
10969         ho    410    ccc     H6  10969 0.53656000   1.008000   ; qtot -0.519238
10970         ho    410    ccc     H7  10970 0.49492100   1.008000   ; qtot -0.024317
10971         ho    410    ccc     H8  10971 0.51297200   1.008000   ; qtot 0.488655
10972         h1    410    ccc     H9  10972 0.05653400   1.008000   ; qtot 0.545189
10973         h1    410    ccc    H10  10973 0.05653400   1.008000   ; qtot 0.601723
10974         oh    410    ccc     O5  10974 -0.84113600  16.000000   ; qtot -0.239413
10975         ho    410    ccc    H11  10975 0.51201600   1.008000   ; qtot 0.272603
10976         os    410    ccc     O6  10976 -0.26013600  16.000000   ; qtot 0.012467
; residue  411 ccc rtp ccc q 0.0
10977         c3    411    ccc     C1  10977 -0.33178800  12.010000   ; qtot -0.319321
10978         c3    411    ccc     C2  10978 0.30606500  12.010000   ; qtot -0.013256
10979         h1    411    ccc     H1  10979 0.11662300   1.008000   ; qtot 0.103367
10980         h1    411    ccc     H2  10980 0.11526800   1.008000   ; qtot 0.218635
10981         c3    411    ccc     C3  10981 0.15592700  12.010000   ; qtot 0.374562
10982         c3    411    ccc     C4  10982 0.28383300  12.010000   ; qtot 0.658395
10983         c3    411    ccc     C5  10983 0.32403300  12.010000   ; qtot 0.982428
10984         h1    411    ccc     H3  10984 0.13386900   1.008000   ; qtot 1.116297
10985         h1    411    ccc     H4  10985 0.10146700   1.008000   ; qtot 1.217764
10986         h2    411    ccc     H5  10986 0.10960400   1.008000   ; qtot 1.327368
10987         os    411    ccc     O1  10987 -0.28650000  16.000000   ; qtot 1.040868
10988         oh    411    ccc     O2  10988 -0.86012500  16.000000   ; qtot 0.180743
10989         oh    411    ccc     O3  10989 -0.83772800  16.000000   ; qtot -0.656985
10990         oh    411    ccc     O4  10990 -0.77449700  16.000000   ; qtot -1.431482
10991         c3    411    ccc     C6  10991 0.37576500  12.010000   ; qtot -1.055717
10992         ho    411    ccc     H6  10992 0.53656000   1.008000   ; qtot -0.519157
10993         ho    411    ccc     H7  10993 0.49492100   1.008000   ; qtot -0.024236
10994         ho    411    ccc     H8  10994 0.51297200   1.008000   ; qtot 0.488736
10995         h1    411    ccc     H9  10995 0.05653400   1.008000   ; qtot 0.545270
10996         h1    411    ccc    H10  10996 0.05653400   1.008000   ; qtot 0.601804
10997         oh    411    ccc     O5  10997 -0.84113600  16.000000   ; qtot -0.239332
10998         ho    411    ccc    H11  10998 0.51201600   1.008000   ; qtot 0.272684
10999         os    411    ccc     O6  10999 -0.26013600  16.000000   ; qtot 0.012548
; residue  412 ccc rtp ccc q 0.0
11000         c3    412    ccc     C1  11000 -0.33178800  12.010000   ; qtot -0.319240
11001         c3    412    ccc     C2  11001 0.30606500  12.010000   ; qtot -0.013175
11002         h1    412    ccc     H1  11002 0.11662300   1.008000   ; qtot 0.103448
11003         h1    412    ccc     H2  11003 0.11526800   1.008000   ; qtot 0.218716
11004         c3    412    ccc     C3  11004 0.15592700  12.010000   ; qtot 0.374643
11005         c3    412    ccc     C4  11005 0.28383300  12.010000   ; qtot 0.658476
11006         c3    412    ccc     C5  11006 0.32403300  12.010000   ; qtot 0.982509
11007         h1    412    ccc     H3  11007 0.13386900   1.008000   ; qtot 1.116378
11008         h1    412    ccc     H4  11008 0.10146700   1.008000   ; qtot 1.217845
11009         h2    412    ccc     H5  11009 0.10960400   1.008000   ; qtot 1.327449
11010         os    412    ccc     O1  11010 -0.28650000  16.000000   ; qtot 1.040949
11011         oh    412    ccc     O2  11011 -0.86012500  16.000000   ; qtot 0.180824
11012         oh    412    ccc     O3  11012 -0.83772800  16.000000   ; qtot -0.656904
11013         oh    412    ccc     O4  11013 -0.77449700  16.000000   ; qtot -1.431401
11014         c3    412    ccc     C6  11014 0.37576500  12.010000   ; qtot -1.055636
11015         ho    412    ccc     H6  11015 0.53656000   1.008000   ; qtot -0.519076
11016         ho    412    ccc     H7  11016 0.49492100   1.008000   ; qtot -0.024155
11017         ho    412    ccc     H8  11017 0.51297200   1.008000   ; qtot 0.488817
11018         h1    412    ccc     H9  11018 0.05653400   1.008000   ; qtot 0.545351
11019         h1    412    ccc    H10  11019 0.05653400   1.008000   ; qtot 0.601885
11020         oh    412    ccc     O5  11020 -0.84113600  16.000000   ; qtot -0.239251
11021         ho    412    ccc    H11  11021 0.51201600   1.008000   ; qtot 0.272765
11022         os    412    ccc     O6  11022 -0.26013600  16.000000   ; qtot 0.012629
; residue  413 ccc rtp ccc q 0.0
11023         c3    413    ccc     C1  11023 -0.33178800  12.010000   ; qtot -0.319159
11024         c3    413    ccc     C2  11024 0.30606500  12.010000   ; qtot -0.013094
11025         h1    413    ccc     H1  11025 0.11662300   1.008000   ; qtot 0.103529
11026         h1    413    ccc     H2  11026 0.11526800   1.008000   ; qtot 0.218797
11027         c3    413    ccc     C3  11027 0.15592700  12.010000   ; qtot 0.374724
11028         c3    413    ccc     C4  11028 0.28383300  12.010000   ; qtot 0.658557
11029         c3    413    ccc     C5  11029 0.32403300  12.010000   ; qtot 0.982590
11030         h1    413    ccc     H3  11030 0.13386900   1.008000   ; qtot 1.116459
11031         h1    413    ccc     H4  11031 0.10146700   1.008000   ; qtot 1.217926
11032         h2    413    ccc     H5  11032 0.10960400   1.008000   ; qtot 1.327530
11033         os    413    ccc     O1  11033 -0.28650000  16.000000   ; qtot 1.041030
11034         oh    413    ccc     O2  11034 -0.86012500  16.000000   ; qtot 0.180905
11035         oh    413    ccc     O3  11035 -0.83772800  16.000000   ; qtot -0.656823
11036         oh    413    ccc     O4  11036 -0.77449700  16.000000   ; qtot -1.431320
11037         c3    413    ccc     C6  11037 0.37576500  12.010000   ; qtot -1.055555
11038         ho    413    ccc     H6  11038 0.53656000   1.008000   ; qtot -0.518995
11039         ho    413    ccc     H7  11039 0.49492100   1.008000   ; qtot -0.024074
11040         ho    413    ccc     H8  11040 0.51297200   1.008000   ; qtot 0.488898
11041         h1    413    ccc     H9  11041 0.05653400   1.008000   ; qtot 0.545432
11042         h1    413    ccc    H10  11042 0.05653400   1.008000   ; qtot 0.601966
11043         oh    413    ccc     O5  11043 -0.84113600  16.000000   ; qtot -0.239170
11044         ho    413    ccc    H11  11044 0.51201600   1.008000   ; qtot 0.272846
11045         os    413    ccc     O6  11045 -0.26013600  16.000000   ; qtot 0.012710
; residue  414 ccc rtp ccc q 0.0
11046         c3    414    ccc     C1  11046 -0.33178800  12.010000   ; qtot -0.319078
11047         c3    414    ccc     C2  11047 0.30606500  12.010000   ; qtot -0.013013
11048         h1    414    ccc     H1  11048 0.11662300   1.008000   ; qtot 0.103610
11049         h1    414    ccc     H2  11049 0.11526800   1.008000   ; qtot 0.218878
11050         c3    414    ccc     C3  11050 0.15592700  12.010000   ; qtot 0.374805
11051         c3    414    ccc     C4  11051 0.28383300  12.010000   ; qtot 0.658638
11052         c3    414    ccc     C5  11052 0.32403300  12.010000   ; qtot 0.982671
11053         h1    414    ccc     H3  11053 0.13386900   1.008000   ; qtot 1.116540
11054         h1    414    ccc     H4  11054 0.10146700   1.008000   ; qtot 1.218007
11055         h2    414    ccc     H5  11055 0.10960400   1.008000   ; qtot 1.327611
11056         os    414    ccc     O1  11056 -0.28650000  16.000000   ; qtot 1.041111
11057         oh    414    ccc     O2  11057 -0.86012500  16.000000   ; qtot 0.180986
11058         oh    414    ccc     O3  11058 -0.83772800  16.000000   ; qtot -0.656742
11059         oh    414    ccc     O4  11059 -0.77449700  16.000000   ; qtot -1.431239
11060         c3    414    ccc     C6  11060 0.37576500  12.010000   ; qtot -1.055474
11061         ho    414    ccc     H6  11061 0.53656000   1.008000   ; qtot -0.518914
11062         ho    414    ccc     H7  11062 0.49492100   1.008000   ; qtot -0.023993
11063         ho    414    ccc     H8  11063 0.51297200   1.008000   ; qtot 0.488979
11064         h1    414    ccc     H9  11064 0.05653400   1.008000   ; qtot 0.545513
11065         h1    414    ccc    H10  11065 0.05653400   1.008000   ; qtot 0.602047
11066         oh    414    ccc     O5  11066 -0.84113600  16.000000   ; qtot -0.239089
11067         ho    414    ccc    H11  11067 0.51201600   1.008000   ; qtot 0.272927
11068         os    414    ccc     O6  11068 -0.26013600  16.000000   ; qtot 0.012791
; residue  415 ccc rtp ccc q 0.0
11069         c3    415    ccc     C1  11069 -0.33178800  12.010000   ; qtot -0.318997
11070         c3    415    ccc     C2  11070 0.30606500  12.010000   ; qtot -0.012932
11071         h1    415    ccc     H1  11071 0.11662300   1.008000   ; qtot 0.103691
11072         h1    415    ccc     H2  11072 0.11526800   1.008000   ; qtot 0.218959
11073         c3    415    ccc     C3  11073 0.15592700  12.010000   ; qtot 0.374886
11074         c3    415    ccc     C4  11074 0.28383300  12.010000   ; qtot 0.658719
11075         c3    415    ccc     C5  11075 0.32403300  12.010000   ; qtot 0.982752
11076         h1    415    ccc     H3  11076 0.13386900   1.008000   ; qtot 1.116621
11077         h1    415    ccc     H4  11077 0.10146700   1.008000   ; qtot 1.218088
11078         h2    415    ccc     H5  11078 0.10960400   1.008000   ; qtot 1.327692
11079         os    415    ccc     O1  11079 -0.28650000  16.000000   ; qtot 1.041192
11080         oh    415    ccc     O2  11080 -0.86012500  16.000000   ; qtot 0.181067
11081         oh    415    ccc     O3  11081 -0.83772800  16.000000   ; qtot -0.656661
11082         oh    415    ccc     O4  11082 -0.77449700  16.000000   ; qtot -1.431158
11083         c3    415    ccc     C6  11083 0.37576500  12.010000   ; qtot -1.055393
11084         ho    415    ccc     H6  11084 0.53656000   1.008000   ; qtot -0.518833
11085         ho    415    ccc     H7  11085 0.49492100   1.008000   ; qtot -0.023912
11086         ho    415    ccc     H8  11086 0.51297200   1.008000   ; qtot 0.489060
11087         h1    415    ccc     H9  11087 0.05653400   1.008000   ; qtot 0.545594
11088         h1    415    ccc    H10  11088 0.05653400   1.008000   ; qtot 0.602128
11089         oh    415    ccc     O5  11089 -0.84113600  16.000000   ; qtot -0.239008
11090         ho    415    ccc    H11  11090 0.51201600   1.008000   ; qtot 0.273008
11091         os    415    ccc     O6  11091 -0.26013600  16.000000   ; qtot 0.012872
; residue  416 ccc rtp ccc q 0.0
11092         c3    416    ccc     C1  11092 -0.33178800  12.010000   ; qtot -0.318916
11093         c3    416    ccc     C2  11093 0.30606500  12.010000   ; qtot -0.012851
11094         h1    416    ccc     H1  11094 0.11662300   1.008000   ; qtot 0.103772
11095         h1    416    ccc     H2  11095 0.11526800   1.008000   ; qtot 0.219040
11096         c3    416    ccc     C3  11096 0.15592700  12.010000   ; qtot 0.374967
11097         c3    416    ccc     C4  11097 0.28383300  12.010000   ; qtot 0.658800
11098         c3    416    ccc     C5  11098 0.32403300  12.010000   ; qtot 0.982833
11099         h1    416    ccc     H3  11099 0.13386900   1.008000   ; qtot 1.116702
11100         h1    416    ccc     H4  11100 0.10146700   1.008000   ; qtot 1.218169
11101         h2    416    ccc     H5  11101 0.10960400   1.008000   ; qtot 1.327773
11102         os    416    ccc     O1  11102 -0.28650000  16.000000   ; qtot 1.041273
11103         oh    416    ccc     O2  11103 -0.86012500  16.000000   ; qtot 0.181148
11104         oh    416    ccc     O3  11104 -0.83772800  16.000000   ; qtot -0.656580
11105         oh    416    ccc     O4  11105 -0.77449700  16.000000   ; qtot -1.431077
11106         c3    416    ccc     C6  11106 0.37576500  12.010000   ; qtot -1.055312
11107         ho    416    ccc     H6  11107 0.53656000   1.008000   ; qtot -0.518752
11108         ho    416    ccc     H7  11108 0.49492100   1.008000   ; qtot -0.023831
11109         ho    416    ccc     H8  11109 0.51297200   1.008000   ; qtot 0.489141
11110         h1    416    ccc     H9  11110 0.05653400   1.008000   ; qtot 0.545675
11111         h1    416    ccc    H10  11111 0.05653400   1.008000   ; qtot 0.602209
11112         oh    416    ccc     O5  11112 -0.84113600  16.000000   ; qtot -0.238927
11113         ho    416    ccc    H11  11113 0.51201600   1.008000   ; qtot 0.273089
11114         os    416    ccc     O6  11114 -0.26013600  16.000000   ; qtot 0.012953
; residue  417 ccc rtp ccc q 0.0
11115         c3    417    ccc     C1  11115 -0.33178800  12.010000   ; qtot -0.318835
11116         c3    417    ccc     C2  11116 0.30606500  12.010000   ; qtot -0.012770
11117         h1    417    ccc     H1  11117 0.11662300   1.008000   ; qtot 0.103853
11118         h1    417    ccc     H2  11118 0.11526800   1.008000   ; qtot 0.219121
11119         c3    417    ccc     C3  11119 0.15592700  12.010000   ; qtot 0.375048
11120         c3    417    ccc     C4  11120 0.28383300  12.010000   ; qtot 0.658881
11121         c3    417    ccc     C5  11121 0.32403300  12.010000   ; qtot 0.982914
11122         h1    417    ccc     H3  11122 0.13386900   1.008000   ; qtot 1.116783
11123         h1    417    ccc     H4  11123 0.10146700   1.008000   ; qtot 1.218250
11124         h2    417    ccc     H5  11124 0.10960400   1.008000   ; qtot 1.327854
11125         os    417    ccc     O1  11125 -0.28650000  16.000000   ; qtot 1.041354
11126         oh    417    ccc     O2  11126 -0.86012500  16.000000   ; qtot 0.181229
11127         oh    417    ccc     O3  11127 -0.83772800  16.000000   ; qtot -0.656499
11128         oh    417    ccc     O4  11128 -0.77449700  16.000000   ; qtot -1.430996
11129         c3    417    ccc     C6  11129 0.37576500  12.010000   ; qtot -1.055231
11130         ho    417    ccc     H6  11130 0.53656000   1.008000   ; qtot -0.518671
11131         ho    417    ccc     H7  11131 0.49492100   1.008000   ; qtot -0.023750
11132         ho    417    ccc     H8  11132 0.51297200   1.008000   ; qtot 0.489222
11133         h1    417    ccc     H9  11133 0.05653400   1.008000   ; qtot 0.545756
11134         h1    417    ccc    H10  11134 0.05653400   1.008000   ; qtot 0.602290
11135         oh    417    ccc     O5  11135 -0.84113600  16.000000   ; qtot -0.238846
11136         ho    417    ccc    H11  11136 0.51201600   1.008000   ; qtot 0.273170
11137         os    417    ccc     O6  11137 -0.26013600  16.000000   ; qtot 0.013034
; residue  418 ccc rtp ccc q 0.0
11138         c3    418    ccc     C1  11138 -0.33178800  12.010000   ; qtot -0.318754
11139         c3    418    ccc     C2  11139 0.30606500  12.010000   ; qtot -0.012689
11140         h1    418    ccc     H1  11140 0.11662300   1.008000   ; qtot 0.103934
11141         h1    418    ccc     H2  11141 0.11526800   1.008000   ; qtot 0.219202
11142         c3    418    ccc     C3  11142 0.15592700  12.010000   ; qtot 0.375129
11143         c3    418    ccc     C4  11143 0.28383300  12.010000   ; qtot 0.658962
11144         c3    418    ccc     C5  11144 0.32403300  12.010000   ; qtot 0.982995
11145         h1    418    ccc     H3  11145 0.13386900   1.008000   ; qtot 1.116864
11146         h1    418    ccc     H4  11146 0.10146700   1.008000   ; qtot 1.218331
11147         h2    418    ccc     H5  11147 0.10960400   1.008000   ; qtot 1.327935
11148         os    418    ccc     O1  11148 -0.28650000  16.000000   ; qtot 1.041435
11149         oh    418    ccc     O2  11149 -0.86012500  16.000000   ; qtot 0.181310
11150         oh    418    ccc     O3  11150 -0.83772800  16.000000   ; qtot -0.656418
11151         oh    418    ccc     O4  11151 -0.77449700  16.000000   ; qtot -1.430915
11152         c3    418    ccc     C6  11152 0.37576500  12.010000   ; qtot -1.055150
11153         ho    418    ccc     H6  11153 0.53656000   1.008000   ; qtot -0.518590
11154         ho    418    ccc     H7  11154 0.49492100   1.008000   ; qtot -0.023669
11155         ho    418    ccc     H8  11155 0.51297200   1.008000   ; qtot 0.489303
11156         h1    418    ccc     H9  11156 0.05653400   1.008000   ; qtot 0.545837
11157         h1    418    ccc    H10  11157 0.05653400   1.008000   ; qtot 0.602371
11158         oh    418    ccc     O5  11158 -0.84113600  16.000000   ; qtot -0.238765
11159         ho    418    ccc    H11  11159 0.51201600   1.008000   ; qtot 0.273251
11160         os    418    ccc     O6  11160 -0.26013600  16.000000   ; qtot 0.013115
; residue  419 ccc rtp ccc q 0.0
11161         c3    419    ccc     C1  11161 -0.33178800  12.010000   ; qtot -0.318673
11162         c3    419    ccc     C2  11162 0.30606500  12.010000   ; qtot -0.012608
11163         h1    419    ccc     H1  11163 0.11662300   1.008000   ; qtot 0.104015
11164         h1    419    ccc     H2  11164 0.11526800   1.008000   ; qtot 0.219283
11165         c3    419    ccc     C3  11165 0.15592700  12.010000   ; qtot 0.375210
11166         c3    419    ccc     C4  11166 0.28383300  12.010000   ; qtot 0.659043
11167         c3    419    ccc     C5  11167 0.32403300  12.010000   ; qtot 0.983076
11168         h1    419    ccc     H3  11168 0.13386900   1.008000   ; qtot 1.116945
11169         h1    419    ccc     H4  11169 0.10146700   1.008000   ; qtot 1.218412
11170         h2    419    ccc     H5  11170 0.10960400   1.008000   ; qtot 1.328016
11171         os    419    ccc     O1  11171 -0.28650000  16.000000   ; qtot 1.041516
11172         oh    419    ccc     O2  11172 -0.86012500  16.000000   ; qtot 0.181391
11173         oh    419    ccc     O3  11173 -0.83772800  16.000000   ; qtot -0.656337
11174         oh    419    ccc     O4  11174 -0.77449700  16.000000   ; qtot -1.430834
11175         c3    419    ccc     C6  11175 0.37576500  12.010000   ; qtot -1.055069
11176         ho    419    ccc     H6  11176 0.53656000   1.008000   ; qtot -0.518509
11177         ho    419    ccc     H7  11177 0.49492100   1.008000   ; qtot -0.023588
11178         ho    419    ccc     H8  11178 0.51297200   1.008000   ; qtot 0.489384
11179         h1    419    ccc     H9  11179 0.05653400   1.008000   ; qtot 0.545918
11180         h1    419    ccc    H10  11180 0.05653400   1.008000   ; qtot 0.602452
11181         oh    419    ccc     O5  11181 -0.84113600  16.000000   ; qtot -0.238684
11182         ho    419    ccc    H11  11182 0.51201600   1.008000   ; qtot 0.273332
11183         os    419    ccc     O6  11183 -0.26013600  16.000000   ; qtot 0.013196
; residue  420 ccc rtp ccc q 0.0
11184         c3    420    ccc     C1  11184 -0.33178800  12.010000   ; qtot -0.318592
11185         c3    420    ccc     C2  11185 0.30606500  12.010000   ; qtot -0.012527
11186         h1    420    ccc     H1  11186 0.11662300   1.008000   ; qtot 0.104096
11187         h1    420    ccc     H2  11187 0.11526800   1.008000   ; qtot 0.219364
11188         c3    420    ccc     C3  11188 0.15592700  12.010000   ; qtot 0.375291
11189         c3    420    ccc     C4  11189 0.28383300  12.010000   ; qtot 0.659124
11190         c3    420    ccc     C5  11190 0.32403300  12.010000   ; qtot 0.983157
11191         h1    420    ccc     H3  11191 0.13386900   1.008000   ; qtot 1.117026
11192         h1    420    ccc     H4  11192 0.10146700   1.008000   ; qtot 1.218493
11193         h2    420    ccc     H5  11193 0.10960400   1.008000   ; qtot 1.328097
11194         os    420    ccc     O1  11194 -0.28650000  16.000000   ; qtot 1.041597
11195         oh    420    ccc     O2  11195 -0.86012500  16.000000   ; qtot 0.181472
11196         oh    420    ccc     O3  11196 -0.83772800  16.000000   ; qtot -0.656256
11197         oh    420    ccc     O4  11197 -0.77449700  16.000000   ; qtot -1.430753
11198         c3    420    ccc     C6  11198 0.37576500  12.010000   ; qtot -1.054988
11199         ho    420    ccc     H6  11199 0.53656000   1.008000   ; qtot -0.518428
11200         ho    420    ccc     H7  11200 0.49492100   1.008000   ; qtot -0.023507
11201         ho    420    ccc     H8  11201 0.51297200   1.008000   ; qtot 0.489465
11202         h1    420    ccc     H9  11202 0.05653400   1.008000   ; qtot 0.545999
11203         h1    420    ccc    H10  11203 0.05653400   1.008000   ; qtot 0.602533
11204         oh    420    ccc     O5  11204 -0.84113600  16.000000   ; qtot -0.238603
11205         ho    420    ccc    H11  11205 0.51201600   1.008000   ; qtot 0.273413
11206         os    420    ccc     O6  11206 -0.26013600  16.000000   ; qtot 0.013277
; residue  421 ccc rtp ccc q 0.0
11207         c3    421    ccc     C1  11207 -0.33178800  12.010000   ; qtot -0.318511
11208         c3    421    ccc     C2  11208 0.30606500  12.010000   ; qtot -0.012446
11209         h1    421    ccc     H1  11209 0.11662300   1.008000   ; qtot 0.104177
11210         h1    421    ccc     H2  11210 0.11526800   1.008000   ; qtot 0.219445
11211         c3    421    ccc     C3  11211 0.15592700  12.010000   ; qtot 0.375372
11212         c3    421    ccc     C4  11212 0.28383300  12.010000   ; qtot 0.659205
11213         c3    421    ccc     C5  11213 0.32403300  12.010000   ; qtot 0.983238
11214         h1    421    ccc     H3  11214 0.13386900   1.008000   ; qtot 1.117107
11215         h1    421    ccc     H4  11215 0.10146700   1.008000   ; qtot 1.218574
11216         h2    421    ccc     H5  11216 0.10960400   1.008000   ; qtot 1.328178
11217         os    421    ccc     O1  11217 -0.28650000  16.000000   ; qtot 1.041678
11218         oh    421    ccc     O2  11218 -0.86012500  16.000000   ; qtot 0.181553
11219         oh    421    ccc     O3  11219 -0.83772800  16.000000   ; qtot -0.656175
11220         oh    421    ccc     O4  11220 -0.77449700  16.000000   ; qtot -1.430672
11221         c3    421    ccc     C6  11221 0.37576500  12.010000   ; qtot -1.054907
11222         ho    421    ccc     H6  11222 0.53656000   1.008000   ; qtot -0.518347
11223         ho    421    ccc     H7  11223 0.49492100   1.008000   ; qtot -0.023426
11224         ho    421    ccc     H8  11224 0.51297200   1.008000   ; qtot 0.489546
11225         h1    421    ccc     H9  11225 0.05653400   1.008000   ; qtot 0.546080
11226         h1    421    ccc    H10  11226 0.05653400   1.008000   ; qtot 0.602614
11227         oh    421    ccc     O5  11227 -0.84113600  16.000000   ; qtot -0.238522
11228         ho    421    ccc    H11  11228 0.51201600   1.008000   ; qtot 0.273494
11229         os    421    ccc     O6  11229 -0.26013600  16.000000   ; qtot 0.013358
; residue  422 ccc rtp ccc q 0.0
11230         c3    422    ccc     C1  11230 -0.33178800  12.010000   ; qtot -0.318430
11231         c3    422    ccc     C2  11231 0.30606500  12.010000   ; qtot -0.012365
11232         h1    422    ccc     H1  11232 0.11662300   1.008000   ; qtot 0.104258
11233         h1    422    ccc     H2  11233 0.11526800   1.008000   ; qtot 0.219526
11234         c3    422    ccc     C3  11234 0.15592700  12.010000   ; qtot 0.375453
11235         c3    422    ccc     C4  11235 0.28383300  12.010000   ; qtot 0.659286
11236         c3    422    ccc     C5  11236 0.32403300  12.010000   ; qtot 0.983319
11237         h1    422    ccc     H3  11237 0.13386900   1.008000   ; qtot 1.117188
11238         h1    422    ccc     H4  11238 0.10146700   1.008000   ; qtot 1.218655
11239         h2    422    ccc     H5  11239 0.10960400   1.008000   ; qtot 1.328259
11240         os    422    ccc     O1  11240 -0.28650000  16.000000   ; qtot 1.041759
11241         oh    422    ccc     O2  11241 -0.86012500  16.000000   ; qtot 0.181634
11242         oh    422    ccc     O3  11242 -0.83772800  16.000000   ; qtot -0.656094
11243         oh    422    ccc     O4  11243 -0.77449700  16.000000   ; qtot -1.430591
11244         c3    422    ccc     C6  11244 0.37576500  12.010000   ; qtot -1.054826
11245         ho    422    ccc     H6  11245 0.53656000   1.008000   ; qtot -0.518266
11246         ho    422    ccc     H7  11246 0.49492100   1.008000   ; qtot -0.023345
11247         ho    422    ccc     H8  11247 0.51297200   1.008000   ; qtot 0.489627
11248         h1    422    ccc     H9  11248 0.05653400   1.008000   ; qtot 0.546161
11249         h1    422    ccc    H10  11249 0.05653400   1.008000   ; qtot 0.602695
11250         oh    422    ccc     O5  11250 -0.84113600  16.000000   ; qtot -0.238441
11251         ho    422    ccc    H11  11251 0.51201600   1.008000   ; qtot 0.273575
11252         os    422    ccc     O6  11252 -0.26013600  16.000000   ; qtot 0.013439
; residue  423 ccc rtp ccc q 0.0
11253         c3    423    ccc     C1  11253 -0.33178800  12.010000   ; qtot -0.318349
11254         c3    423    ccc     C2  11254 0.30606500  12.010000   ; qtot -0.012284
11255         h1    423    ccc     H1  11255 0.11662300   1.008000   ; qtot 0.104339
11256         h1    423    ccc     H2  11256 0.11526800   1.008000   ; qtot 0.219607
11257         c3    423    ccc     C3  11257 0.15592700  12.010000   ; qtot 0.375534
11258         c3    423    ccc     C4  11258 0.28383300  12.010000   ; qtot 0.659367
11259         c3    423    ccc     C5  11259 0.32403300  12.010000   ; qtot 0.983400
11260         h1    423    ccc     H3  11260 0.13386900   1.008000   ; qtot 1.117269
11261         h1    423    ccc     H4  11261 0.10146700   1.008000   ; qtot 1.218736
11262         h2    423    ccc     H5  11262 0.10960400   1.008000   ; qtot 1.328340
11263         os    423    ccc     O1  11263 -0.28650000  16.000000   ; qtot 1.041840
11264         oh    423    ccc     O2  11264 -0.86012500  16.000000   ; qtot 0.181715
11265         oh    423    ccc     O3  11265 -0.83772800  16.000000   ; qtot -0.656013
11266         oh    423    ccc     O4  11266 -0.77449700  16.000000   ; qtot -1.430510
11267         c3    423    ccc     C6  11267 0.37576500  12.010000   ; qtot -1.054745
11268         ho    423    ccc     H6  11268 0.53656000   1.008000   ; qtot -0.518185
11269         ho    423    ccc     H7  11269 0.49492100   1.008000   ; qtot -0.023264
11270         ho    423    ccc     H8  11270 0.51297200   1.008000   ; qtot 0.489708
11271         h1    423    ccc     H9  11271 0.05653400   1.008000   ; qtot 0.546242
11272         h1    423    ccc    H10  11272 0.05653400   1.008000   ; qtot 0.602776
11273         oh    423    ccc     O5  11273 -0.84113600  16.000000   ; qtot -0.238360
11274         ho    423    ccc    H11  11274 0.51201600   1.008000   ; qtot 0.273656
11275         os    423    ccc     O6  11275 -0.26013600  16.000000   ; qtot 0.013520
; residue  424 ccc rtp ccc q 0.0
11276         c3    424    ccc     C1  11276 -0.33178800  12.010000   ; qtot -0.318268
11277         c3    424    ccc     C2  11277 0.30606500  12.010000   ; qtot -0.012203
11278         h1    424    ccc     H1  11278 0.11662300   1.008000   ; qtot 0.104420
11279         h1    424    ccc     H2  11279 0.11526800   1.008000   ; qtot 0.219688
11280         c3    424    ccc     C3  11280 0.15592700  12.010000   ; qtot 0.375615
11281         c3    424    ccc     C4  11281 0.28383300  12.010000   ; qtot 0.659448
11282         c3    424    ccc     C5  11282 0.32403300  12.010000   ; qtot 0.983481
11283         h1    424    ccc     H3  11283 0.13386900   1.008000   ; qtot 1.117350
11284         h1    424    ccc     H4  11284 0.10146700   1.008000   ; qtot 1.218817
11285         h2    424    ccc     H5  11285 0.10960400   1.008000   ; qtot 1.328421
11286         os    424    ccc     O1  11286 -0.28650000  16.000000   ; qtot 1.041921
11287         oh    424    ccc     O2  11287 -0.86012500  16.000000   ; qtot 0.181796
11288         oh    424    ccc     O3  11288 -0.83772800  16.000000   ; qtot -0.655932
11289         oh    424    ccc     O4  11289 -0.77449700  16.000000   ; qtot -1.430429
11290         c3    424    ccc     C6  11290 0.37576500  12.010000   ; qtot -1.054664
11291         ho    424    ccc     H6  11291 0.53656000   1.008000   ; qtot -0.518104
11292         ho    424    ccc     H7  11292 0.49492100   1.008000   ; qtot -0.023183
11293         ho    424    ccc     H8  11293 0.51297200   1.008000   ; qtot 0.489789
11294         h1    424    ccc     H9  11294 0.05653400   1.008000   ; qtot 0.546323
11295         h1    424    ccc    H10  11295 0.05653400   1.008000   ; qtot 0.602857
11296         oh    424    ccc     O5  11296 -0.84113600  16.000000   ; qtot -0.238279
11297         ho    424    ccc    H11  11297 0.51201600   1.008000   ; qtot 0.273737
11298         os    424    ccc     O6  11298 -0.26013600  16.000000   ; qtot 0.013601
; residue  425 ccc rtp ccc q 0.0
11299         c3    425    ccc     C1  11299 -0.33178800  12.010000   ; qtot -0.318187
11300         c3    425    ccc     C2  11300 0.30606500  12.010000   ; qtot -0.012122
11301         h1    425    ccc     H1  11301 0.11662300   1.008000   ; qtot 0.104501
11302         h1    425    ccc     H2  11302 0.11526800   1.008000   ; qtot 0.219769
11303         c3    425    ccc     C3  11303 0.15592700  12.010000   ; qtot 0.375696
11304         c3    425    ccc     C4  11304 0.28383300  12.010000   ; qtot 0.659529
11305         c3    425    ccc     C5  11305 0.32403300  12.010000   ; qtot 0.983562
11306         h1    425    ccc     H3  11306 0.13386900   1.008000   ; qtot 1.117431
11307         h1    425    ccc     H4  11307 0.10146700   1.008000   ; qtot 1.218898
11308         h2    425    ccc     H5  11308 0.10960400   1.008000   ; qtot 1.328502
11309         os    425    ccc     O1  11309 -0.28650000  16.000000   ; qtot 1.042002
11310         oh    425    ccc     O2  11310 -0.86012500  16.000000   ; qtot 0.181877
11311         oh    425    ccc     O3  11311 -0.83772800  16.000000   ; qtot -0.655851
11312         oh    425    ccc     O4  11312 -0.77449700  16.000000   ; qtot -1.430348
11313         c3    425    ccc     C6  11313 0.37576500  12.010000   ; qtot -1.054583
11314         ho    425    ccc     H6  11314 0.53656000   1.008000   ; qtot -0.518023
11315         ho    425    ccc     H7  11315 0.49492100   1.008000   ; qtot -0.023102
11316         ho    425    ccc     H8  11316 0.51297200   1.008000   ; qtot 0.489870
11317         h1    425    ccc     H9  11317 0.05653400   1.008000   ; qtot 0.546404
11318         h1    425    ccc    H10  11318 0.05653400   1.008000   ; qtot 0.602938
11319         oh    425    ccc     O5  11319 -0.84113600  16.000000   ; qtot -0.238198
11320         ho    425    ccc    H11  11320 0.51201600   1.008000   ; qtot 0.273818
11321         os    425    ccc     O6  11321 -0.26013600  16.000000   ; qtot 0.013682
; residue  426 ccc rtp ccc q 0.0
11322         c3    426    ccc     C1  11322 -0.33178800  12.010000   ; qtot -0.318106
11323         c3    426    ccc     C2  11323 0.30606500  12.010000   ; qtot -0.012041
11324         h1    426    ccc     H1  11324 0.11662300   1.008000   ; qtot 0.104582
11325         h1    426    ccc     H2  11325 0.11526800   1.008000   ; qtot 0.219850
11326         c3    426    ccc     C3  11326 0.15592700  12.010000   ; qtot 0.375777
11327         c3    426    ccc     C4  11327 0.28383300  12.010000   ; qtot 0.659610
11328         c3    426    ccc     C5  11328 0.32403300  12.010000   ; qtot 0.983643
11329         h1    426    ccc     H3  11329 0.13386900   1.008000   ; qtot 1.117512
11330         h1    426    ccc     H4  11330 0.10146700   1.008000   ; qtot 1.218979
11331         h2    426    ccc     H5  11331 0.10960400   1.008000   ; qtot 1.328583
11332         os    426    ccc     O1  11332 -0.28650000  16.000000   ; qtot 1.042083
11333         oh    426    ccc     O2  11333 -0.86012500  16.000000   ; qtot 0.181958
11334         oh    426    ccc     O3  11334 -0.83772800  16.000000   ; qtot -0.655770
11335         oh    426    ccc     O4  11335 -0.77449700  16.000000   ; qtot -1.430267
11336         c3    426    ccc     C6  11336 0.37576500  12.010000   ; qtot -1.054502
11337         ho    426    ccc     H6  11337 0.53656000   1.008000   ; qtot -0.517942
11338         ho    426    ccc     H7  11338 0.49492100   1.008000   ; qtot -0.023021
11339         ho    426    ccc     H8  11339 0.51297200   1.008000   ; qtot 0.489951
11340         h1    426    ccc     H9  11340 0.05653400   1.008000   ; qtot 0.546485
11341         h1    426    ccc    H10  11341 0.05653400   1.008000   ; qtot 0.603019
11342         oh    426    ccc     O5  11342 -0.84113600  16.000000   ; qtot -0.238117
11343         ho    426    ccc    H11  11343 0.51201600   1.008000   ; qtot 0.273899
11344         os    426    ccc     O6  11344 -0.26013600  16.000000   ; qtot 0.013763
; residue  427 ccc rtp ccc q 0.0
11345         c3    427    ccc     C1  11345 -0.33178800  12.010000   ; qtot -0.318025
11346         c3    427    ccc     C2  11346 0.30606500  12.010000   ; qtot -0.011960
11347         h1    427    ccc     H1  11347 0.11662300   1.008000   ; qtot 0.104663
11348         h1    427    ccc     H2  11348 0.11526800   1.008000   ; qtot 0.219931
11349         c3    427    ccc     C3  11349 0.15592700  12.010000   ; qtot 0.375858
11350         c3    427    ccc     C4  11350 0.28383300  12.010000   ; qtot 0.659691
11351         c3    427    ccc     C5  11351 0.32403300  12.010000   ; qtot 0.983724
11352         h1    427    ccc     H3  11352 0.13386900   1.008000   ; qtot 1.117593
11353         h1    427    ccc     H4  11353 0.10146700   1.008000   ; qtot 1.219060
11354         h2    427    ccc     H5  11354 0.10960400   1.008000   ; qtot 1.328664
11355         os    427    ccc     O1  11355 -0.28650000  16.000000   ; qtot 1.042164
11356         oh    427    ccc     O2  11356 -0.86012500  16.000000   ; qtot 0.182039
11357         oh    427    ccc     O3  11357 -0.83772800  16.000000   ; qtot -0.655689
11358         oh    427    ccc     O4  11358 -0.77449700  16.000000   ; qtot -1.430186
11359         c3    427    ccc     C6  11359 0.37576500  12.010000   ; qtot -1.054421
11360         ho    427    ccc     H6  11360 0.53656000   1.008000   ; qtot -0.517861
11361         ho    427    ccc     H7  11361 0.49492100   1.008000   ; qtot -0.022940
11362         ho    427    ccc     H8  11362 0.51297200   1.008000   ; qtot 0.490032
11363         h1    427    ccc     H9  11363 0.05653400   1.008000   ; qtot 0.546566
11364         h1    427    ccc    H10  11364 0.05653400   1.008000   ; qtot 0.603100
11365         oh    427    ccc     O5  11365 -0.84113600  16.000000   ; qtot -0.238036
11366         ho    427    ccc    H11  11366 0.51201600   1.008000   ; qtot 0.273980
11367         os    427    ccc     O6  11367 -0.26013600  16.000000   ; qtot 0.013844
; residue  428 ccc rtp ccc q 0.0
11368         c3    428    ccc     C1  11368 -0.33178800  12.010000   ; qtot -0.317944
11369         c3    428    ccc     C2  11369 0.30606500  12.010000   ; qtot -0.011879
11370         h1    428    ccc     H1  11370 0.11662300   1.008000   ; qtot 0.104744
11371         h1    428    ccc     H2  11371 0.11526800   1.008000   ; qtot 0.220012
11372         c3    428    ccc     C3  11372 0.15592700  12.010000   ; qtot 0.375939
11373         c3    428    ccc     C4  11373 0.28383300  12.010000   ; qtot 0.659772
11374         c3    428    ccc     C5  11374 0.32403300  12.010000   ; qtot 0.983805
11375         h1    428    ccc     H3  11375 0.13386900   1.008000   ; qtot 1.117674
11376         h1    428    ccc     H4  11376 0.10146700   1.008000   ; qtot 1.219141
11377         h2    428    ccc     H5  11377 0.10960400   1.008000   ; qtot 1.328745
11378         os    428    ccc     O1  11378 -0.28650000  16.000000   ; qtot 1.042245
11379         oh    428    ccc     O2  11379 -0.86012500  16.000000   ; qtot 0.182120
11380         oh    428    ccc     O3  11380 -0.83772800  16.000000   ; qtot -0.655608
11381         oh    428    ccc     O4  11381 -0.77449700  16.000000   ; qtot -1.430105
11382         c3    428    ccc     C6  11382 0.37576500  12.010000   ; qtot -1.054340
11383         ho    428    ccc     H6  11383 0.53656000   1.008000   ; qtot -0.517780
11384         ho    428    ccc     H7  11384 0.49492100   1.008000   ; qtot -0.022859
11385         ho    428    ccc     H8  11385 0.51297200   1.008000   ; qtot 0.490113
11386         h1    428    ccc     H9  11386 0.05653400   1.008000   ; qtot 0.546647
11387         h1    428    ccc    H10  11387 0.05653400   1.008000   ; qtot 0.603181
11388         oh    428    ccc     O5  11388 -0.84113600  16.000000   ; qtot -0.237955
11389         ho    428    ccc    H11  11389 0.51201600   1.008000   ; qtot 0.274061
11390         os    428    ccc     O6  11390 -0.26013600  16.000000   ; qtot 0.013925
; residue  429 ccc rtp ccc q 0.0
11391         c3    429    ccc     C1  11391 -0.33178800  12.010000   ; qtot -0.317863
11392         c3    429    ccc     C2  11392 0.30606500  12.010000   ; qtot -0.011798
11393         h1    429    ccc     H1  11393 0.11662300   1.008000   ; qtot 0.104825
11394         h1    429    ccc     H2  11394 0.11526800   1.008000   ; qtot 0.220093
11395         c3    429    ccc     C3  11395 0.15592700  12.010000   ; qtot 0.376020
11396         c3    429    ccc     C4  11396 0.28383300  12.010000   ; qtot 0.659853
11397         c3    429    ccc     C5  11397 0.32403300  12.010000   ; qtot 0.983886
11398         h1    429    ccc     H3  11398 0.13386900   1.008000   ; qtot 1.117755
11399         h1    429    ccc     H4  11399 0.10146700   1.008000   ; qtot 1.219222
11400         h2    429    ccc     H5  11400 0.10960400   1.008000   ; qtot 1.328826
11401         os    429    ccc     O1  11401 -0.28650000  16.000000   ; qtot 1.042326
11402         oh    429    ccc     O2  11402 -0.86012500  16.000000   ; qtot 0.182201
11403         oh    429    ccc     O3  11403 -0.83772800  16.000000   ; qtot -0.655527
11404         oh    429    ccc     O4  11404 -0.77449700  16.000000   ; qtot -1.430024
11405         c3    429    ccc     C6  11405 0.37576500  12.010000   ; qtot -1.054259
11406         ho    429    ccc     H6  11406 0.53656000   1.008000   ; qtot -0.517699
11407         ho    429    ccc     H7  11407 0.49492100   1.008000   ; qtot -0.022778
11408         ho    429    ccc     H8  11408 0.51297200   1.008000   ; qtot 0.490194
11409         h1    429    ccc     H9  11409 0.05653400   1.008000   ; qtot 0.546728
11410         h1    429    ccc    H10  11410 0.05653400   1.008000   ; qtot 0.603262
11411         oh    429    ccc     O5  11411 -0.84113600  16.000000   ; qtot -0.237874
11412         ho    429    ccc    H11  11412 0.51201600   1.008000   ; qtot 0.274142
11413         os    429    ccc     O6  11413 -0.26013600  16.000000   ; qtot 0.014006
; residue  430 ccc rtp ccc q 0.0
11414         c3    430    ccc     C1  11414 -0.33178800  12.010000   ; qtot -0.317782
11415         c3    430    ccc     C2  11415 0.30606500  12.010000   ; qtot -0.011717
11416         h1    430    ccc     H1  11416 0.11662300   1.008000   ; qtot 0.104906
11417         h1    430    ccc     H2  11417 0.11526800   1.008000   ; qtot 0.220174
11418         c3    430    ccc     C3  11418 0.15592700  12.010000   ; qtot 0.376101
11419         c3    430    ccc     C4  11419 0.28383300  12.010000   ; qtot 0.659934
11420         c3    430    ccc     C5  11420 0.32403300  12.010000   ; qtot 0.983967
11421         h1    430    ccc     H3  11421 0.13386900   1.008000   ; qtot 1.117836
11422         h1    430    ccc     H4  11422 0.10146700   1.008000   ; qtot 1.219303
11423         h2    430    ccc     H5  11423 0.10960400   1.008000   ; qtot 1.328907
11424         os    430    ccc     O1  11424 -0.28650000  16.000000   ; qtot 1.042407
11425         oh    430    ccc     O2  11425 -0.86012500  16.000000   ; qtot 0.182282
11426         oh    430    ccc     O3  11426 -0.83772800  16.000000   ; qtot -0.655446
11427         oh    430    ccc     O4  11427 -0.77449700  16.000000   ; qtot -1.429943
11428         c3    430    ccc     C6  11428 0.37576500  12.010000   ; qtot -1.054178
11429         ho    430    ccc     H6  11429 0.53656000   1.008000   ; qtot -0.517618
11430         ho    430    ccc     H7  11430 0.49492100   1.008000   ; qtot -0.022697
11431         ho    430    ccc     H8  11431 0.51297200   1.008000   ; qtot 0.490275
11432         h1    430    ccc     H9  11432 0.05653400   1.008000   ; qtot 0.546809
11433         h1    430    ccc    H10  11433 0.05653400   1.008000   ; qtot 0.603343
11434         oh    430    ccc     O5  11434 -0.84113600  16.000000   ; qtot -0.237793
11435         ho    430    ccc    H11  11435 0.51201600   1.008000   ; qtot 0.274223
11436         os    430    ccc     O6  11436 -0.26013600  16.000000   ; qtot 0.014087
; residue  431 ccc rtp ccc q 0.0
11437         c3    431    ccc     C1  11437 -0.33178800  12.010000   ; qtot -0.317701
11438         c3    431    ccc     C2  11438 0.30606500  12.010000   ; qtot -0.011636
11439         h1    431    ccc     H1  11439 0.11662300   1.008000   ; qtot 0.104987
11440         h1    431    ccc     H2  11440 0.11526800   1.008000   ; qtot 0.220255
11441         c3    431    ccc     C3  11441 0.15592700  12.010000   ; qtot 0.376182
11442         c3    431    ccc     C4  11442 0.28383300  12.010000   ; qtot 0.660015
11443         c3    431    ccc     C5  11443 0.32403300  12.010000   ; qtot 0.984048
11444         h1    431    ccc     H3  11444 0.13386900   1.008000   ; qtot 1.117917
11445         h1    431    ccc     H4  11445 0.10146700   1.008000   ; qtot 1.219384
11446         h2    431    ccc     H5  11446 0.10960400   1.008000   ; qtot 1.328988
11447         os    431    ccc     O1  11447 -0.28650000  16.000000   ; qtot 1.042488
11448         oh    431    ccc     O2  11448 -0.86012500  16.000000   ; qtot 0.182363
11449         oh    431    ccc     O3  11449 -0.83772800  16.000000   ; qtot -0.655365
11450         oh    431    ccc     O4  11450 -0.77449700  16.000000   ; qtot -1.429862
11451         c3    431    ccc     C6  11451 0.37576500  12.010000   ; qtot -1.054097
11452         ho    431    ccc     H6  11452 0.53656000   1.008000   ; qtot -0.517537
11453         ho    431    ccc     H7  11453 0.49492100   1.008000   ; qtot -0.022616
11454         ho    431    ccc     H8  11454 0.51297200   1.008000   ; qtot 0.490356
11455         h1    431    ccc     H9  11455 0.05653400   1.008000   ; qtot 0.546890
11456         h1    431    ccc    H10  11456 0.05653400   1.008000   ; qtot 0.603424
11457         oh    431    ccc     O5  11457 -0.84113600  16.000000   ; qtot -0.237712
11458         ho    431    ccc    H11  11458 0.51201600   1.008000   ; qtot 0.274304
11459         os    431    ccc     O6  11459 -0.26013600  16.000000   ; qtot 0.014168
; residue  432 ccc rtp ccc q 0.0
11460         c3    432    ccc     C1  11460 -0.33178800  12.010000   ; qtot -0.317620
11461         c3    432    ccc     C2  11461 0.30606500  12.010000   ; qtot -0.011555
11462         h1    432    ccc     H1  11462 0.11662300   1.008000   ; qtot 0.105068
11463         h1    432    ccc     H2  11463 0.11526800   1.008000   ; qtot 0.220336
11464         c3    432    ccc     C3  11464 0.15592700  12.010000   ; qtot 0.376263
11465         c3    432    ccc     C4  11465 0.28383300  12.010000   ; qtot 0.660096
11466         c3    432    ccc     C5  11466 0.32403300  12.010000   ; qtot 0.984129
11467         h1    432    ccc     H3  11467 0.13386900   1.008000   ; qtot 1.117998
11468         h1    432    ccc     H4  11468 0.10146700   1.008000   ; qtot 1.219465
11469         h2    432    ccc     H5  11469 0.10960400   1.008000   ; qtot 1.329069
11470         os    432    ccc     O1  11470 -0.28650000  16.000000   ; qtot 1.042569
11471         oh    432    ccc     O2  11471 -0.86012500  16.000000   ; qtot 0.182444
11472         oh    432    ccc     O3  11472 -0.83772800  16.000000   ; qtot -0.655284
11473         oh    432    ccc     O4  11473 -0.77449700  16.000000   ; qtot -1.429781
11474         c3    432    ccc     C6  11474 0.37576500  12.010000   ; qtot -1.054016
11475         ho    432    ccc     H6  11475 0.53656000   1.008000   ; qtot -0.517456
11476         ho    432    ccc     H7  11476 0.49492100   1.008000   ; qtot -0.022535
11477         ho    432    ccc     H8  11477 0.51297200   1.008000   ; qtot 0.490437
11478         h1    432    ccc     H9  11478 0.05653400   1.008000   ; qtot 0.546971
11479         h1    432    ccc    H10  11479 0.05653400   1.008000   ; qtot 0.603505
11480         oh    432    ccc     O5  11480 -0.84113600  16.000000   ; qtot -0.237631
11481         ho    432    ccc    H11  11481 0.51201600   1.008000   ; qtot 0.274385
11482         os    432    ccc     O6  11482 -0.26013600  16.000000   ; qtot 0.014249
; residue  433 ccc rtp ccc q 0.0
11483         c3    433    ccc     C1  11483 -0.33178800  12.010000   ; qtot -0.317539
11484         c3    433    ccc     C2  11484 0.30606500  12.010000   ; qtot -0.011474
11485         h1    433    ccc     H1  11485 0.11662300   1.008000   ; qtot 0.105149
11486         h1    433    ccc     H2  11486 0.11526800   1.008000   ; qtot 0.220417
11487         c3    433    ccc     C3  11487 0.15592700  12.010000   ; qtot 0.376344
11488         c3    433    ccc     C4  11488 0.28383300  12.010000   ; qtot 0.660177
11489         c3    433    ccc     C5  11489 0.32403300  12.010000   ; qtot 0.984210
11490         h1    433    ccc     H3  11490 0.13386900   1.008000   ; qtot 1.118079
11491         h1    433    ccc     H4  11491 0.10146700   1.008000   ; qtot 1.219546
11492         h2    433    ccc     H5  11492 0.10960400   1.008000   ; qtot 1.329150
11493         os    433    ccc     O1  11493 -0.28650000  16.000000   ; qtot 1.042650
11494         oh    433    ccc     O2  11494 -0.86012500  16.000000   ; qtot 0.182525
11495         oh    433    ccc     O3  11495 -0.83772800  16.000000   ; qtot -0.655203
11496         oh    433    ccc     O4  11496 -0.77449700  16.000000   ; qtot -1.429700
11497         c3    433    ccc     C6  11497 0.37576500  12.010000   ; qtot -1.053935
11498         ho    433    ccc     H6  11498 0.53656000   1.008000   ; qtot -0.517375
11499         ho    433    ccc     H7  11499 0.49492100   1.008000   ; qtot -0.022454
11500         ho    433    ccc     H8  11500 0.51297200   1.008000   ; qtot 0.490518
11501         h1    433    ccc     H9  11501 0.05653400   1.008000   ; qtot 0.547052
11502         h1    433    ccc    H10  11502 0.05653400   1.008000   ; qtot 0.603586
11503         oh    433    ccc     O5  11503 -0.84113600  16.000000   ; qtot -0.237550
11504         ho    433    ccc    H11  11504 0.51201600   1.008000   ; qtot 0.274466
11505         os    433    ccc     O6  11505 -0.26013600  16.000000   ; qtot 0.014330
; residue  434 ccc rtp ccc q 0.0
11506         c3    434    ccc     C1  11506 -0.33178800  12.010000   ; qtot -0.317458
11507         c3    434    ccc     C2  11507 0.30606500  12.010000   ; qtot -0.011393
11508         h1    434    ccc     H1  11508 0.11662300   1.008000   ; qtot 0.105230
11509         h1    434    ccc     H2  11509 0.11526800   1.008000   ; qtot 0.220498
11510         c3    434    ccc     C3  11510 0.15592700  12.010000   ; qtot 0.376425
11511         c3    434    ccc     C4  11511 0.28383300  12.010000   ; qtot 0.660258
11512         c3    434    ccc     C5  11512 0.32403300  12.010000   ; qtot 0.984291
11513         h1    434    ccc     H3  11513 0.13386900   1.008000   ; qtot 1.118160
11514         h1    434    ccc     H4  11514 0.10146700   1.008000   ; qtot 1.219627
11515         h2    434    ccc     H5  11515 0.10960400   1.008000   ; qtot 1.329231
11516         os    434    ccc     O1  11516 -0.28650000  16.000000   ; qtot 1.042731
11517         oh    434    ccc     O2  11517 -0.86012500  16.000000   ; qtot 0.182606
11518         oh    434    ccc     O3  11518 -0.83772800  16.000000   ; qtot -0.655122
11519         oh    434    ccc     O4  11519 -0.77449700  16.000000   ; qtot -1.429619
11520         c3    434    ccc     C6  11520 0.37576500  12.010000   ; qtot -1.053854
11521         ho    434    ccc     H6  11521 0.53656000   1.008000   ; qtot -0.517294
11522         ho    434    ccc     H7  11522 0.49492100   1.008000   ; qtot -0.022373
11523         ho    434    ccc     H8  11523 0.51297200   1.008000   ; qtot 0.490599
11524         h1    434    ccc     H9  11524 0.05653400   1.008000   ; qtot 0.547133
11525         h1    434    ccc    H10  11525 0.05653400   1.008000   ; qtot 0.603667
11526         oh    434    ccc     O5  11526 -0.84113600  16.000000   ; qtot -0.237469
11527         ho    434    ccc    H11  11527 0.51201600   1.008000   ; qtot 0.274547
11528         os    434    ccc     O6  11528 -0.26013600  16.000000   ; qtot 0.014411
; residue  435 ccc rtp ccc q 0.0
11529         c3    435    ccc     C1  11529 -0.33178800  12.010000   ; qtot -0.317377
11530         c3    435    ccc     C2  11530 0.30606500  12.010000   ; qtot -0.011312
11531         h1    435    ccc     H1  11531 0.11662300   1.008000   ; qtot 0.105311
11532         h1    435    ccc     H2  11532 0.11526800   1.008000   ; qtot 0.220579
11533         c3    435    ccc     C3  11533 0.15592700  12.010000   ; qtot 0.376506
11534         c3    435    ccc     C4  11534 0.28383300  12.010000   ; qtot 0.660339
11535         c3    435    ccc     C5  11535 0.32403300  12.010000   ; qtot 0.984372
11536         h1    435    ccc     H3  11536 0.13386900   1.008000   ; qtot 1.118241
11537         h1    435    ccc     H4  11537 0.10146700   1.008000   ; qtot 1.219708
11538         h2    435    ccc     H5  11538 0.10960400   1.008000   ; qtot 1.329312
11539         os    435    ccc     O1  11539 -0.28650000  16.000000   ; qtot 1.042812
11540         oh    435    ccc     O2  11540 -0.86012500  16.000000   ; qtot 0.182687
11541         oh    435    ccc     O3  11541 -0.83772800  16.000000   ; qtot -0.655041
11542         oh    435    ccc     O4  11542 -0.77449700  16.000000   ; qtot -1.429538
11543         c3    435    ccc     C6  11543 0.37576500  12.010000   ; qtot -1.053773
11544         ho    435    ccc     H6  11544 0.53656000   1.008000   ; qtot -0.517213
11545         ho    435    ccc     H7  11545 0.49492100   1.008000   ; qtot -0.022292
11546         ho    435    ccc     H8  11546 0.51297200   1.008000   ; qtot 0.490680
11547         h1    435    ccc     H9  11547 0.05653400   1.008000   ; qtot 0.547214
11548         h1    435    ccc    H10  11548 0.05653400   1.008000   ; qtot 0.603748
11549         oh    435    ccc     O5  11549 -0.84113600  16.000000   ; qtot -0.237388
11550         ho    435    ccc    H11  11550 0.51201600   1.008000   ; qtot 0.274628
11551         os    435    ccc     O6  11551 -0.26013600  16.000000   ; qtot 0.014492
; residue  436 ccc rtp ccc q 0.0
11552         c3    436    ccc     C1  11552 -0.33178800  12.010000   ; qtot -0.317296
11553         c3    436    ccc     C2  11553 0.30606500  12.010000   ; qtot -0.011231
11554         h1    436    ccc     H1  11554 0.11662300   1.008000   ; qtot 0.105392
11555         h1    436    ccc     H2  11555 0.11526800   1.008000   ; qtot 0.220660
11556         c3    436    ccc     C3  11556 0.15592700  12.010000   ; qtot 0.376587
11557         c3    436    ccc     C4  11557 0.28383300  12.010000   ; qtot 0.660420
11558         c3    436    ccc     C5  11558 0.32403300  12.010000   ; qtot 0.984453
11559         h1    436    ccc     H3  11559 0.13386900   1.008000   ; qtot 1.118322
11560         h1    436    ccc     H4  11560 0.10146700   1.008000   ; qtot 1.219789
11561         h2    436    ccc     H5  11561 0.10960400   1.008000   ; qtot 1.329393
11562         os    436    ccc     O1  11562 -0.28650000  16.000000   ; qtot 1.042893
11563         oh    436    ccc     O2  11563 -0.86012500  16.000000   ; qtot 0.182768
11564         oh    436    ccc     O3  11564 -0.83772800  16.000000   ; qtot -0.654960
11565         oh    436    ccc     O4  11565 -0.77449700  16.000000   ; qtot -1.429457
11566         c3    436    ccc     C6  11566 0.37576500  12.010000   ; qtot -1.053692
11567         ho    436    ccc     H6  11567 0.53656000   1.008000   ; qtot -0.517132
11568         ho    436    ccc     H7  11568 0.49492100   1.008000   ; qtot -0.022211
11569         ho    436    ccc     H8  11569 0.51297200   1.008000   ; qtot 0.490761
11570         h1    436    ccc     H9  11570 0.05653400   1.008000   ; qtot 0.547295
11571         h1    436    ccc    H10  11571 0.05653400   1.008000   ; qtot 0.603829
11572         oh    436    ccc     O5  11572 -0.84113600  16.000000   ; qtot -0.237307
11573         ho    436    ccc    H11  11573 0.51201600   1.008000   ; qtot 0.274709
11574         os    436    ccc     O6  11574 -0.26013600  16.000000   ; qtot 0.014573
; residue  437 ccc rtp ccc q 0.0
11575         c3    437    ccc     C1  11575 -0.33178800  12.010000   ; qtot -0.317215
11576         c3    437    ccc     C2  11576 0.30606500  12.010000   ; qtot -0.011150
11577         h1    437    ccc     H1  11577 0.11662300   1.008000   ; qtot 0.105473
11578         h1    437    ccc     H2  11578 0.11526800   1.008000   ; qtot 0.220741
11579         c3    437    ccc     C3  11579 0.15592700  12.010000   ; qtot 0.376668
11580         c3    437    ccc     C4  11580 0.28383300  12.010000   ; qtot 0.660501
11581         c3    437    ccc     C5  11581 0.32403300  12.010000   ; qtot 0.984534
11582         h1    437    ccc     H3  11582 0.13386900   1.008000   ; qtot 1.118403
11583         h1    437    ccc     H4  11583 0.10146700   1.008000   ; qtot 1.219870
11584         h2    437    ccc     H5  11584 0.10960400   1.008000   ; qtot 1.329474
11585         os    437    ccc     O1  11585 -0.28650000  16.000000   ; qtot 1.042974
11586         oh    437    ccc     O2  11586 -0.86012500  16.000000   ; qtot 0.182849
11587         oh    437    ccc     O3  11587 -0.83772800  16.000000   ; qtot -0.654879
11588         oh    437    ccc     O4  11588 -0.77449700  16.000000   ; qtot -1.429376
11589         c3    437    ccc     C6  11589 0.37576500  12.010000   ; qtot -1.053611
11590         ho    437    ccc     H6  11590 0.53656000   1.008000   ; qtot -0.517051
11591         ho    437    ccc     H7  11591 0.49492100   1.008000   ; qtot -0.022130
11592         ho    437    ccc     H8  11592 0.51297200   1.008000   ; qtot 0.490842
11593         h1    437    ccc     H9  11593 0.05653400   1.008000   ; qtot 0.547376
11594         h1    437    ccc    H10  11594 0.05653400   1.008000   ; qtot 0.603910
11595         oh    437    ccc     O5  11595 -0.84113600  16.000000   ; qtot -0.237226
11596         ho    437    ccc    H11  11596 0.51201600   1.008000   ; qtot 0.274790
11597         os    437    ccc     O6  11597 -0.26013600  16.000000   ; qtot 0.014654
; residue  438 ccc rtp ccc q 0.0
11598         c3    438    ccc     C1  11598 -0.33178800  12.010000   ; qtot -0.317134
11599         c3    438    ccc     C2  11599 0.30606500  12.010000   ; qtot -0.011069
11600         h1    438    ccc     H1  11600 0.11662300   1.008000   ; qtot 0.105554
11601         h1    438    ccc     H2  11601 0.11526800   1.008000   ; qtot 0.220822
11602         c3    438    ccc     C3  11602 0.15592700  12.010000   ; qtot 0.376749
11603         c3    438    ccc     C4  11603 0.28383300  12.010000   ; qtot 0.660582
11604         c3    438    ccc     C5  11604 0.32403300  12.010000   ; qtot 0.984615
11605         h1    438    ccc     H3  11605 0.13386900   1.008000   ; qtot 1.118484
11606         h1    438    ccc     H4  11606 0.10146700   1.008000   ; qtot 1.219951
11607         h2    438    ccc     H5  11607 0.10960400   1.008000   ; qtot 1.329555
11608         os    438    ccc     O1  11608 -0.28650000  16.000000   ; qtot 1.043055
11609         oh    438    ccc     O2  11609 -0.86012500  16.000000   ; qtot 0.182930
11610         oh    438    ccc     O3  11610 -0.83772800  16.000000   ; qtot -0.654798
11611         oh    438    ccc     O4  11611 -0.77449700  16.000000   ; qtot -1.429295
11612         c3    438    ccc     C6  11612 0.37576500  12.010000   ; qtot -1.053530
11613         ho    438    ccc     H6  11613 0.53656000   1.008000   ; qtot -0.516970
11614         ho    438    ccc     H7  11614 0.49492100   1.008000   ; qtot -0.022049
11615         ho    438    ccc     H8  11615 0.51297200   1.008000   ; qtot 0.490923
11616         h1    438    ccc     H9  11616 0.05653400   1.008000   ; qtot 0.547457
11617         h1    438    ccc    H10  11617 0.05653400   1.008000   ; qtot 0.603991
11618         oh    438    ccc     O5  11618 -0.84113600  16.000000   ; qtot -0.237145
11619         ho    438    ccc    H11  11619 0.51201600   1.008000   ; qtot 0.274871
11620         os    438    ccc     O6  11620 -0.26013600  16.000000   ; qtot 0.014735
; residue  439 ccc rtp ccc q 0.0
11621         c3    439    ccc     C1  11621 -0.33178800  12.010000   ; qtot -0.317053
11622         c3    439    ccc     C2  11622 0.30606500  12.010000   ; qtot -0.010988
11623         h1    439    ccc     H1  11623 0.11662300   1.008000   ; qtot 0.105635
11624         h1    439    ccc     H2  11624 0.11526800   1.008000   ; qtot 0.220903
11625         c3    439    ccc     C3  11625 0.15592700  12.010000   ; qtot 0.376830
11626         c3    439    ccc     C4  11626 0.28383300  12.010000   ; qtot 0.660663
11627         c3    439    ccc     C5  11627 0.32403300  12.010000   ; qtot 0.984696
11628         h1    439    ccc     H3  11628 0.13386900   1.008000   ; qtot 1.118565
11629         h1    439    ccc     H4  11629 0.10146700   1.008000   ; qtot 1.220032
11630         h2    439    ccc     H5  11630 0.10960400   1.008000   ; qtot 1.329636
11631         os    439    ccc     O1  11631 -0.28650000  16.000000   ; qtot 1.043136
11632         oh    439    ccc     O2  11632 -0.86012500  16.000000   ; qtot 0.183011
11633         oh    439    ccc     O3  11633 -0.83772800  16.000000   ; qtot -0.654717
11634         oh    439    ccc     O4  11634 -0.77449700  16.000000   ; qtot -1.429214
11635         c3    439    ccc     C6  11635 0.37576500  12.010000   ; qtot -1.053449
11636         ho    439    ccc     H6  11636 0.53656000   1.008000   ; qtot -0.516889
11637         ho    439    ccc     H7  11637 0.49492100   1.008000   ; qtot -0.021968
11638         ho    439    ccc     H8  11638 0.51297200   1.008000   ; qtot 0.491004
11639         h1    439    ccc     H9  11639 0.05653400   1.008000   ; qtot 0.547538
11640         h1    439    ccc    H10  11640 0.05653400   1.008000   ; qtot 0.604072
11641         oh    439    ccc     O5  11641 -0.84113600  16.000000   ; qtot -0.237064
11642         ho    439    ccc    H11  11642 0.51201600   1.008000   ; qtot 0.274952
11643         os    439    ccc     O6  11643 -0.26013600  16.000000   ; qtot 0.014816
; residue  440 ccc rtp ccc q 0.0
11644         c3    440    ccc     C1  11644 -0.33178800  12.010000   ; qtot -0.316972
11645         c3    440    ccc     C2  11645 0.30606500  12.010000   ; qtot -0.010907
11646         h1    440    ccc     H1  11646 0.11662300   1.008000   ; qtot 0.105716
11647         h1    440    ccc     H2  11647 0.11526800   1.008000   ; qtot 0.220984
11648         c3    440    ccc     C3  11648 0.15592700  12.010000   ; qtot 0.376911
11649         c3    440    ccc     C4  11649 0.28383300  12.010000   ; qtot 0.660744
11650         c3    440    ccc     C5  11650 0.32403300  12.010000   ; qtot 0.984777
11651         h1    440    ccc     H3  11651 0.13386900   1.008000   ; qtot 1.118646
11652         h1    440    ccc     H4  11652 0.10146700   1.008000   ; qtot 1.220113
11653         h2    440    ccc     H5  11653 0.10960400   1.008000   ; qtot 1.329717
11654         os    440    ccc     O1  11654 -0.28650000  16.000000   ; qtot 1.043217
11655         oh    440    ccc     O2  11655 -0.86012500  16.000000   ; qtot 0.183092
11656         oh    440    ccc     O3  11656 -0.83772800  16.000000   ; qtot -0.654636
11657         oh    440    ccc     O4  11657 -0.77449700  16.000000   ; qtot -1.429133
11658         c3    440    ccc     C6  11658 0.37576500  12.010000   ; qtot -1.053368
11659         ho    440    ccc     H6  11659 0.53656000   1.008000   ; qtot -0.516808
11660         ho    440    ccc     H7  11660 0.49492100   1.008000   ; qtot -0.021887
11661         ho    440    ccc     H8  11661 0.51297200   1.008000   ; qtot 0.491085
11662         h1    440    ccc     H9  11662 0.05653400   1.008000   ; qtot 0.547619
11663         h1    440    ccc    H10  11663 0.05653400   1.008000   ; qtot 0.604153
11664         oh    440    ccc     O5  11664 -0.84113600  16.000000   ; qtot -0.236983
11665         ho    440    ccc    H11  11665 0.51201600   1.008000   ; qtot 0.275033
11666         os    440    ccc     O6  11666 -0.26013600  16.000000   ; qtot 0.014897
; residue  441 ccc rtp ccc q 0.0
11667         c3    441    ccc     C1  11667 -0.33178800  12.010000   ; qtot -0.316891
11668         c3    441    ccc     C2  11668 0.30606500  12.010000   ; qtot -0.010826
11669         h1    441    ccc     H1  11669 0.11662300   1.008000   ; qtot 0.105797
11670         h1    441    ccc     H2  11670 0.11526800   1.008000   ; qtot 0.221065
11671         c3    441    ccc     C3  11671 0.15592700  12.010000   ; qtot 0.376992
11672         c3    441    ccc     C4  11672 0.28383300  12.010000   ; qtot 0.660825
11673         c3    441    ccc     C5  11673 0.32403300  12.010000   ; qtot 0.984858
11674         h1    441    ccc     H3  11674 0.13386900   1.008000   ; qtot 1.118727
11675         h1    441    ccc     H4  11675 0.10146700   1.008000   ; qtot 1.220194
11676         h2    441    ccc     H5  11676 0.10960400   1.008000   ; qtot 1.329798
11677         os    441    ccc     O1  11677 -0.28650000  16.000000   ; qtot 1.043298
11678         oh    441    ccc     O2  11678 -0.86012500  16.000000   ; qtot 0.183173
11679         oh    441    ccc     O3  11679 -0.83772800  16.000000   ; qtot -0.654555
11680         oh    441    ccc     O4  11680 -0.77449700  16.000000   ; qtot -1.429052
11681         c3    441    ccc     C6  11681 0.37576500  12.010000   ; qtot -1.053287
11682         ho    441    ccc     H6  11682 0.53656000   1.008000   ; qtot -0.516727
11683         ho    441    ccc     H7  11683 0.49492100   1.008000   ; qtot -0.021806
11684         ho    441    ccc     H8  11684 0.51297200   1.008000   ; qtot 0.491166
11685         h1    441    ccc     H9  11685 0.05653400   1.008000   ; qtot 0.547700
11686         h1    441    ccc    H10  11686 0.05653400   1.008000   ; qtot 0.604234
11687         oh    441    ccc     O5  11687 -0.84113600  16.000000   ; qtot -0.236902
11688         ho    441    ccc    H11  11688 0.51201600   1.008000   ; qtot 0.275114
11689         os    441    ccc     O6  11689 -0.26013600  16.000000   ; qtot 0.014978
; residue  442 ccc rtp ccc q 0.0
11690         c3    442    ccc     C1  11690 -0.33178800  12.010000   ; qtot -0.316810
11691         c3    442    ccc     C2  11691 0.30606500  12.010000   ; qtot -0.010745
11692         h1    442    ccc     H1  11692 0.11662300   1.008000   ; qtot 0.105878
11693         h1    442    ccc     H2  11693 0.11526800   1.008000   ; qtot 0.221146
11694         c3    442    ccc     C3  11694 0.15592700  12.010000   ; qtot 0.377073
11695         c3    442    ccc     C4  11695 0.28383300  12.010000   ; qtot 0.660906
11696         c3    442    ccc     C5  11696 0.32403300  12.010000   ; qtot 0.984939
11697         h1    442    ccc     H3  11697 0.13386900   1.008000   ; qtot 1.118808
11698         h1    442    ccc     H4  11698 0.10146700   1.008000   ; qtot 1.220275
11699         h2    442    ccc     H5  11699 0.10960400   1.008000   ; qtot 1.329879
11700         os    442    ccc     O1  11700 -0.28650000  16.000000   ; qtot 1.043379
11701         oh    442    ccc     O2  11701 -0.86012500  16.000000   ; qtot 0.183254
11702         oh    442    ccc     O3  11702 -0.83772800  16.000000   ; qtot -0.654474
11703         oh    442    ccc     O4  11703 -0.77449700  16.000000   ; qtot -1.428971
11704         c3    442    ccc     C6  11704 0.37576500  12.010000   ; qtot -1.053206
11705         ho    442    ccc     H6  11705 0.53656000   1.008000   ; qtot -0.516646
11706         ho    442    ccc     H7  11706 0.49492100   1.008000   ; qtot -0.021725
11707         ho    442    ccc     H8  11707 0.51297200   1.008000   ; qtot 0.491247
11708         h1    442    ccc     H9  11708 0.05653400   1.008000   ; qtot 0.547781
11709         h1    442    ccc    H10  11709 0.05653400   1.008000   ; qtot 0.604315
11710         oh    442    ccc     O5  11710 -0.84113600  16.000000   ; qtot -0.236821
11711         ho    442    ccc    H11  11711 0.51201600   1.008000   ; qtot 0.275195
11712         os    442    ccc     O6  11712 -0.26013600  16.000000   ; qtot 0.015059
; residue  443 ccc rtp ccc q 0.0
11713         c3    443    ccc     C1  11713 -0.33178800  12.010000   ; qtot -0.316729
11714         c3    443    ccc     C2  11714 0.30606500  12.010000   ; qtot -0.010664
11715         h1    443    ccc     H1  11715 0.11662300   1.008000   ; qtot 0.105959
11716         h1    443    ccc     H2  11716 0.11526800   1.008000   ; qtot 0.221227
11717         c3    443    ccc     C3  11717 0.15592700  12.010000   ; qtot 0.377154
11718         c3    443    ccc     C4  11718 0.28383300  12.010000   ; qtot 0.660987
11719         c3    443    ccc     C5  11719 0.32403300  12.010000   ; qtot 0.985020
11720         h1    443    ccc     H3  11720 0.13386900   1.008000   ; qtot 1.118889
11721         h1    443    ccc     H4  11721 0.10146700   1.008000   ; qtot 1.220356
11722         h2    443    ccc     H5  11722 0.10960400   1.008000   ; qtot 1.329960
11723         os    443    ccc     O1  11723 -0.28650000  16.000000   ; qtot 1.043460
11724         oh    443    ccc     O2  11724 -0.86012500  16.000000   ; qtot 0.183335
11725         oh    443    ccc     O3  11725 -0.83772800  16.000000   ; qtot -0.654393
11726         oh    443    ccc     O4  11726 -0.77449700  16.000000   ; qtot -1.428890
11727         c3    443    ccc     C6  11727 0.37576500  12.010000   ; qtot -1.053125
11728         ho    443    ccc     H6  11728 0.53656000   1.008000   ; qtot -0.516565
11729         ho    443    ccc     H7  11729 0.49492100   1.008000   ; qtot -0.021644
11730         ho    443    ccc     H8  11730 0.51297200   1.008000   ; qtot 0.491328
11731         h1    443    ccc     H9  11731 0.05653400   1.008000   ; qtot 0.547862
11732         h1    443    ccc    H10  11732 0.05653400   1.008000   ; qtot 0.604396
11733         oh    443    ccc     O5  11733 -0.84113600  16.000000   ; qtot -0.236740
11734         ho    443    ccc    H11  11734 0.51201600   1.008000   ; qtot 0.275276
11735         os    443    ccc     O6  11735 -0.26013600  16.000000   ; qtot 0.015140
; residue  444 ccc rtp ccc q 0.0
11736         c3    444    ccc     C1  11736 -0.33178800  12.010000   ; qtot -0.316648
11737         c3    444    ccc     C2  11737 0.30606500  12.010000   ; qtot -0.010583
11738         h1    444    ccc     H1  11738 0.11662300   1.008000   ; qtot 0.106040
11739         h1    444    ccc     H2  11739 0.11526800   1.008000   ; qtot 0.221308
11740         c3    444    ccc     C3  11740 0.15592700  12.010000   ; qtot 0.377235
11741         c3    444    ccc     C4  11741 0.28383300  12.010000   ; qtot 0.661068
11742         c3    444    ccc     C5  11742 0.32403300  12.010000   ; qtot 0.985101
11743         h1    444    ccc     H3  11743 0.13386900   1.008000   ; qtot 1.118970
11744         h1    444    ccc     H4  11744 0.10146700   1.008000   ; qtot 1.220437
11745         h2    444    ccc     H5  11745 0.10960400   1.008000   ; qtot 1.330041
11746         os    444    ccc     O1  11746 -0.28650000  16.000000   ; qtot 1.043541
11747         oh    444    ccc     O2  11747 -0.86012500  16.000000   ; qtot 0.183416
11748         oh    444    ccc     O3  11748 -0.83772800  16.000000   ; qtot -0.654312
11749         oh    444    ccc     O4  11749 -0.77449700  16.000000   ; qtot -1.428809
11750         c3    444    ccc     C6  11750 0.37576500  12.010000   ; qtot -1.053044
11751         ho    444    ccc     H6  11751 0.53656000   1.008000   ; qtot -0.516484
11752         ho    444    ccc     H7  11752 0.49492100   1.008000   ; qtot -0.021563
11753         ho    444    ccc     H8  11753 0.51297200   1.008000   ; qtot 0.491409
11754         h1    444    ccc     H9  11754 0.05653400   1.008000   ; qtot 0.547943
11755         h1    444    ccc    H10  11755 0.05653400   1.008000   ; qtot 0.604477
11756         oh    444    ccc     O5  11756 -0.84113600  16.000000   ; qtot -0.236659
11757         ho    444    ccc    H11  11757 0.51201600   1.008000   ; qtot 0.275357
11758         os    444    ccc     O6  11758 -0.26013600  16.000000   ; qtot 0.015221
; residue  445 ccc rtp ccc q 0.0
11759         c3    445    ccc     C1  11759 -0.33178800  12.010000   ; qtot -0.316567
11760         c3    445    ccc     C2  11760 0.30606500  12.010000   ; qtot -0.010502
11761         h1    445    ccc     H1  11761 0.11662300   1.008000   ; qtot 0.106121
11762         h1    445    ccc     H2  11762 0.11526800   1.008000   ; qtot 0.221389
11763         c3    445    ccc     C3  11763 0.15592700  12.010000   ; qtot 0.377316
11764         c3    445    ccc     C4  11764 0.28383300  12.010000   ; qtot 0.661149
11765         c3    445    ccc     C5  11765 0.32403300  12.010000   ; qtot 0.985182
11766         h1    445    ccc     H3  11766 0.13386900   1.008000   ; qtot 1.119051
11767         h1    445    ccc     H4  11767 0.10146700   1.008000   ; qtot 1.220518
11768         h2    445    ccc     H5  11768 0.10960400   1.008000   ; qtot 1.330122
11769         os    445    ccc     O1  11769 -0.28650000  16.000000   ; qtot 1.043622
11770         oh    445    ccc     O2  11770 -0.86012500  16.000000   ; qtot 0.183497
11771         oh    445    ccc     O3  11771 -0.83772800  16.000000   ; qtot -0.654231
11772         oh    445    ccc     O4  11772 -0.77449700  16.000000   ; qtot -1.428728
11773         c3    445    ccc     C6  11773 0.37576500  12.010000   ; qtot -1.052963
11774         ho    445    ccc     H6  11774 0.53656000   1.008000   ; qtot -0.516403
11775         ho    445    ccc     H7  11775 0.49492100   1.008000   ; qtot -0.021482
11776         ho    445    ccc     H8  11776 0.51297200   1.008000   ; qtot 0.491490
11777         h1    445    ccc     H9  11777 0.05653400   1.008000   ; qtot 0.548024
11778         h1    445    ccc    H10  11778 0.05653400   1.008000   ; qtot 0.604558
11779         oh    445    ccc     O5  11779 -0.84113600  16.000000   ; qtot -0.236578
11780         ho    445    ccc    H11  11780 0.51201600   1.008000   ; qtot 0.275438
11781         os    445    ccc     O6  11781 -0.26013600  16.000000   ; qtot 0.015302
; residue  446 ccc rtp ccc q 0.0
11782         c3    446    ccc     C1  11782 -0.33178800  12.010000   ; qtot -0.316486
11783         c3    446    ccc     C2  11783 0.30606500  12.010000   ; qtot -0.010421
11784         h1    446    ccc     H1  11784 0.11662300   1.008000   ; qtot 0.106202
11785         h1    446    ccc     H2  11785 0.11526800   1.008000   ; qtot 0.221470
11786         c3    446    ccc     C3  11786 0.15592700  12.010000   ; qtot 0.377397
11787         c3    446    ccc     C4  11787 0.28383300  12.010000   ; qtot 0.661230
11788         c3    446    ccc     C5  11788 0.32403300  12.010000   ; qtot 0.985263
11789         h1    446    ccc     H3  11789 0.13386900   1.008000   ; qtot 1.119132
11790         h1    446    ccc     H4  11790 0.10146700   1.008000   ; qtot 1.220599
11791         h2    446    ccc     H5  11791 0.10960400   1.008000   ; qtot 1.330203
11792         os    446    ccc     O1  11792 -0.28650000  16.000000   ; qtot 1.043703
11793         oh    446    ccc     O2  11793 -0.86012500  16.000000   ; qtot 0.183578
11794         oh    446    ccc     O3  11794 -0.83772800  16.000000   ; qtot -0.654150
11795         oh    446    ccc     O4  11795 -0.77449700  16.000000   ; qtot -1.428647
11796         c3    446    ccc     C6  11796 0.37576500  12.010000   ; qtot -1.052882
11797         ho    446    ccc     H6  11797 0.53656000   1.008000   ; qtot -0.516322
11798         ho    446    ccc     H7  11798 0.49492100   1.008000   ; qtot -0.021401
11799         ho    446    ccc     H8  11799 0.51297200   1.008000   ; qtot 0.491571
11800         h1    446    ccc     H9  11800 0.05653400   1.008000   ; qtot 0.548105
11801         h1    446    ccc    H10  11801 0.05653400   1.008000   ; qtot 0.604639
11802         oh    446    ccc     O5  11802 -0.84113600  16.000000   ; qtot -0.236497
11803         ho    446    ccc    H11  11803 0.51201600   1.008000   ; qtot 0.275519
11804         os    446    ccc     O6  11804 -0.26013600  16.000000   ; qtot 0.015383
; residue  447 ccc rtp ccc q 0.0
11805         c3    447    ccc     C1  11805 -0.33178800  12.010000   ; qtot -0.316405
11806         c3    447    ccc     C2  11806 0.30606500  12.010000   ; qtot -0.010340
11807         h1    447    ccc     H1  11807 0.11662300   1.008000   ; qtot 0.106283
11808         h1    447    ccc     H2  11808 0.11526800   1.008000   ; qtot 0.221551
11809         c3    447    ccc     C3  11809 0.15592700  12.010000   ; qtot 0.377478
11810         c3    447    ccc     C4  11810 0.28383300  12.010000   ; qtot 0.661311
11811         c3    447    ccc     C5  11811 0.32403300  12.010000   ; qtot 0.985344
11812         h1    447    ccc     H3  11812 0.13386900   1.008000   ; qtot 1.119213
11813         h1    447    ccc     H4  11813 0.10146700   1.008000   ; qtot 1.220680
11814         h2    447    ccc     H5  11814 0.10960400   1.008000   ; qtot 1.330284
11815         os    447    ccc     O1  11815 -0.28650000  16.000000   ; qtot 1.043784
11816         oh    447    ccc     O2  11816 -0.86012500  16.000000   ; qtot 0.183659
11817         oh    447    ccc     O3  11817 -0.83772800  16.000000   ; qtot -0.654069
11818         oh    447    ccc     O4  11818 -0.77449700  16.000000   ; qtot -1.428566
11819         c3    447    ccc     C6  11819 0.37576500  12.010000   ; qtot -1.052801
11820         ho    447    ccc     H6  11820 0.53656000   1.008000   ; qtot -0.516241
11821         ho    447    ccc     H7  11821 0.49492100   1.008000   ; qtot -0.021320
11822         ho    447    ccc     H8  11822 0.51297200   1.008000   ; qtot 0.491652
11823         h1    447    ccc     H9  11823 0.05653400   1.008000   ; qtot 0.548186
11824         h1    447    ccc    H10  11824 0.05653400   1.008000   ; qtot 0.604720
11825         oh    447    ccc     O5  11825 -0.84113600  16.000000   ; qtot -0.236416
11826         ho    447    ccc    H11  11826 0.51201600   1.008000   ; qtot 0.275600
11827         os    447    ccc     O6  11827 -0.26013600  16.000000   ; qtot 0.015464
; residue  448 ccc rtp ccc q 0.0
11828         c3    448    ccc     C1  11828 -0.33178800  12.010000   ; qtot -0.316324
11829         c3    448    ccc     C2  11829 0.30606500  12.010000   ; qtot -0.010259
11830         h1    448    ccc     H1  11830 0.11662300   1.008000   ; qtot 0.106364
11831         h1    448    ccc     H2  11831 0.11526800   1.008000   ; qtot 0.221632
11832         c3    448    ccc     C3  11832 0.15592700  12.010000   ; qtot 0.377559
11833         c3    448    ccc     C4  11833 0.28383300  12.010000   ; qtot 0.661392
11834         c3    448    ccc     C5  11834 0.32403300  12.010000   ; qtot 0.985425
11835         h1    448    ccc     H3  11835 0.13386900   1.008000   ; qtot 1.119294
11836         h1    448    ccc     H4  11836 0.10146700   1.008000   ; qtot 1.220761
11837         h2    448    ccc     H5  11837 0.10960400   1.008000   ; qtot 1.330365
11838         os    448    ccc     O1  11838 -0.28650000  16.000000   ; qtot 1.043865
11839         oh    448    ccc     O2  11839 -0.86012500  16.000000   ; qtot 0.183740
11840         oh    448    ccc     O3  11840 -0.83772800  16.000000   ; qtot -0.653988
11841         oh    448    ccc     O4  11841 -0.77449700  16.000000   ; qtot -1.428485
11842         c3    448    ccc     C6  11842 0.37576500  12.010000   ; qtot -1.052720
11843         ho    448    ccc     H6  11843 0.53656000   1.008000   ; qtot -0.516160
11844         ho    448    ccc     H7  11844 0.49492100   1.008000   ; qtot -0.021239
11845         ho    448    ccc     H8  11845 0.51297200   1.008000   ; qtot 0.491733
11846         h1    448    ccc     H9  11846 0.05653400   1.008000   ; qtot 0.548267
11847         h1    448    ccc    H10  11847 0.05653400   1.008000   ; qtot 0.604801
11848         oh    448    ccc     O5  11848 -0.84113600  16.000000   ; qtot -0.236335
11849         ho    448    ccc    H11  11849 0.51201600   1.008000   ; qtot 0.275681
11850         os    448    ccc     O6  11850 -0.26013600  16.000000   ; qtot 0.015545
; residue  449 ccc rtp ccc q 0.0
11851         c3    449    ccc     C1  11851 -0.33178800  12.010000   ; qtot -0.316243
11852         c3    449    ccc     C2  11852 0.30606500  12.010000   ; qtot -0.010178
11853         h1    449    ccc     H1  11853 0.11662300   1.008000   ; qtot 0.106445
11854         h1    449    ccc     H2  11854 0.11526800   1.008000   ; qtot 0.221713
11855         c3    449    ccc     C3  11855 0.15592700  12.010000   ; qtot 0.377640
11856         c3    449    ccc     C4  11856 0.28383300  12.010000   ; qtot 0.661473
11857         c3    449    ccc     C5  11857 0.32403300  12.010000   ; qtot 0.985506
11858         h1    449    ccc     H3  11858 0.13386900   1.008000   ; qtot 1.119375
11859         h1    449    ccc     H4  11859 0.10146700   1.008000   ; qtot 1.220842
11860         h2    449    ccc     H5  11860 0.10960400   1.008000   ; qtot 1.330446
11861         os    449    ccc     O1  11861 -0.28650000  16.000000   ; qtot 1.043946
11862         oh    449    ccc     O2  11862 -0.86012500  16.000000   ; qtot 0.183821
11863         oh    449    ccc     O3  11863 -0.83772800  16.000000   ; qtot -0.653907
11864         oh    449    ccc     O4  11864 -0.77449700  16.000000   ; qtot -1.428404
11865         c3    449    ccc     C6  11865 0.37576500  12.010000   ; qtot -1.052639
11866         ho    449    ccc     H6  11866 0.53656000   1.008000   ; qtot -0.516079
11867         ho    449    ccc     H7  11867 0.49492100   1.008000   ; qtot -0.021158
11868         ho    449    ccc     H8  11868 0.51297200   1.008000   ; qtot 0.491814
11869         h1    449    ccc     H9  11869 0.05653400   1.008000   ; qtot 0.548348
11870         h1    449    ccc    H10  11870 0.05653400   1.008000   ; qtot 0.604882
11871         oh    449    ccc     O5  11871 -0.84113600  16.000000   ; qtot -0.236254
11872         ho    449    ccc    H11  11872 0.51201600   1.008000   ; qtot 0.275762
11873         os    449    ccc     O6  11873 -0.26013600  16.000000   ; qtot 0.015626
; residue  450 ccc rtp ccc q 0.0
11874         c3    450    ccc     C1  11874 -0.33178800  12.010000   ; qtot -0.316162
11875         c3    450    ccc     C2  11875 0.30606500  12.010000   ; qtot -0.010097
11876         h1    450    ccc     H1  11876 0.11662300   1.008000   ; qtot 0.106526
11877         h1    450    ccc     H2  11877 0.11526800   1.008000   ; qtot 0.221794
11878         c3    450    ccc     C3  11878 0.15592700  12.010000   ; qtot 0.377721
11879         c3    450    ccc     C4  11879 0.28383300  12.010000   ; qtot 0.661554
11880         c3    450    ccc     C5  11880 0.32403300  12.010000   ; qtot 0.985587
11881         h1    450    ccc     H3  11881 0.13386900   1.008000   ; qtot 1.119456
11882         h1    450    ccc     H4  11882 0.10146700   1.008000   ; qtot 1.220923
11883         h2    450    ccc     H5  11883 0.10960400   1.008000   ; qtot 1.330527
11884         os    450    ccc     O1  11884 -0.28650000  16.000000   ; qtot 1.044027
11885         oh    450    ccc     O2  11885 -0.86012500  16.000000   ; qtot 0.183902
11886         oh    450    ccc     O3  11886 -0.83772800  16.000000   ; qtot -0.653826
11887         oh    450    ccc     O4  11887 -0.77449700  16.000000   ; qtot -1.428323
11888         c3    450    ccc     C6  11888 0.37576500  12.010000   ; qtot -1.052558
11889         ho    450    ccc     H6  11889 0.53656000   1.008000   ; qtot -0.515998
11890         ho    450    ccc     H7  11890 0.49492100   1.008000   ; qtot -0.021077
11891         ho    450    ccc     H8  11891 0.51297200   1.008000   ; qtot 0.491895
11892         h1    450    ccc     H9  11892 0.05653400   1.008000   ; qtot 0.548429
11893         h1    450    ccc    H10  11893 0.05653400   1.008000   ; qtot 0.604963
11894         oh    450    ccc     O5  11894 -0.84113600  16.000000   ; qtot -0.236173
11895         ho    450    ccc    H11  11895 0.51201600   1.008000   ; qtot 0.275843
11896         os    450    ccc     O6  11896 -0.26013600  16.000000   ; qtot 0.015707
; residue  451 ccc rtp ccc q 0.0
11897         c3    451    ccc     C1  11897 -0.33178800  12.010000   ; qtot -0.316081
11898         c3    451    ccc     C2  11898 0.30606500  12.010000   ; qtot -0.010016
11899         h1    451    ccc     H1  11899 0.11662300   1.008000   ; qtot 0.106607
11900         h1    451    ccc     H2  11900 0.11526800   1.008000   ; qtot 0.221875
11901         c3    451    ccc     C3  11901 0.15592700  12.010000   ; qtot 0.377802
11902         c3    451    ccc     C4  11902 0.28383300  12.010000   ; qtot 0.661635
11903         c3    451    ccc     C5  11903 0.32403300  12.010000   ; qtot 0.985668
11904         h1    451    ccc     H3  11904 0.13386900   1.008000   ; qtot 1.119537
11905         h1    451    ccc     H4  11905 0.10146700   1.008000   ; qtot 1.221004
11906         h2    451    ccc     H5  11906 0.10960400   1.008000   ; qtot 1.330608
11907         os    451    ccc     O1  11907 -0.28650000  16.000000   ; qtot 1.044108
11908         oh    451    ccc     O2  11908 -0.86012500  16.000000   ; qtot 0.183983
11909         oh    451    ccc     O3  11909 -0.83772800  16.000000   ; qtot -0.653745
11910         oh    451    ccc     O4  11910 -0.77449700  16.000000   ; qtot -1.428242
11911         c3    451    ccc     C6  11911 0.37576500  12.010000   ; qtot -1.052477
11912         ho    451    ccc     H6  11912 0.53656000   1.008000   ; qtot -0.515917
11913         ho    451    ccc     H7  11913 0.49492100   1.008000   ; qtot -0.020996
11914         ho    451    ccc     H8  11914 0.51297200   1.008000   ; qtot 0.491976
11915         h1    451    ccc     H9  11915 0.05653400   1.008000   ; qtot 0.548510
11916         h1    451    ccc    H10  11916 0.05653400   1.008000   ; qtot 0.605044
11917         oh    451    ccc     O5  11917 -0.84113600  16.000000   ; qtot -0.236092
11918         ho    451    ccc    H11  11918 0.51201600   1.008000   ; qtot 0.275924
11919         os    451    ccc     O6  11919 -0.26013600  16.000000   ; qtot 0.015788
; residue  452 ccc rtp ccc q 0.0
11920         c3    452    ccc     C1  11920 -0.33178800  12.010000   ; qtot -0.316000
11921         c3    452    ccc     C2  11921 0.30606500  12.010000   ; qtot -0.009935
11922         h1    452    ccc     H1  11922 0.11662300   1.008000   ; qtot 0.106688
11923         h1    452    ccc     H2  11923 0.11526800   1.008000   ; qtot 0.221956
11924         c3    452    ccc     C3  11924 0.15592700  12.010000   ; qtot 0.377883
11925         c3    452    ccc     C4  11925 0.28383300  12.010000   ; qtot 0.661716
11926         c3    452    ccc     C5  11926 0.32403300  12.010000   ; qtot 0.985749
11927         h1    452    ccc     H3  11927 0.13386900   1.008000   ; qtot 1.119618
11928         h1    452    ccc     H4  11928 0.10146700   1.008000   ; qtot 1.221085
11929         h2    452    ccc     H5  11929 0.10960400   1.008000   ; qtot 1.330689
11930         os    452    ccc     O1  11930 -0.28650000  16.000000   ; qtot 1.044189
11931         oh    452    ccc     O2  11931 -0.86012500  16.000000   ; qtot 0.184064
11932         oh    452    ccc     O3  11932 -0.83772800  16.000000   ; qtot -0.653664
11933         oh    452    ccc     O4  11933 -0.77449700  16.000000   ; qtot -1.428161
11934         c3    452    ccc     C6  11934 0.37576500  12.010000   ; qtot -1.052396
11935         ho    452    ccc     H6  11935 0.53656000   1.008000   ; qtot -0.515836
11936         ho    452    ccc     H7  11936 0.49492100   1.008000   ; qtot -0.020915
11937         ho    452    ccc     H8  11937 0.51297200   1.008000   ; qtot 0.492057
11938         h1    452    ccc     H9  11938 0.05653400   1.008000   ; qtot 0.548591
11939         h1    452    ccc    H10  11939 0.05653400   1.008000   ; qtot 0.605125
11940         oh    452    ccc     O5  11940 -0.84113600  16.000000   ; qtot -0.236011
11941         ho    452    ccc    H11  11941 0.51201600   1.008000   ; qtot 0.276005
11942         os    452    ccc     O6  11942 -0.26013600  16.000000   ; qtot 0.015869
; residue  453 ccc rtp ccc q 0.0
11943         c3    453    ccc     C1  11943 -0.33178800  12.010000   ; qtot -0.315919
11944         c3    453    ccc     C2  11944 0.30606500  12.010000   ; qtot -0.009854
11945         h1    453    ccc     H1  11945 0.11662300   1.008000   ; qtot 0.106769
11946         h1    453    ccc     H2  11946 0.11526800   1.008000   ; qtot 0.222037
11947         c3    453    ccc     C3  11947 0.15592700  12.010000   ; qtot 0.377964
11948         c3    453    ccc     C4  11948 0.28383300  12.010000   ; qtot 0.661797
11949         c3    453    ccc     C5  11949 0.32403300  12.010000   ; qtot 0.985830
11950         h1    453    ccc     H3  11950 0.13386900   1.008000   ; qtot 1.119699
11951         h1    453    ccc     H4  11951 0.10146700   1.008000   ; qtot 1.221166
11952         h2    453    ccc     H5  11952 0.10960400   1.008000   ; qtot 1.330770
11953         os    453    ccc     O1  11953 -0.28650000  16.000000   ; qtot 1.044270
11954         oh    453    ccc     O2  11954 -0.86012500  16.000000   ; qtot 0.184145
11955         oh    453    ccc     O3  11955 -0.83772800  16.000000   ; qtot -0.653583
11956         oh    453    ccc     O4  11956 -0.77449700  16.000000   ; qtot -1.428080
11957         c3    453    ccc     C6  11957 0.37576500  12.010000   ; qtot -1.052315
11958         ho    453    ccc     H6  11958 0.53656000   1.008000   ; qtot -0.515755
11959         ho    453    ccc     H7  11959 0.49492100   1.008000   ; qtot -0.020834
11960         ho    453    ccc     H8  11960 0.51297200   1.008000   ; qtot 0.492138
11961         h1    453    ccc     H9  11961 0.05653400   1.008000   ; qtot 0.548672
11962         h1    453    ccc    H10  11962 0.05653400   1.008000   ; qtot 0.605206
11963         oh    453    ccc     O5  11963 -0.84113600  16.000000   ; qtot -0.235930
11964         ho    453    ccc    H11  11964 0.51201600   1.008000   ; qtot 0.276086
11965         os    453    ccc     O6  11965 -0.26013600  16.000000   ; qtot 0.015950
; residue  454 ccc rtp ccc q 0.0
11966         c3    454    ccc     C1  11966 -0.33178800  12.010000   ; qtot -0.315838
11967         c3    454    ccc     C2  11967 0.30606500  12.010000   ; qtot -0.009773
11968         h1    454    ccc     H1  11968 0.11662300   1.008000   ; qtot 0.106850
11969         h1    454    ccc     H2  11969 0.11526800   1.008000   ; qtot 0.222118
11970         c3    454    ccc     C3  11970 0.15592700  12.010000   ; qtot 0.378045
11971         c3    454    ccc     C4  11971 0.28383300  12.010000   ; qtot 0.661878
11972         c3    454    ccc     C5  11972 0.32403300  12.010000   ; qtot 0.985911
11973         h1    454    ccc     H3  11973 0.13386900   1.008000   ; qtot 1.119780
11974         h1    454    ccc     H4  11974 0.10146700   1.008000   ; qtot 1.221247
11975         h2    454    ccc     H5  11975 0.10960400   1.008000   ; qtot 1.330851
11976         os    454    ccc     O1  11976 -0.28650000  16.000000   ; qtot 1.044351
11977         oh    454    ccc     O2  11977 -0.86012500  16.000000   ; qtot 0.184226
11978         oh    454    ccc     O3  11978 -0.83772800  16.000000   ; qtot -0.653502
11979         oh    454    ccc     O4  11979 -0.77449700  16.000000   ; qtot -1.427999
11980         c3    454    ccc     C6  11980 0.37576500  12.010000   ; qtot -1.052234
11981         ho    454    ccc     H6  11981 0.53656000   1.008000   ; qtot -0.515674
11982         ho    454    ccc     H7  11982 0.49492100   1.008000   ; qtot -0.020753
11983         ho    454    ccc     H8  11983 0.51297200   1.008000   ; qtot 0.492219
11984         h1    454    ccc     H9  11984 0.05653400   1.008000   ; qtot 0.548753
11985         h1    454    ccc    H10  11985 0.05653400   1.008000   ; qtot 0.605287
11986         oh    454    ccc     O5  11986 -0.84113600  16.000000   ; qtot -0.235849
11987         ho    454    ccc    H11  11987 0.51201600   1.008000   ; qtot 0.276167
11988         os    454    ccc     O6  11988 -0.26013600  16.000000   ; qtot 0.016031
; residue  455 ccc rtp ccc q 0.0
11989         c3    455    ccc     C1  11989 -0.33178800  12.010000   ; qtot -0.315757
11990         c3    455    ccc     C2  11990 0.30606500  12.010000   ; qtot -0.009692
11991         h1    455    ccc     H1  11991 0.11662300   1.008000   ; qtot 0.106931
11992         h1    455    ccc     H2  11992 0.11526800   1.008000   ; qtot 0.222199
11993         c3    455    ccc     C3  11993 0.15592700  12.010000   ; qtot 0.378126
11994         c3    455    ccc     C4  11994 0.28383300  12.010000   ; qtot 0.661959
11995         c3    455    ccc     C5  11995 0.32403300  12.010000   ; qtot 0.985992
11996         h1    455    ccc     H3  11996 0.13386900   1.008000   ; qtot 1.119861
11997         h1    455    ccc     H4  11997 0.10146700   1.008000   ; qtot 1.221328
11998         h2    455    ccc     H5  11998 0.10960400   1.008000   ; qtot 1.330932
11999         os    455    ccc     O1  11999 -0.28650000  16.000000   ; qtot 1.044432
12000         oh    455    ccc     O2  12000 -0.86012500  16.000000   ; qtot 0.184307
12001         oh    455    ccc     O3  12001 -0.83772800  16.000000   ; qtot -0.653421
12002         oh    455    ccc     O4  12002 -0.77449700  16.000000   ; qtot -1.427918
12003         c3    455    ccc     C6  12003 0.37576500  12.010000   ; qtot -1.052153
12004         ho    455    ccc     H6  12004 0.53656000   1.008000   ; qtot -0.515593
12005         ho    455    ccc     H7  12005 0.49492100   1.008000   ; qtot -0.020672
12006         ho    455    ccc     H8  12006 0.51297200   1.008000   ; qtot 0.492300
12007         h1    455    ccc     H9  12007 0.05653400   1.008000   ; qtot 0.548834
12008         h1    455    ccc    H10  12008 0.05653400   1.008000   ; qtot 0.605368
12009         oh    455    ccc     O5  12009 -0.84113600  16.000000   ; qtot -0.235768
12010         ho    455    ccc    H11  12010 0.51201600   1.008000   ; qtot 0.276248
12011         os    455    ccc     O6  12011 -0.26013600  16.000000   ; qtot 0.016112
; residue  456 ccc rtp ccc q 0.0
12012         c3    456    ccc     C1  12012 -0.33178800  12.010000   ; qtot -0.315676
12013         c3    456    ccc     C2  12013 0.30606500  12.010000   ; qtot -0.009611
12014         h1    456    ccc     H1  12014 0.11662300   1.008000   ; qtot 0.107012
12015         h1    456    ccc     H2  12015 0.11526800   1.008000   ; qtot 0.222280
12016         c3    456    ccc     C3  12016 0.15592700  12.010000   ; qtot 0.378207
12017         c3    456    ccc     C4  12017 0.28383300  12.010000   ; qtot 0.662040
12018         c3    456    ccc     C5  12018 0.32403300  12.010000   ; qtot 0.986073
12019         h1    456    ccc     H3  12019 0.13386900   1.008000   ; qtot 1.119942
12020         h1    456    ccc     H4  12020 0.10146700   1.008000   ; qtot 1.221409
12021         h2    456    ccc     H5  12021 0.10960400   1.008000   ; qtot 1.331013
12022         os    456    ccc     O1  12022 -0.28650000  16.000000   ; qtot 1.044513
12023         oh    456    ccc     O2  12023 -0.86012500  16.000000   ; qtot 0.184388
12024         oh    456    ccc     O3  12024 -0.83772800  16.000000   ; qtot -0.653340
12025         oh    456    ccc     O4  12025 -0.77449700  16.000000   ; qtot -1.427837
12026         c3    456    ccc     C6  12026 0.37576500  12.010000   ; qtot -1.052072
12027         ho    456    ccc     H6  12027 0.53656000   1.008000   ; qtot -0.515512
12028         ho    456    ccc     H7  12028 0.49492100   1.008000   ; qtot -0.020591
12029         ho    456    ccc     H8  12029 0.51297200   1.008000   ; qtot 0.492381
12030         h1    456    ccc     H9  12030 0.05653400   1.008000   ; qtot 0.548915
12031         h1    456    ccc    H10  12031 0.05653400   1.008000   ; qtot 0.605449
12032         oh    456    ccc     O5  12032 -0.84113600  16.000000   ; qtot -0.235687
12033         ho    456    ccc    H11  12033 0.51201600   1.008000   ; qtot 0.276329
12034         os    456    ccc     O6  12034 -0.26013600  16.000000   ; qtot 0.016193
; residue  457 ccc rtp ccc q 0.0
12035         c3    457    ccc     C1  12035 -0.33178800  12.010000   ; qtot -0.315595
12036         c3    457    ccc     C2  12036 0.30606500  12.010000   ; qtot -0.009530
12037         h1    457    ccc     H1  12037 0.11662300   1.008000   ; qtot 0.107093
12038         h1    457    ccc     H2  12038 0.11526800   1.008000   ; qtot 0.222361
12039         c3    457    ccc     C3  12039 0.15592700  12.010000   ; qtot 0.378288
12040         c3    457    ccc     C4  12040 0.28383300  12.010000   ; qtot 0.662121
12041         c3    457    ccc     C5  12041 0.32403300  12.010000   ; qtot 0.986154
12042         h1    457    ccc     H3  12042 0.13386900   1.008000   ; qtot 1.120023
12043         h1    457    ccc     H4  12043 0.10146700   1.008000   ; qtot 1.221490
12044         h2    457    ccc     H5  12044 0.10960400   1.008000   ; qtot 1.331094
12045         os    457    ccc     O1  12045 -0.28650000  16.000000   ; qtot 1.044594
12046         oh    457    ccc     O2  12046 -0.86012500  16.000000   ; qtot 0.184469
12047         oh    457    ccc     O3  12047 -0.83772800  16.000000   ; qtot -0.653259
12048         oh    457    ccc     O4  12048 -0.77449700  16.000000   ; qtot -1.427756
12049         c3    457    ccc     C6  12049 0.37576500  12.010000   ; qtot -1.051991
12050         ho    457    ccc     H6  12050 0.53656000   1.008000   ; qtot -0.515431
12051         ho    457    ccc     H7  12051 0.49492100   1.008000   ; qtot -0.020510
12052         ho    457    ccc     H8  12052 0.51297200   1.008000   ; qtot 0.492462
12053         h1    457    ccc     H9  12053 0.05653400   1.008000   ; qtot 0.548996
12054         h1    457    ccc    H10  12054 0.05653400   1.008000   ; qtot 0.605530
12055         oh    457    ccc     O5  12055 -0.84113600  16.000000   ; qtot -0.235606
12056         ho    457    ccc    H11  12056 0.51201600   1.008000   ; qtot 0.276410
12057         os    457    ccc     O6  12057 -0.26013600  16.000000   ; qtot 0.016274
; residue  458 ccc rtp ccc q 0.0
12058         c3    458    ccc     C1  12058 -0.33178800  12.010000   ; qtot -0.315514
12059         c3    458    ccc     C2  12059 0.30606500  12.010000   ; qtot -0.009449
12060         h1    458    ccc     H1  12060 0.11662300   1.008000   ; qtot 0.107174
12061         h1    458    ccc     H2  12061 0.11526800   1.008000   ; qtot 0.222442
12062         c3    458    ccc     C3  12062 0.15592700  12.010000   ; qtot 0.378369
12063         c3    458    ccc     C4  12063 0.28383300  12.010000   ; qtot 0.662202
12064         c3    458    ccc     C5  12064 0.32403300  12.010000   ; qtot 0.986235
12065         h1    458    ccc     H3  12065 0.13386900   1.008000   ; qtot 1.120104
12066         h1    458    ccc     H4  12066 0.10146700   1.008000   ; qtot 1.221571
12067         h2    458    ccc     H5  12067 0.10960400   1.008000   ; qtot 1.331175
12068         os    458    ccc     O1  12068 -0.28650000  16.000000   ; qtot 1.044675
12069         oh    458    ccc     O2  12069 -0.86012500  16.000000   ; qtot 0.184550
12070         oh    458    ccc     O3  12070 -0.83772800  16.000000   ; qtot -0.653178
12071         oh    458    ccc     O4  12071 -0.77449700  16.000000   ; qtot -1.427675
12072         c3    458    ccc     C6  12072 0.37576500  12.010000   ; qtot -1.051910
12073         ho    458    ccc     H6  12073 0.53656000   1.008000   ; qtot -0.515350
12074         ho    458    ccc     H7  12074 0.49492100   1.008000   ; qtot -0.020429
12075         ho    458    ccc     H8  12075 0.51297200   1.008000   ; qtot 0.492543
12076         h1    458    ccc     H9  12076 0.05653400   1.008000   ; qtot 0.549077
12077         h1    458    ccc    H10  12077 0.05653400   1.008000   ; qtot 0.605611
12078         oh    458    ccc     O5  12078 -0.84113600  16.000000   ; qtot -0.235525
12079         ho    458    ccc    H11  12079 0.51201600   1.008000   ; qtot 0.276491
12080         os    458    ccc     O6  12080 -0.26013600  16.000000   ; qtot 0.016355
; residue  459 ccc rtp ccc q 0.0
12081         c3    459    ccc     C1  12081 -0.33178800  12.010000   ; qtot -0.315433
12082         c3    459    ccc     C2  12082 0.30606500  12.010000   ; qtot -0.009368
12083         h1    459    ccc     H1  12083 0.11662300   1.008000   ; qtot 0.107255
12084         h1    459    ccc     H2  12084 0.11526800   1.008000   ; qtot 0.222523
12085         c3    459    ccc     C3  12085 0.15592700  12.010000   ; qtot 0.378450
12086         c3    459    ccc     C4  12086 0.28383300  12.010000   ; qtot 0.662283
12087         c3    459    ccc     C5  12087 0.32403300  12.010000   ; qtot 0.986316
12088         h1    459    ccc     H3  12088 0.13386900   1.008000   ; qtot 1.120185
12089         h1    459    ccc     H4  12089 0.10146700   1.008000   ; qtot 1.221652
12090         h2    459    ccc     H5  12090 0.10960400   1.008000   ; qtot 1.331256
12091         os    459    ccc     O1  12091 -0.28650000  16.000000   ; qtot 1.044756
12092         oh    459    ccc     O2  12092 -0.86012500  16.000000   ; qtot 0.184631
12093         oh    459    ccc     O3  12093 -0.83772800  16.000000   ; qtot -0.653097
12094         oh    459    ccc     O4  12094 -0.77449700  16.000000   ; qtot -1.427594
12095         c3    459    ccc     C6  12095 0.37576500  12.010000   ; qtot -1.051829
12096         ho    459    ccc     H6  12096 0.53656000   1.008000   ; qtot -0.515269
12097         ho    459    ccc     H7  12097 0.49492100   1.008000   ; qtot -0.020348
12098         ho    459    ccc     H8  12098 0.51297200   1.008000   ; qtot 0.492624
12099         h1    459    ccc     H9  12099 0.05653400   1.008000   ; qtot 0.549158
12100         h1    459    ccc    H10  12100 0.05653400   1.008000   ; qtot 0.605692
12101         oh    459    ccc     O5  12101 -0.84113600  16.000000   ; qtot -0.235444
12102         ho    459    ccc    H11  12102 0.51201600   1.008000   ; qtot 0.276572
12103         os    459    ccc     O6  12103 -0.26013600  16.000000   ; qtot 0.016436
; residue  460 ccc rtp ccc q 0.0
12104         c3    460    ccc     C1  12104 -0.33178800  12.010000   ; qtot -0.315352
12105         c3    460    ccc     C2  12105 0.30606500  12.010000   ; qtot -0.009287
12106         h1    460    ccc     H1  12106 0.11662300   1.008000   ; qtot 0.107336
12107         h1    460    ccc     H2  12107 0.11526800   1.008000   ; qtot 0.222604
12108         c3    460    ccc     C3  12108 0.15592700  12.010000   ; qtot 0.378531
12109         c3    460    ccc     C4  12109 0.28383300  12.010000   ; qtot 0.662364
12110         c3    460    ccc     C5  12110 0.32403300  12.010000   ; qtot 0.986397
12111         h1    460    ccc     H3  12111 0.13386900   1.008000   ; qtot 1.120266
12112         h1    460    ccc     H4  12112 0.10146700   1.008000   ; qtot 1.221733
12113         h2    460    ccc     H5  12113 0.10960400   1.008000   ; qtot 1.331337
12114         os    460    ccc     O1  12114 -0.28650000  16.000000   ; qtot 1.044837
12115         oh    460    ccc     O2  12115 -0.86012500  16.000000   ; qtot 0.184712
12116         oh    460    ccc     O3  12116 -0.83772800  16.000000   ; qtot -0.653016
12117         oh    460    ccc     O4  12117 -0.77449700  16.000000   ; qtot -1.427513
12118         c3    460    ccc     C6  12118 0.37576500  12.010000   ; qtot -1.051748
12119         ho    460    ccc     H6  12119 0.53656000   1.008000   ; qtot -0.515188
12120         ho    460    ccc     H7  12120 0.49492100   1.008000   ; qtot -0.020267
12121         ho    460    ccc     H8  12121 0.51297200   1.008000   ; qtot 0.492705
12122         h1    460    ccc     H9  12122 0.05653400   1.008000   ; qtot 0.549239
12123         h1    460    ccc    H10  12123 0.05653400   1.008000   ; qtot 0.605773
12124         oh    460    ccc     O5  12124 -0.84113600  16.000000   ; qtot -0.235363
12125         ho    460    ccc    H11  12125 0.51201600   1.008000   ; qtot 0.276653
12126         os    460    ccc     O6  12126 -0.26013600  16.000000   ; qtot 0.016517
; residue  461 ccc rtp ccc q 0.0
12127         c3    461    ccc     C1  12127 -0.33178800  12.010000   ; qtot -0.315271
12128         c3    461    ccc     C2  12128 0.30606500  12.010000   ; qtot -0.009206
12129         h1    461    ccc     H1  12129 0.11662300   1.008000   ; qtot 0.107417
12130         h1    461    ccc     H2  12130 0.11526800   1.008000   ; qtot 0.222685
12131         c3    461    ccc     C3  12131 0.15592700  12.010000   ; qtot 0.378612
12132         c3    461    ccc     C4  12132 0.28383300  12.010000   ; qtot 0.662445
12133         c3    461    ccc     C5  12133 0.32403300  12.010000   ; qtot 0.986478
12134         h1    461    ccc     H3  12134 0.13386900   1.008000   ; qtot 1.120347
12135         h1    461    ccc     H4  12135 0.10146700   1.008000   ; qtot 1.221814
12136         h2    461    ccc     H5  12136 0.10960400   1.008000   ; qtot 1.331418
12137         os    461    ccc     O1  12137 -0.28650000  16.000000   ; qtot 1.044918
12138         oh    461    ccc     O2  12138 -0.86012500  16.000000   ; qtot 0.184793
12139         oh    461    ccc     O3  12139 -0.83772800  16.000000   ; qtot -0.652935
12140         oh    461    ccc     O4  12140 -0.77449700  16.000000   ; qtot -1.427432
12141         c3    461    ccc     C6  12141 0.37576500  12.010000   ; qtot -1.051667
12142         ho    461    ccc     H6  12142 0.53656000   1.008000   ; qtot -0.515107
12143         ho    461    ccc     H7  12143 0.49492100   1.008000   ; qtot -0.020186
12144         ho    461    ccc     H8  12144 0.51297200   1.008000   ; qtot 0.492786
12145         h1    461    ccc     H9  12145 0.05653400   1.008000   ; qtot 0.549320
12146         h1    461    ccc    H10  12146 0.05653400   1.008000   ; qtot 0.605854
12147         oh    461    ccc     O5  12147 -0.84113600  16.000000   ; qtot -0.235282
12148         ho    461    ccc    H11  12148 0.51201600   1.008000   ; qtot 0.276734
12149         os    461    ccc     O6  12149 -0.26013600  16.000000   ; qtot 0.016598
; residue  462 ccc rtp ccc q 0.0
12150         c3    462    ccc     C1  12150 -0.33178800  12.010000   ; qtot -0.315190
12151         c3    462    ccc     C2  12151 0.30606500  12.010000   ; qtot -0.009125
12152         h1    462    ccc     H1  12152 0.11662300   1.008000   ; qtot 0.107498
12153         h1    462    ccc     H2  12153 0.11526800   1.008000   ; qtot 0.222766
12154         c3    462    ccc     C3  12154 0.15592700  12.010000   ; qtot 0.378693
12155         c3    462    ccc     C4  12155 0.28383300  12.010000   ; qtot 0.662526
12156         c3    462    ccc     C5  12156 0.32403300  12.010000   ; qtot 0.986559
12157         h1    462    ccc     H3  12157 0.13386900   1.008000   ; qtot 1.120428
12158         h1    462    ccc     H4  12158 0.10146700   1.008000   ; qtot 1.221895
12159         h2    462    ccc     H5  12159 0.10960400   1.008000   ; qtot 1.331499
12160         os    462    ccc     O1  12160 -0.28650000  16.000000   ; qtot 1.044999
12161         oh    462    ccc     O2  12161 -0.86012500  16.000000   ; qtot 0.184874
12162         oh    462    ccc     O3  12162 -0.83772800  16.000000   ; qtot -0.652854
12163         oh    462    ccc     O4  12163 -0.77449700  16.000000   ; qtot -1.427351
12164         c3    462    ccc     C6  12164 0.37576500  12.010000   ; qtot -1.051586
12165         ho    462    ccc     H6  12165 0.53656000   1.008000   ; qtot -0.515026
12166         ho    462    ccc     H7  12166 0.49492100   1.008000   ; qtot -0.020105
12167         ho    462    ccc     H8  12167 0.51297200   1.008000   ; qtot 0.492867
12168         h1    462    ccc     H9  12168 0.05653400   1.008000   ; qtot 0.549401
12169         h1    462    ccc    H10  12169 0.05653400   1.008000   ; qtot 0.605935
12170         oh    462    ccc     O5  12170 -0.84113600  16.000000   ; qtot -0.235201
12171         ho    462    ccc    H11  12171 0.51201600   1.008000   ; qtot 0.276815
12172         os    462    ccc     O6  12172 -0.26013600  16.000000   ; qtot 0.016679
; residue  463 ccc rtp ccc q 0.0
12173         c3    463    ccc     C1  12173 -0.33178800  12.010000   ; qtot -0.315109
12174         c3    463    ccc     C2  12174 0.30606500  12.010000   ; qtot -0.009044
12175         h1    463    ccc     H1  12175 0.11662300   1.008000   ; qtot 0.107579
12176         h1    463    ccc     H2  12176 0.11526800   1.008000   ; qtot 0.222847
12177         c3    463    ccc     C3  12177 0.15592700  12.010000   ; qtot 0.378774
12178         c3    463    ccc     C4  12178 0.28383300  12.010000   ; qtot 0.662607
12179         c3    463    ccc     C5  12179 0.32403300  12.010000   ; qtot 0.986640
12180         h1    463    ccc     H3  12180 0.13386900   1.008000   ; qtot 1.120509
12181         h1    463    ccc     H4  12181 0.10146700   1.008000   ; qtot 1.221976
12182         h2    463    ccc     H5  12182 0.10960400   1.008000   ; qtot 1.331580
12183         os    463    ccc     O1  12183 -0.28650000  16.000000   ; qtot 1.045080
12184         oh    463    ccc     O2  12184 -0.86012500  16.000000   ; qtot 0.184955
12185         oh    463    ccc     O3  12185 -0.83772800  16.000000   ; qtot -0.652773
12186         oh    463    ccc     O4  12186 -0.77449700  16.000000   ; qtot -1.427270
12187         c3    463    ccc     C6  12187 0.37576500  12.010000   ; qtot -1.051505
12188         ho    463    ccc     H6  12188 0.53656000   1.008000   ; qtot -0.514945
12189         ho    463    ccc     H7  12189 0.49492100   1.008000   ; qtot -0.020024
12190         ho    463    ccc     H8  12190 0.51297200   1.008000   ; qtot 0.492948
12191         h1    463    ccc     H9  12191 0.05653400   1.008000   ; qtot 0.549482
12192         h1    463    ccc    H10  12192 0.05653400   1.008000   ; qtot 0.606016
12193         oh    463    ccc     O5  12193 -0.84113600  16.000000   ; qtot -0.235120
12194         ho    463    ccc    H11  12194 0.51201600   1.008000   ; qtot 0.276896
12195         os    463    ccc     O6  12195 -0.26013600  16.000000   ; qtot 0.016760
; residue  464 ccc rtp ccc q 0.0
12196         c3    464    ccc     C1  12196 -0.33178800  12.010000   ; qtot -0.315028
12197         c3    464    ccc     C2  12197 0.30606500  12.010000   ; qtot -0.008963
12198         h1    464    ccc     H1  12198 0.11662300   1.008000   ; qtot 0.107660
12199         h1    464    ccc     H2  12199 0.11526800   1.008000   ; qtot 0.222928
12200         c3    464    ccc     C3  12200 0.15592700  12.010000   ; qtot 0.378855
12201         c3    464    ccc     C4  12201 0.28383300  12.010000   ; qtot 0.662688
12202         c3    464    ccc     C5  12202 0.32403300  12.010000   ; qtot 0.986721
12203         h1    464    ccc     H3  12203 0.13386900   1.008000   ; qtot 1.120590
12204         h1    464    ccc     H4  12204 0.10146700   1.008000   ; qtot 1.222057
12205         h2    464    ccc     H5  12205 0.10960400   1.008000   ; qtot 1.331661
12206         os    464    ccc     O1  12206 -0.28650000  16.000000   ; qtot 1.045161
12207         oh    464    ccc     O2  12207 -0.86012500  16.000000   ; qtot 0.185036
12208         oh    464    ccc     O3  12208 -0.83772800  16.000000   ; qtot -0.652692
12209         oh    464    ccc     O4  12209 -0.77449700  16.000000   ; qtot -1.427189
12210         c3    464    ccc     C6  12210 0.37576500  12.010000   ; qtot -1.051424
12211         ho    464    ccc     H6  12211 0.53656000   1.008000   ; qtot -0.514864
12212         ho    464    ccc     H7  12212 0.49492100   1.008000   ; qtot -0.019943
12213         ho    464    ccc     H8  12213 0.51297200   1.008000   ; qtot 0.493029
12214         h1    464    ccc     H9  12214 0.05653400   1.008000   ; qtot 0.549563
12215         h1    464    ccc    H10  12215 0.05653400   1.008000   ; qtot 0.606097
12216         oh    464    ccc     O5  12216 -0.84113600  16.000000   ; qtot -0.235039
12217         ho    464    ccc    H11  12217 0.51201600   1.008000   ; qtot 0.276977
12218         os    464    ccc     O6  12218 -0.26013600  16.000000   ; qtot 0.016841
; residue  465 ccc rtp ccc q 0.0
12219         c3    465    ccc     C1  12219 -0.33178800  12.010000   ; qtot -0.314947
12220         c3    465    ccc     C2  12220 0.30606500  12.010000   ; qtot -0.008882
12221         h1    465    ccc     H1  12221 0.11662300   1.008000   ; qtot 0.107741
12222         h1    465    ccc     H2  12222 0.11526800   1.008000   ; qtot 0.223009
12223         c3    465    ccc     C3  12223 0.15592700  12.010000   ; qtot 0.378936
12224         c3    465    ccc     C4  12224 0.28383300  12.010000   ; qtot 0.662769
12225         c3    465    ccc     C5  12225 0.32403300  12.010000   ; qtot 0.986802
12226         h1    465    ccc     H3  12226 0.13386900   1.008000   ; qtot 1.120671
12227         h1    465    ccc     H4  12227 0.10146700   1.008000   ; qtot 1.222138
12228         h2    465    ccc     H5  12228 0.10960400   1.008000   ; qtot 1.331742
12229         os    465    ccc     O1  12229 -0.28650000  16.000000   ; qtot 1.045242
12230         oh    465    ccc     O2  12230 -0.86012500  16.000000   ; qtot 0.185117
12231         oh    465    ccc     O3  12231 -0.83772800  16.000000   ; qtot -0.652611
12232         oh    465    ccc     O4  12232 -0.77449700  16.000000   ; qtot -1.427108
12233         c3    465    ccc     C6  12233 0.37576500  12.010000   ; qtot -1.051343
12234         ho    465    ccc     H6  12234 0.53656000   1.008000   ; qtot -0.514783
12235         ho    465    ccc     H7  12235 0.49492100   1.008000   ; qtot -0.019862
12236         ho    465    ccc     H8  12236 0.51297200   1.008000   ; qtot 0.493110
12237         h1    465    ccc     H9  12237 0.05653400   1.008000   ; qtot 0.549644
12238         h1    465    ccc    H10  12238 0.05653400   1.008000   ; qtot 0.606178
12239         oh    465    ccc     O5  12239 -0.84113600  16.000000   ; qtot -0.234958
12240         ho    465    ccc    H11  12240 0.51201600   1.008000   ; qtot 0.277058
12241         os    465    ccc     O6  12241 -0.26013600  16.000000   ; qtot 0.016922
; residue  466 ccc rtp ccc q 0.0
12242         c3    466    ccc     C1  12242 -0.33178800  12.010000   ; qtot -0.314866
12243         c3    466    ccc     C2  12243 0.30606500  12.010000   ; qtot -0.008801
12244         h1    466    ccc     H1  12244 0.11662300   1.008000   ; qtot 0.107822
12245         h1    466    ccc     H2  12245 0.11526800   1.008000   ; qtot 0.223090
12246         c3    466    ccc     C3  12246 0.15592700  12.010000   ; qtot 0.379017
12247         c3    466    ccc     C4  12247 0.28383300  12.010000   ; qtot 0.662850
12248         c3    466    ccc     C5  12248 0.32403300  12.010000   ; qtot 0.986883
12249         h1    466    ccc     H3  12249 0.13386900   1.008000   ; qtot 1.120752
12250         h1    466    ccc     H4  12250 0.10146700   1.008000   ; qtot 1.222219
12251         h2    466    ccc     H5  12251 0.10960400   1.008000   ; qtot 1.331823
12252         os    466    ccc     O1  12252 -0.28650000  16.000000   ; qtot 1.045323
12253         oh    466    ccc     O2  12253 -0.86012500  16.000000   ; qtot 0.185198
12254         oh    466    ccc     O3  12254 -0.83772800  16.000000   ; qtot -0.652530
12255         oh    466    ccc     O4  12255 -0.77449700  16.000000   ; qtot -1.427027
12256         c3    466    ccc     C6  12256 0.37576500  12.010000   ; qtot -1.051262
12257         ho    466    ccc     H6  12257 0.53656000   1.008000   ; qtot -0.514702
12258         ho    466    ccc     H7  12258 0.49492100   1.008000   ; qtot -0.019781
12259         ho    466    ccc     H8  12259 0.51297200   1.008000   ; qtot 0.493191
12260         h1    466    ccc     H9  12260 0.05653400   1.008000   ; qtot 0.549725
12261         h1    466    ccc    H10  12261 0.05653400   1.008000   ; qtot 0.606259
12262         oh    466    ccc     O5  12262 -0.84113600  16.000000   ; qtot -0.234877
12263         ho    466    ccc    H11  12263 0.51201600   1.008000   ; qtot 0.277139
12264         os    466    ccc     O6  12264 -0.26013600  16.000000   ; qtot 0.017003
; residue  467 ccc rtp ccc q 0.0
12265         c3    467    ccc     C1  12265 -0.33178800  12.010000   ; qtot -0.314785
12266         c3    467    ccc     C2  12266 0.30606500  12.010000   ; qtot -0.008720
12267         h1    467    ccc     H1  12267 0.11662300   1.008000   ; qtot 0.107903
12268         h1    467    ccc     H2  12268 0.11526800   1.008000   ; qtot 0.223171
12269         c3    467    ccc     C3  12269 0.15592700  12.010000   ; qtot 0.379098
12270         c3    467    ccc     C4  12270 0.28383300  12.010000   ; qtot 0.662931
12271         c3    467    ccc     C5  12271 0.32403300  12.010000   ; qtot 0.986964
12272         h1    467    ccc     H3  12272 0.13386900   1.008000   ; qtot 1.120833
12273         h1    467    ccc     H4  12273 0.10146700   1.008000   ; qtot 1.222300
12274         h2    467    ccc     H5  12274 0.10960400   1.008000   ; qtot 1.331904
12275         os    467    ccc     O1  12275 -0.28650000  16.000000   ; qtot 1.045404
12276         oh    467    ccc     O2  12276 -0.86012500  16.000000   ; qtot 0.185279
12277         oh    467    ccc     O3  12277 -0.83772800  16.000000   ; qtot -0.652449
12278         oh    467    ccc     O4  12278 -0.77449700  16.000000   ; qtot -1.426946
12279         c3    467    ccc     C6  12279 0.37576500  12.010000   ; qtot -1.051181
12280         ho    467    ccc     H6  12280 0.53656000   1.008000   ; qtot -0.514621
12281         ho    467    ccc     H7  12281 0.49492100   1.008000   ; qtot -0.019700
12282         ho    467    ccc     H8  12282 0.51297200   1.008000   ; qtot 0.493272
12283         h1    467    ccc     H9  12283 0.05653400   1.008000   ; qtot 0.549806
12284         h1    467    ccc    H10  12284 0.05653400   1.008000   ; qtot 0.606340
12285         oh    467    ccc     O5  12285 -0.84113600  16.000000   ; qtot -0.234796
12286         ho    467    ccc    H11  12286 0.51201600   1.008000   ; qtot 0.277220
12287         os    467    ccc     O6  12287 -0.26013600  16.000000   ; qtot 0.017084
; residue  468 ccc rtp ccc q 0.0
12288         c3    468    ccc     C1  12288 -0.33178800  12.010000   ; qtot -0.314704
12289         c3    468    ccc     C2  12289 0.30606500  12.010000   ; qtot -0.008639
12290         h1    468    ccc     H1  12290 0.11662300   1.008000   ; qtot 0.107984
12291         h1    468    ccc     H2  12291 0.11526800   1.008000   ; qtot 0.223252
12292         c3    468    ccc     C3  12292 0.15592700  12.010000   ; qtot 0.379179
12293         c3    468    ccc     C4  12293 0.28383300  12.010000   ; qtot 0.663012
12294         c3    468    ccc     C5  12294 0.32403300  12.010000   ; qtot 0.987045
12295         h1    468    ccc     H3  12295 0.13386900   1.008000   ; qtot 1.120914
12296         h1    468    ccc     H4  12296 0.10146700   1.008000   ; qtot 1.222381
12297         h2    468    ccc     H5  12297 0.10960400   1.008000   ; qtot 1.331985
12298         os    468    ccc     O1  12298 -0.28650000  16.000000   ; qtot 1.045485
12299         oh    468    ccc     O2  12299 -0.86012500  16.000000   ; qtot 0.185360
12300         oh    468    ccc     O3  12300 -0.83772800  16.000000   ; qtot -0.652368
12301         oh    468    ccc     O4  12301 -0.77449700  16.000000   ; qtot -1.426865
12302         c3    468    ccc     C6  12302 0.37576500  12.010000   ; qtot -1.051100
12303         ho    468    ccc     H6  12303 0.53656000   1.008000   ; qtot -0.514540
12304         ho    468    ccc     H7  12304 0.49492100   1.008000   ; qtot -0.019619
12305         ho    468    ccc     H8  12305 0.51297200   1.008000   ; qtot 0.493353
12306         h1    468    ccc     H9  12306 0.05653400   1.008000   ; qtot 0.549887
12307         h1    468    ccc    H10  12307 0.05653400   1.008000   ; qtot 0.606421
12308         oh    468    ccc     O5  12308 -0.84113600  16.000000   ; qtot -0.234715
12309         ho    468    ccc    H11  12309 0.51201600   1.008000   ; qtot 0.277301
12310         os    468    ccc     O6  12310 -0.26013600  16.000000   ; qtot 0.017165
; residue  469 ccc rtp ccc q 0.0
12311         c3    469    ccc     C1  12311 -0.33178800  12.010000   ; qtot -0.314623
12312         c3    469    ccc     C2  12312 0.30606500  12.010000   ; qtot -0.008558
12313         h1    469    ccc     H1  12313 0.11662300   1.008000   ; qtot 0.108065
12314         h1    469    ccc     H2  12314 0.11526800   1.008000   ; qtot 0.223333
12315         c3    469    ccc     C3  12315 0.15592700  12.010000   ; qtot 0.379260
12316         c3    469    ccc     C4  12316 0.28383300  12.010000   ; qtot 0.663093
12317         c3    469    ccc     C5  12317 0.32403300  12.010000   ; qtot 0.987126
12318         h1    469    ccc     H3  12318 0.13386900   1.008000   ; qtot 1.120995
12319         h1    469    ccc     H4  12319 0.10146700   1.008000   ; qtot 1.222462
12320         h2    469    ccc     H5  12320 0.10960400   1.008000   ; qtot 1.332066
12321         os    469    ccc     O1  12321 -0.28650000  16.000000   ; qtot 1.045566
12322         oh    469    ccc     O2  12322 -0.86012500  16.000000   ; qtot 0.185441
12323         oh    469    ccc     O3  12323 -0.83772800  16.000000   ; qtot -0.652287
12324         oh    469    ccc     O4  12324 -0.77449700  16.000000   ; qtot -1.426784
12325         c3    469    ccc     C6  12325 0.37576500  12.010000   ; qtot -1.051019
12326         ho    469    ccc     H6  12326 0.53656000   1.008000   ; qtot -0.514459
12327         ho    469    ccc     H7  12327 0.49492100   1.008000   ; qtot -0.019538
12328         ho    469    ccc     H8  12328 0.51297200   1.008000   ; qtot 0.493434
12329         h1    469    ccc     H9  12329 0.05653400   1.008000   ; qtot 0.549968
12330         h1    469    ccc    H10  12330 0.05653400   1.008000   ; qtot 0.606502
12331         oh    469    ccc     O5  12331 -0.84113600  16.000000   ; qtot -0.234634
12332         ho    469    ccc    H11  12332 0.51201600   1.008000   ; qtot 0.277382
12333         os    469    ccc     O6  12333 -0.26013600  16.000000   ; qtot 0.017246
; residue  470 ccc rtp ccc q 0.0
12334         c3    470    ccc     C1  12334 -0.33178800  12.010000   ; qtot -0.314542
12335         c3    470    ccc     C2  12335 0.30606500  12.010000   ; qtot -0.008477
12336         h1    470    ccc     H1  12336 0.11662300   1.008000   ; qtot 0.108146
12337         h1    470    ccc     H2  12337 0.11526800   1.008000   ; qtot 0.223414
12338         c3    470    ccc     C3  12338 0.15592700  12.010000   ; qtot 0.379341
12339         c3    470    ccc     C4  12339 0.28383300  12.010000   ; qtot 0.663174
12340         c3    470    ccc     C5  12340 0.32403300  12.010000   ; qtot 0.987207
12341         h1    470    ccc     H3  12341 0.13386900   1.008000   ; qtot 1.121076
12342         h1    470    ccc     H4  12342 0.10146700   1.008000   ; qtot 1.222543
12343         h2    470    ccc     H5  12343 0.10960400   1.008000   ; qtot 1.332147
12344         os    470    ccc     O1  12344 -0.28650000  16.000000   ; qtot 1.045647
12345         oh    470    ccc     O2  12345 -0.86012500  16.000000   ; qtot 0.185522
12346         oh    470    ccc     O3  12346 -0.83772800  16.000000   ; qtot -0.652206
12347         oh    470    ccc     O4  12347 -0.77449700  16.000000   ; qtot -1.426703
12348         c3    470    ccc     C6  12348 0.37576500  12.010000   ; qtot -1.050938
12349         ho    470    ccc     H6  12349 0.53656000   1.008000   ; qtot -0.514378
12350         ho    470    ccc     H7  12350 0.49492100   1.008000   ; qtot -0.019457
12351         ho    470    ccc     H8  12351 0.51297200   1.008000   ; qtot 0.493515
12352         h1    470    ccc     H9  12352 0.05653400   1.008000   ; qtot 0.550049
12353         h1    470    ccc    H10  12353 0.05653400   1.008000   ; qtot 0.606583
12354         oh    470    ccc     O5  12354 -0.84113600  16.000000   ; qtot -0.234553
12355         ho    470    ccc    H11  12355 0.51201600   1.008000   ; qtot 0.277463
12356         os    470    ccc     O6  12356 -0.26013600  16.000000   ; qtot 0.017327
; residue  471 ccc rtp ccc q 0.0
12357         c3    471    ccc     C1  12357 -0.33178800  12.010000   ; qtot -0.314461
12358         c3    471    ccc     C2  12358 0.30606500  12.010000   ; qtot -0.008396
12359         h1    471    ccc     H1  12359 0.11662300   1.008000   ; qtot 0.108227
12360         h1    471    ccc     H2  12360 0.11526800   1.008000   ; qtot 0.223495
12361         c3    471    ccc     C3  12361 0.15592700  12.010000   ; qtot 0.379422
12362         c3    471    ccc     C4  12362 0.28383300  12.010000   ; qtot 0.663255
12363         c3    471    ccc     C5  12363 0.32403300  12.010000   ; qtot 0.987288
12364         h1    471    ccc     H3  12364 0.13386900   1.008000   ; qtot 1.121157
12365         h1    471    ccc     H4  12365 0.10146700   1.008000   ; qtot 1.222624
12366         h2    471    ccc     H5  12366 0.10960400   1.008000   ; qtot 1.332228
12367         os    471    ccc     O1  12367 -0.28650000  16.000000   ; qtot 1.045728
12368         oh    471    ccc     O2  12368 -0.86012500  16.000000   ; qtot 0.185603
12369         oh    471    ccc     O3  12369 -0.83772800  16.000000   ; qtot -0.652125
12370         oh    471    ccc     O4  12370 -0.77449700  16.000000   ; qtot -1.426622
12371         c3    471    ccc     C6  12371 0.37576500  12.010000   ; qtot -1.050857
12372         ho    471    ccc     H6  12372 0.53656000   1.008000   ; qtot -0.514297
12373         ho    471    ccc     H7  12373 0.49492100   1.008000   ; qtot -0.019376
12374         ho    471    ccc     H8  12374 0.51297200   1.008000   ; qtot 0.493596
12375         h1    471    ccc     H9  12375 0.05653400   1.008000   ; qtot 0.550130
12376         h1    471    ccc    H10  12376 0.05653400   1.008000   ; qtot 0.606664
12377         oh    471    ccc     O5  12377 -0.84113600  16.000000   ; qtot -0.234472
12378         ho    471    ccc    H11  12378 0.51201600   1.008000   ; qtot 0.277544
12379         os    471    ccc     O6  12379 -0.26013600  16.000000   ; qtot 0.017408
; residue  472 ccc rtp ccc q 0.0
12380         c3    472    ccc     C1  12380 -0.33178800  12.010000   ; qtot -0.314380
12381         c3    472    ccc     C2  12381 0.30606500  12.010000   ; qtot -0.008315
12382         h1    472    ccc     H1  12382 0.11662300   1.008000   ; qtot 0.108308
12383         h1    472    ccc     H2  12383 0.11526800   1.008000   ; qtot 0.223576
12384         c3    472    ccc     C3  12384 0.15592700  12.010000   ; qtot 0.379503
12385         c3    472    ccc     C4  12385 0.28383300  12.010000   ; qtot 0.663336
12386         c3    472    ccc     C5  12386 0.32403300  12.010000   ; qtot 0.987369
12387         h1    472    ccc     H3  12387 0.13386900   1.008000   ; qtot 1.121238
12388         h1    472    ccc     H4  12388 0.10146700   1.008000   ; qtot 1.222705
12389         h2    472    ccc     H5  12389 0.10960400   1.008000   ; qtot 1.332309
12390         os    472    ccc     O1  12390 -0.28650000  16.000000   ; qtot 1.045809
12391         oh    472    ccc     O2  12391 -0.86012500  16.000000   ; qtot 0.185684
12392         oh    472    ccc     O3  12392 -0.83772800  16.000000   ; qtot -0.652044
12393         oh    472    ccc     O4  12393 -0.77449700  16.000000   ; qtot -1.426541
12394         c3    472    ccc     C6  12394 0.37576500  12.010000   ; qtot -1.050776
12395         ho    472    ccc     H6  12395 0.53656000   1.008000   ; qtot -0.514216
12396         ho    472    ccc     H7  12396 0.49492100   1.008000   ; qtot -0.019295
12397         ho    472    ccc     H8  12397 0.51297200   1.008000   ; qtot 0.493677
12398         h1    472    ccc     H9  12398 0.05653400   1.008000   ; qtot 0.550211
12399         h1    472    ccc    H10  12399 0.05653400   1.008000   ; qtot 0.606745
12400         oh    472    ccc     O5  12400 -0.84113600  16.000000   ; qtot -0.234391
12401         ho    472    ccc    H11  12401 0.51201600   1.008000   ; qtot 0.277625
12402         os    472    ccc     O6  12402 -0.26013600  16.000000   ; qtot 0.017489
; residue  473 ccc rtp ccc q 0.0
12403         c3    473    ccc     C1  12403 -0.33178800  12.010000   ; qtot -0.314299
12404         c3    473    ccc     C2  12404 0.30606500  12.010000   ; qtot -0.008234
12405         h1    473    ccc     H1  12405 0.11662300   1.008000   ; qtot 0.108389
12406         h1    473    ccc     H2  12406 0.11526800   1.008000   ; qtot 0.223657
12407         c3    473    ccc     C3  12407 0.15592700  12.010000   ; qtot 0.379584
12408         c3    473    ccc     C4  12408 0.28383300  12.010000   ; qtot 0.663417
12409         c3    473    ccc     C5  12409 0.32403300  12.010000   ; qtot 0.987450
12410         h1    473    ccc     H3  12410 0.13386900   1.008000   ; qtot 1.121319
12411         h1    473    ccc     H4  12411 0.10146700   1.008000   ; qtot 1.222786
12412         h2    473    ccc     H5  12412 0.10960400   1.008000   ; qtot 1.332390
12413         os    473    ccc     O1  12413 -0.28650000  16.000000   ; qtot 1.045890
12414         oh    473    ccc     O2  12414 -0.86012500  16.000000   ; qtot 0.185765
12415         oh    473    ccc     O3  12415 -0.83772800  16.000000   ; qtot -0.651963
12416         oh    473    ccc     O4  12416 -0.77449700  16.000000   ; qtot -1.426460
12417         c3    473    ccc     C6  12417 0.37576500  12.010000   ; qtot -1.050695
12418         ho    473    ccc     H6  12418 0.53656000   1.008000   ; qtot -0.514135
12419         ho    473    ccc     H7  12419 0.49492100   1.008000   ; qtot -0.019214
12420         ho    473    ccc     H8  12420 0.51297200   1.008000   ; qtot 0.493758
12421         h1    473    ccc     H9  12421 0.05653400   1.008000   ; qtot 0.550292
12422         h1    473    ccc    H10  12422 0.05653400   1.008000   ; qtot 0.606826
12423         oh    473    ccc     O5  12423 -0.84113600  16.000000   ; qtot -0.234310
12424         ho    473    ccc    H11  12424 0.51201600   1.008000   ; qtot 0.277706
12425         os    473    ccc     O6  12425 -0.26013600  16.000000   ; qtot 0.017570
; residue  474 ccc rtp ccc q 0.0
12426         c3    474    ccc     C1  12426 -0.33178800  12.010000   ; qtot -0.314218
12427         c3    474    ccc     C2  12427 0.30606500  12.010000   ; qtot -0.008153
12428         h1    474    ccc     H1  12428 0.11662300   1.008000   ; qtot 0.108470
12429         h1    474    ccc     H2  12429 0.11526800   1.008000   ; qtot 0.223738
12430         c3    474    ccc     C3  12430 0.15592700  12.010000   ; qtot 0.379665
12431         c3    474    ccc     C4  12431 0.28383300  12.010000   ; qtot 0.663498
12432         c3    474    ccc     C5  12432 0.32403300  12.010000   ; qtot 0.987531
12433         h1    474    ccc     H3  12433 0.13386900   1.008000   ; qtot 1.121400
12434         h1    474    ccc     H4  12434 0.10146700   1.008000   ; qtot 1.222867
12435         h2    474    ccc     H5  12435 0.10960400   1.008000   ; qtot 1.332471
12436         os    474    ccc     O1  12436 -0.28650000  16.000000   ; qtot 1.045971
12437         oh    474    ccc     O2  12437 -0.86012500  16.000000   ; qtot 0.185846
12438         oh    474    ccc     O3  12438 -0.83772800  16.000000   ; qtot -0.651882
12439         oh    474    ccc     O4  12439 -0.77449700  16.000000   ; qtot -1.426379
12440         c3    474    ccc     C6  12440 0.37576500  12.010000   ; qtot -1.050614
12441         ho    474    ccc     H6  12441 0.53656000   1.008000   ; qtot -0.514054
12442         ho    474    ccc     H7  12442 0.49492100   1.008000   ; qtot -0.019133
12443         ho    474    ccc     H8  12443 0.51297200   1.008000   ; qtot 0.493839
12444         h1    474    ccc     H9  12444 0.05653400   1.008000   ; qtot 0.550373
12445         h1    474    ccc    H10  12445 0.05653400   1.008000   ; qtot 0.606907
12446         oh    474    ccc     O5  12446 -0.84113600  16.000000   ; qtot -0.234229
12447         ho    474    ccc    H11  12447 0.51201600   1.008000   ; qtot 0.277787
12448         os    474    ccc     O6  12448 -0.26013600  16.000000   ; qtot 0.017651
; residue  475 ccc rtp ccc q 0.0
12449         c3    475    ccc     C1  12449 -0.33178800  12.010000   ; qtot -0.314137
12450         c3    475    ccc     C2  12450 0.30606500  12.010000   ; qtot -0.008072
12451         h1    475    ccc     H1  12451 0.11662300   1.008000   ; qtot 0.108551
12452         h1    475    ccc     H2  12452 0.11526800   1.008000   ; qtot 0.223819
12453         c3    475    ccc     C3  12453 0.15592700  12.010000   ; qtot 0.379746
12454         c3    475    ccc     C4  12454 0.28383300  12.010000   ; qtot 0.663579
12455         c3    475    ccc     C5  12455 0.32403300  12.010000   ; qtot 0.987612
12456         h1    475    ccc     H3  12456 0.13386900   1.008000   ; qtot 1.121481
12457         h1    475    ccc     H4  12457 0.10146700   1.008000   ; qtot 1.222948
12458         h2    475    ccc     H5  12458 0.10960400   1.008000   ; qtot 1.332552
12459         os    475    ccc     O1  12459 -0.28650000  16.000000   ; qtot 1.046052
12460         oh    475    ccc     O2  12460 -0.86012500  16.000000   ; qtot 0.185927
12461         oh    475    ccc     O3  12461 -0.83772800  16.000000   ; qtot -0.651801
12462         oh    475    ccc     O4  12462 -0.77449700  16.000000   ; qtot -1.426298
12463         c3    475    ccc     C6  12463 0.37576500  12.010000   ; qtot -1.050533
12464         ho    475    ccc     H6  12464 0.53656000   1.008000   ; qtot -0.513973
12465         ho    475    ccc     H7  12465 0.49492100   1.008000   ; qtot -0.019052
12466         ho    475    ccc     H8  12466 0.51297200   1.008000   ; qtot 0.493920
12467         h1    475    ccc     H9  12467 0.05653400   1.008000   ; qtot 0.550454
12468         h1    475    ccc    H10  12468 0.05653400   1.008000   ; qtot 0.606988
12469         oh    475    ccc     O5  12469 -0.84113600  16.000000   ; qtot -0.234148
12470         ho    475    ccc    H11  12470 0.51201600   1.008000   ; qtot 0.277868
12471         os    475    ccc     O6  12471 -0.26013600  16.000000   ; qtot 0.017732
; residue  476 ccc rtp ccc q 0.0
12472         c3    476    ccc     C1  12472 -0.33178800  12.010000   ; qtot -0.314056
12473         c3    476    ccc     C2  12473 0.30606500  12.010000   ; qtot -0.007991
12474         h1    476    ccc     H1  12474 0.11662300   1.008000   ; qtot 0.108632
12475         h1    476    ccc     H2  12475 0.11526800   1.008000   ; qtot 0.223900
12476         c3    476    ccc     C3  12476 0.15592700  12.010000   ; qtot 0.379827
12477         c3    476    ccc     C4  12477 0.28383300  12.010000   ; qtot 0.663660
12478         c3    476    ccc     C5  12478 0.32403300  12.010000   ; qtot 0.987693
12479         h1    476    ccc     H3  12479 0.13386900   1.008000   ; qtot 1.121562
12480         h1    476    ccc     H4  12480 0.10146700   1.008000   ; qtot 1.223029
12481         h2    476    ccc     H5  12481 0.10960400   1.008000   ; qtot 1.332633
12482         os    476    ccc     O1  12482 -0.28650000  16.000000   ; qtot 1.046133
12483         oh    476    ccc     O2  12483 -0.86012500  16.000000   ; qtot 0.186008
12484         oh    476    ccc     O3  12484 -0.83772800  16.000000   ; qtot -0.651720
12485         oh    476    ccc     O4  12485 -0.77449700  16.000000   ; qtot -1.426217
12486         c3    476    ccc     C6  12486 0.37576500  12.010000   ; qtot -1.050452
12487         ho    476    ccc     H6  12487 0.53656000   1.008000   ; qtot -0.513892
12488         ho    476    ccc     H7  12488 0.49492100   1.008000   ; qtot -0.018971
12489         ho    476    ccc     H8  12489 0.51297200   1.008000   ; qtot 0.494001
12490         h1    476    ccc     H9  12490 0.05653400   1.008000   ; qtot 0.550535
12491         h1    476    ccc    H10  12491 0.05653400   1.008000   ; qtot 0.607069
12492         oh    476    ccc     O5  12492 -0.84113600  16.000000   ; qtot -0.234067
12493         ho    476    ccc    H11  12493 0.51201600   1.008000   ; qtot 0.277949
12494         os    476    ccc     O6  12494 -0.26013600  16.000000   ; qtot 0.017813
; residue  477 ccc rtp ccc q 0.0
12495         c3    477    ccc     C1  12495 -0.33178800  12.010000   ; qtot -0.313975
12496         c3    477    ccc     C2  12496 0.30606500  12.010000   ; qtot -0.007910
12497         h1    477    ccc     H1  12497 0.11662300   1.008000   ; qtot 0.108713
12498         h1    477    ccc     H2  12498 0.11526800   1.008000   ; qtot 0.223981
12499         c3    477    ccc     C3  12499 0.15592700  12.010000   ; qtot 0.379908
12500         c3    477    ccc     C4  12500 0.28383300  12.010000   ; qtot 0.663741
12501         c3    477    ccc     C5  12501 0.32403300  12.010000   ; qtot 0.987774
12502         h1    477    ccc     H3  12502 0.13386900   1.008000   ; qtot 1.121643
12503         h1    477    ccc     H4  12503 0.10146700   1.008000   ; qtot 1.223110
12504         h2    477    ccc     H5  12504 0.10960400   1.008000   ; qtot 1.332714
12505         os    477    ccc     O1  12505 -0.28650000  16.000000   ; qtot 1.046214
12506         oh    477    ccc     O2  12506 -0.86012500  16.000000   ; qtot 0.186089
12507         oh    477    ccc     O3  12507 -0.83772800  16.000000   ; qtot -0.651639
12508         oh    477    ccc     O4  12508 -0.77449700  16.000000   ; qtot -1.426136
12509         c3    477    ccc     C6  12509 0.37576500  12.010000   ; qtot -1.050371
12510         ho    477    ccc     H6  12510 0.53656000   1.008000   ; qtot -0.513811
12511         ho    477    ccc     H7  12511 0.49492100   1.008000   ; qtot -0.018890
12512         ho    477    ccc     H8  12512 0.51297200   1.008000   ; qtot 0.494082
12513         h1    477    ccc     H9  12513 0.05653400   1.008000   ; qtot 0.550616
12514         h1    477    ccc    H10  12514 0.05653400   1.008000   ; qtot 0.607150
12515         oh    477    ccc     O5  12515 -0.84113600  16.000000   ; qtot -0.233986
12516         ho    477    ccc    H11  12516 0.51201600   1.008000   ; qtot 0.278030
12517         os    477    ccc     O6  12517 -0.26013600  16.000000   ; qtot 0.017894
; residue  478 ccc rtp ccc q 0.0
12518         c3    478    ccc     C1  12518 -0.33178800  12.010000   ; qtot -0.313894
12519         c3    478    ccc     C2  12519 0.30606500  12.010000   ; qtot -0.007829
12520         h1    478    ccc     H1  12520 0.11662300   1.008000   ; qtot 0.108794
12521         h1    478    ccc     H2  12521 0.11526800   1.008000   ; qtot 0.224062
12522         c3    478    ccc     C3  12522 0.15592700  12.010000   ; qtot 0.379989
12523         c3    478    ccc     C4  12523 0.28383300  12.010000   ; qtot 0.663822
12524         c3    478    ccc     C5  12524 0.32403300  12.010000   ; qtot 0.987855
12525         h1    478    ccc     H3  12525 0.13386900   1.008000   ; qtot 1.121724
12526         h1    478    ccc     H4  12526 0.10146700   1.008000   ; qtot 1.223191
12527         h2    478    ccc     H5  12527 0.10960400   1.008000   ; qtot 1.332795
12528         os    478    ccc     O1  12528 -0.28650000  16.000000   ; qtot 1.046295
12529         oh    478    ccc     O2  12529 -0.86012500  16.000000   ; qtot 0.186170
12530         oh    478    ccc     O3  12530 -0.83772800  16.000000   ; qtot -0.651558
12531         oh    478    ccc     O4  12531 -0.77449700  16.000000   ; qtot -1.426055
12532         c3    478    ccc     C6  12532 0.37576500  12.010000   ; qtot -1.050290
12533         ho    478    ccc     H6  12533 0.53656000   1.008000   ; qtot -0.513730
12534         ho    478    ccc     H7  12534 0.49492100   1.008000   ; qtot -0.018809
12535         ho    478    ccc     H8  12535 0.51297200   1.008000   ; qtot 0.494163
12536         h1    478    ccc     H9  12536 0.05653400   1.008000   ; qtot 0.550697
12537         h1    478    ccc    H10  12537 0.05653400   1.008000   ; qtot 0.607231
12538         oh    478    ccc     O5  12538 -0.84113600  16.000000   ; qtot -0.233905
12539         ho    478    ccc    H11  12539 0.51201600   1.008000   ; qtot 0.278111
12540         os    478    ccc     O6  12540 -0.26013600  16.000000   ; qtot 0.017975
; residue  479 ccc rtp ccc q 0.0
12541         c3    479    ccc     C1  12541 -0.33178800  12.010000   ; qtot -0.313813
12542         c3    479    ccc     C2  12542 0.30606500  12.010000   ; qtot -0.007748
12543         h1    479    ccc     H1  12543 0.11662300   1.008000   ; qtot 0.108875
12544         h1    479    ccc     H2  12544 0.11526800   1.008000   ; qtot 0.224143
12545         c3    479    ccc     C3  12545 0.15592700  12.010000   ; qtot 0.380070
12546         c3    479    ccc     C4  12546 0.28383300  12.010000   ; qtot 0.663903
12547         c3    479    ccc     C5  12547 0.32403300  12.010000   ; qtot 0.987936
12548         h1    479    ccc     H3  12548 0.13386900   1.008000   ; qtot 1.121805
12549         h1    479    ccc     H4  12549 0.10146700   1.008000   ; qtot 1.223272
12550         h2    479    ccc     H5  12550 0.10960400   1.008000   ; qtot 1.332876
12551         os    479    ccc     O1  12551 -0.28650000  16.000000   ; qtot 1.046376
12552         oh    479    ccc     O2  12552 -0.86012500  16.000000   ; qtot 0.186251
12553         oh    479    ccc     O3  12553 -0.83772800  16.000000   ; qtot -0.651477
12554         oh    479    ccc     O4  12554 -0.77449700  16.000000   ; qtot -1.425974
12555         c3    479    ccc     C6  12555 0.37576500  12.010000   ; qtot -1.050209
12556         ho    479    ccc     H6  12556 0.53656000   1.008000   ; qtot -0.513649
12557         ho    479    ccc     H7  12557 0.49492100   1.008000   ; qtot -0.018728
12558         ho    479    ccc     H8  12558 0.51297200   1.008000   ; qtot 0.494244
12559         h1    479    ccc     H9  12559 0.05653400   1.008000   ; qtot 0.550778
12560         h1    479    ccc    H10  12560 0.05653400   1.008000   ; qtot 0.607312
12561         oh    479    ccc     O5  12561 -0.84113600  16.000000   ; qtot -0.233824
12562         ho    479    ccc    H11  12562 0.51201600   1.008000   ; qtot 0.278192
12563         os    479    ccc     O6  12563 -0.26013600  16.000000   ; qtot 0.018056
; residue  480 ccc rtp ccc q 0.0
12564         c3    480    ccc     C1  12564 -0.33178800  12.010000   ; qtot -0.313732
12565         c3    480    ccc     C2  12565 0.30606500  12.010000   ; qtot -0.007667
12566         h1    480    ccc     H1  12566 0.11662300   1.008000   ; qtot 0.108956
12567         h1    480    ccc     H2  12567 0.11526800   1.008000   ; qtot 0.224224
12568         c3    480    ccc     C3  12568 0.15592700  12.010000   ; qtot 0.380151
12569         c3    480    ccc     C4  12569 0.28383300  12.010000   ; qtot 0.663984
12570         c3    480    ccc     C5  12570 0.32403300  12.010000   ; qtot 0.988017
12571         h1    480    ccc     H3  12571 0.13386900   1.008000   ; qtot 1.121886
12572         h1    480    ccc     H4  12572 0.10146700   1.008000   ; qtot 1.223353
12573         h2    480    ccc     H5  12573 0.10960400   1.008000   ; qtot 1.332957
12574         os    480    ccc     O1  12574 -0.28650000  16.000000   ; qtot 1.046457
12575         oh    480    ccc     O2  12575 -0.86012500  16.000000   ; qtot 0.186332
12576         oh    480    ccc     O3  12576 -0.83772800  16.000000   ; qtot -0.651396
12577         oh    480    ccc     O4  12577 -0.77449700  16.000000   ; qtot -1.425893
12578         c3    480    ccc     C6  12578 0.37576500  12.010000   ; qtot -1.050128
12579         ho    480    ccc     H6  12579 0.53656000   1.008000   ; qtot -0.513568
12580         ho    480    ccc     H7  12580 0.49492100   1.008000   ; qtot -0.018647
12581         ho    480    ccc     H8  12581 0.51297200   1.008000   ; qtot 0.494325
12582         h1    480    ccc     H9  12582 0.05653400   1.008000   ; qtot 0.550859
12583         h1    480    ccc    H10  12583 0.05653400   1.008000   ; qtot 0.607393
12584         oh    480    ccc     O5  12584 -0.84113600  16.000000   ; qtot -0.233743
12585         ho    480    ccc    H11  12585 0.51201600   1.008000   ; qtot 0.278273
12586         os    480    ccc     O6  12586 -0.26013600  16.000000   ; qtot 0.018137
; residue  481 ccc rtp ccc q 0.0
12587         c3    481    ccc     C1  12587 -0.33178800  12.010000   ; qtot -0.313651
12588         c3    481    ccc     C2  12588 0.30606500  12.010000   ; qtot -0.007586
12589         h1    481    ccc     H1  12589 0.11662300   1.008000   ; qtot 0.109037
12590         h1    481    ccc     H2  12590 0.11526800   1.008000   ; qtot 0.224305
12591         c3    481    ccc     C3  12591 0.15592700  12.010000   ; qtot 0.380232
12592         c3    481    ccc     C4  12592 0.28383300  12.010000   ; qtot 0.664065
12593         c3    481    ccc     C5  12593 0.32403300  12.010000   ; qtot 0.988098
12594         h1    481    ccc     H3  12594 0.13386900   1.008000   ; qtot 1.121967
12595         h1    481    ccc     H4  12595 0.10146700   1.008000   ; qtot 1.223434
12596         h2    481    ccc     H5  12596 0.10960400   1.008000   ; qtot 1.333038
12597         os    481    ccc     O1  12597 -0.28650000  16.000000   ; qtot 1.046538
12598         oh    481    ccc     O2  12598 -0.86012500  16.000000   ; qtot 0.186413
12599         oh    481    ccc     O3  12599 -0.83772800  16.000000   ; qtot -0.651315
12600         oh    481    ccc     O4  12600 -0.77449700  16.000000   ; qtot -1.425812
12601         c3    481    ccc     C6  12601 0.37576500  12.010000   ; qtot -1.050047
12602         ho    481    ccc     H6  12602 0.53656000   1.008000   ; qtot -0.513487
12603         ho    481    ccc     H7  12603 0.49492100   1.008000   ; qtot -0.018566
12604         ho    481    ccc     H8  12604 0.51297200   1.008000   ; qtot 0.494406
12605         h1    481    ccc     H9  12605 0.05653400   1.008000   ; qtot 0.550940
12606         h1    481    ccc    H10  12606 0.05653400   1.008000   ; qtot 0.607474
12607         oh    481    ccc     O5  12607 -0.84113600  16.000000   ; qtot -0.233662
12608         ho    481    ccc    H11  12608 0.51201600   1.008000   ; qtot 0.278354
12609         os    481    ccc     O6  12609 -0.26013600  16.000000   ; qtot 0.018218
; residue  482 ccc rtp ccc q 0.0
12610         c3    482    ccc     C1  12610 -0.33178800  12.010000   ; qtot -0.313570
12611         c3    482    ccc     C2  12611 0.30606500  12.010000   ; qtot -0.007505
12612         h1    482    ccc     H1  12612 0.11662300   1.008000   ; qtot 0.109118
12613         h1    482    ccc     H2  12613 0.11526800   1.008000   ; qtot 0.224386
12614         c3    482    ccc     C3  12614 0.15592700  12.010000   ; qtot 0.380313
12615         c3    482    ccc     C4  12615 0.28383300  12.010000   ; qtot 0.664146
12616         c3    482    ccc     C5  12616 0.32403300  12.010000   ; qtot 0.988179
12617         h1    482    ccc     H3  12617 0.13386900   1.008000   ; qtot 1.122048
12618         h1    482    ccc     H4  12618 0.10146700   1.008000   ; qtot 1.223515
12619         h2    482    ccc     H5  12619 0.10960400   1.008000   ; qtot 1.333119
12620         os    482    ccc     O1  12620 -0.28650000  16.000000   ; qtot 1.046619
12621         oh    482    ccc     O2  12621 -0.86012500  16.000000   ; qtot 0.186494
12622         oh    482    ccc     O3  12622 -0.83772800  16.000000   ; qtot -0.651234
12623         oh    482    ccc     O4  12623 -0.77449700  16.000000   ; qtot -1.425731
12624         c3    482    ccc     C6  12624 0.37576500  12.010000   ; qtot -1.049966
12625         ho    482    ccc     H6  12625 0.53656000   1.008000   ; qtot -0.513406
12626         ho    482    ccc     H7  12626 0.49492100   1.008000   ; qtot -0.018485
12627         ho    482    ccc     H8  12627 0.51297200   1.008000   ; qtot 0.494487
12628         h1    482    ccc     H9  12628 0.05653400   1.008000   ; qtot 0.551021
12629         h1    482    ccc    H10  12629 0.05653400   1.008000   ; qtot 0.607555
12630         oh    482    ccc     O5  12630 -0.84113600  16.000000   ; qtot -0.233581
12631         ho    482    ccc    H11  12631 0.51201600   1.008000   ; qtot 0.278435
12632         os    482    ccc     O6  12632 -0.26013600  16.000000   ; qtot 0.018299
; residue  483 ccc rtp ccc q 0.0
12633         c3    483    ccc     C1  12633 -0.33178800  12.010000   ; qtot -0.313489
12634         c3    483    ccc     C2  12634 0.30606500  12.010000   ; qtot -0.007424
12635         h1    483    ccc     H1  12635 0.11662300   1.008000   ; qtot 0.109199
12636         h1    483    ccc     H2  12636 0.11526800   1.008000   ; qtot 0.224467
12637         c3    483    ccc     C3  12637 0.15592700  12.010000   ; qtot 0.380394
12638         c3    483    ccc     C4  12638 0.28383300  12.010000   ; qtot 0.664227
12639         c3    483    ccc     C5  12639 0.32403300  12.010000   ; qtot 0.988260
12640         h1    483    ccc     H3  12640 0.13386900   1.008000   ; qtot 1.122129
12641         h1    483    ccc     H4  12641 0.10146700   1.008000   ; qtot 1.223596
12642         h2    483    ccc     H5  12642 0.10960400   1.008000   ; qtot 1.333200
12643         os    483    ccc     O1  12643 -0.28650000  16.000000   ; qtot 1.046700
12644         oh    483    ccc     O2  12644 -0.86012500  16.000000   ; qtot 0.186575
12645         oh    483    ccc     O3  12645 -0.83772800  16.000000   ; qtot -0.651153
12646         oh    483    ccc     O4  12646 -0.77449700  16.000000   ; qtot -1.425650
12647         c3    483    ccc     C6  12647 0.37576500  12.010000   ; qtot -1.049885
12648         ho    483    ccc     H6  12648 0.53656000   1.008000   ; qtot -0.513325
12649         ho    483    ccc     H7  12649 0.49492100   1.008000   ; qtot -0.018404
12650         ho    483    ccc     H8  12650 0.51297200   1.008000   ; qtot 0.494568
12651         h1    483    ccc     H9  12651 0.05653400   1.008000   ; qtot 0.551102
12652         h1    483    ccc    H10  12652 0.05653400   1.008000   ; qtot 0.607636
12653         oh    483    ccc     O5  12653 -0.84113600  16.000000   ; qtot -0.233500
12654         ho    483    ccc    H11  12654 0.51201600   1.008000   ; qtot 0.278516
12655         os    483    ccc     O6  12655 -0.26013600  16.000000   ; qtot 0.018380
; residue  484 ccc rtp ccc q 0.0
12656         c3    484    ccc     C1  12656 -0.33178800  12.010000   ; qtot -0.313408
12657         c3    484    ccc     C2  12657 0.30606500  12.010000   ; qtot -0.007343
12658         h1    484    ccc     H1  12658 0.11662300   1.008000   ; qtot 0.109280
12659         h1    484    ccc     H2  12659 0.11526800   1.008000   ; qtot 0.224548
12660         c3    484    ccc     C3  12660 0.15592700  12.010000   ; qtot 0.380475
12661         c3    484    ccc     C4  12661 0.28383300  12.010000   ; qtot 0.664308
12662         c3    484    ccc     C5  12662 0.32403300  12.010000   ; qtot 0.988341
12663         h1    484    ccc     H3  12663 0.13386900   1.008000   ; qtot 1.122210
12664         h1    484    ccc     H4  12664 0.10146700   1.008000   ; qtot 1.223677
12665         h2    484    ccc     H5  12665 0.10960400   1.008000   ; qtot 1.333281
12666         os    484    ccc     O1  12666 -0.28650000  16.000000   ; qtot 1.046781
12667         oh    484    ccc     O2  12667 -0.86012500  16.000000   ; qtot 0.186656
12668         oh    484    ccc     O3  12668 -0.83772800  16.000000   ; qtot -0.651072
12669         oh    484    ccc     O4  12669 -0.77449700  16.000000   ; qtot -1.425569
12670         c3    484    ccc     C6  12670 0.37576500  12.010000   ; qtot -1.049804
12671         ho    484    ccc     H6  12671 0.53656000   1.008000   ; qtot -0.513244
12672         ho    484    ccc     H7  12672 0.49492100   1.008000   ; qtot -0.018323
12673         ho    484    ccc     H8  12673 0.51297200   1.008000   ; qtot 0.494649
12674         h1    484    ccc     H9  12674 0.05653400   1.008000   ; qtot 0.551183
12675         h1    484    ccc    H10  12675 0.05653400   1.008000   ; qtot 0.607717
12676         oh    484    ccc     O5  12676 -0.84113600  16.000000   ; qtot -0.233419
12677         ho    484    ccc    H11  12677 0.51201600   1.008000   ; qtot 0.278597
12678         os    484    ccc     O6  12678 -0.26013600  16.000000   ; qtot 0.018461
; residue  485 ccc rtp ccc q 0.0
12679         c3    485    ccc     C1  12679 -0.33178800  12.010000   ; qtot -0.313327
12680         c3    485    ccc     C2  12680 0.30606500  12.010000   ; qtot -0.007262
12681         h1    485    ccc     H1  12681 0.11662300   1.008000   ; qtot 0.109361
12682         h1    485    ccc     H2  12682 0.11526800   1.008000   ; qtot 0.224629
12683         c3    485    ccc     C3  12683 0.15592700  12.010000   ; qtot 0.380556
12684         c3    485    ccc     C4  12684 0.28383300  12.010000   ; qtot 0.664389
12685         c3    485    ccc     C5  12685 0.32403300  12.010000   ; qtot 0.988422
12686         h1    485    ccc     H3  12686 0.13386900   1.008000   ; qtot 1.122291
12687         h1    485    ccc     H4  12687 0.10146700   1.008000   ; qtot 1.223758
12688         h2    485    ccc     H5  12688 0.10960400   1.008000   ; qtot 1.333362
12689         os    485    ccc     O1  12689 -0.28650000  16.000000   ; qtot 1.046862
12690         oh    485    ccc     O2  12690 -0.86012500  16.000000   ; qtot 0.186737
12691         oh    485    ccc     O3  12691 -0.83772800  16.000000   ; qtot -0.650991
12692         oh    485    ccc     O4  12692 -0.77449700  16.000000   ; qtot -1.425488
12693         c3    485    ccc     C6  12693 0.37576500  12.010000   ; qtot -1.049723
12694         ho    485    ccc     H6  12694 0.53656000   1.008000   ; qtot -0.513163
12695         ho    485    ccc     H7  12695 0.49492100   1.008000   ; qtot -0.018242
12696         ho    485    ccc     H8  12696 0.51297200   1.008000   ; qtot 0.494730
12697         h1    485    ccc     H9  12697 0.05653400   1.008000   ; qtot 0.551264
12698         h1    485    ccc    H10  12698 0.05653400   1.008000   ; qtot 0.607798
12699         oh    485    ccc     O5  12699 -0.84113600  16.000000   ; qtot -0.233338
12700         ho    485    ccc    H11  12700 0.51201600   1.008000   ; qtot 0.278678
12701         os    485    ccc     O6  12701 -0.26013600  16.000000   ; qtot 0.018542
; residue  486 ccc rtp ccc q 0.0
12702         c3    486    ccc     C1  12702 -0.33178800  12.010000   ; qtot -0.313246
12703         c3    486    ccc     C2  12703 0.30606500  12.010000   ; qtot -0.007181
12704         h1    486    ccc     H1  12704 0.11662300   1.008000   ; qtot 0.109442
12705         h1    486    ccc     H2  12705 0.11526800   1.008000   ; qtot 0.224710
12706         c3    486    ccc     C3  12706 0.15592700  12.010000   ; qtot 0.380637
12707         c3    486    ccc     C4  12707 0.28383300  12.010000   ; qtot 0.664470
12708         c3    486    ccc     C5  12708 0.32403300  12.010000   ; qtot 0.988503
12709         h1    486    ccc     H3  12709 0.13386900   1.008000   ; qtot 1.122372
12710         h1    486    ccc     H4  12710 0.10146700   1.008000   ; qtot 1.223839
12711         h2    486    ccc     H5  12711 0.10960400   1.008000   ; qtot 1.333443
12712         os    486    ccc     O1  12712 -0.28650000  16.000000   ; qtot 1.046943
12713         oh    486    ccc     O2  12713 -0.86012500  16.000000   ; qtot 0.186818
12714         oh    486    ccc     O3  12714 -0.83772800  16.000000   ; qtot -0.650910
12715         oh    486    ccc     O4  12715 -0.77449700  16.000000   ; qtot -1.425407
12716         c3    486    ccc     C6  12716 0.37576500  12.010000   ; qtot -1.049642
12717         ho    486    ccc     H6  12717 0.53656000   1.008000   ; qtot -0.513082
12718         ho    486    ccc     H7  12718 0.49492100   1.008000   ; qtot -0.018161
12719         ho    486    ccc     H8  12719 0.51297200   1.008000   ; qtot 0.494811
12720         h1    486    ccc     H9  12720 0.05653400   1.008000   ; qtot 0.551345
12721         h1    486    ccc    H10  12721 0.05653400   1.008000   ; qtot 0.607879
12722         oh    486    ccc     O5  12722 -0.84113600  16.000000   ; qtot -0.233257
12723         ho    486    ccc    H11  12723 0.51201600   1.008000   ; qtot 0.278759
12724         os    486    ccc     O6  12724 -0.26013600  16.000000   ; qtot 0.018623
; residue  487 ccc rtp ccc q 0.0
12725         c3    487    ccc     C1  12725 -0.33178800  12.010000   ; qtot -0.313165
12726         c3    487    ccc     C2  12726 0.30606500  12.010000   ; qtot -0.007100
12727         h1    487    ccc     H1  12727 0.11662300   1.008000   ; qtot 0.109523
12728         h1    487    ccc     H2  12728 0.11526800   1.008000   ; qtot 0.224791
12729         c3    487    ccc     C3  12729 0.15592700  12.010000   ; qtot 0.380718
12730         c3    487    ccc     C4  12730 0.28383300  12.010000   ; qtot 0.664551
12731         c3    487    ccc     C5  12731 0.32403300  12.010000   ; qtot 0.988584
12732         h1    487    ccc     H3  12732 0.13386900   1.008000   ; qtot 1.122453
12733         h1    487    ccc     H4  12733 0.10146700   1.008000   ; qtot 1.223920
12734         h2    487    ccc     H5  12734 0.10960400   1.008000   ; qtot 1.333524
12735         os    487    ccc     O1  12735 -0.28650000  16.000000   ; qtot 1.047024
12736         oh    487    ccc     O2  12736 -0.86012500  16.000000   ; qtot 0.186899
12737         oh    487    ccc     O3  12737 -0.83772800  16.000000   ; qtot -0.650829
12738         oh    487    ccc     O4  12738 -0.77449700  16.000000   ; qtot -1.425326
12739         c3    487    ccc     C6  12739 0.37576500  12.010000   ; qtot -1.049561
12740         ho    487    ccc     H6  12740 0.53656000   1.008000   ; qtot -0.513001
12741         ho    487    ccc     H7  12741 0.49492100   1.008000   ; qtot -0.018080
12742         ho    487    ccc     H8  12742 0.51297200   1.008000   ; qtot 0.494892
12743         h1    487    ccc     H9  12743 0.05653400   1.008000   ; qtot 0.551426
12744         h1    487    ccc    H10  12744 0.05653400   1.008000   ; qtot 0.607960
12745         oh    487    ccc     O5  12745 -0.84113600  16.000000   ; qtot -0.233176
12746         ho    487    ccc    H11  12746 0.51201600   1.008000   ; qtot 0.278840
12747         os    487    ccc     O6  12747 -0.26013600  16.000000   ; qtot 0.018704
; residue  488 ccc rtp ccc q 0.0
12748         c3    488    ccc     C1  12748 -0.33178800  12.010000   ; qtot -0.313084
12749         c3    488    ccc     C2  12749 0.30606500  12.010000   ; qtot -0.007019
12750         h1    488    ccc     H1  12750 0.11662300   1.008000   ; qtot 0.109604
12751         h1    488    ccc     H2  12751 0.11526800   1.008000   ; qtot 0.224872
12752         c3    488    ccc     C3  12752 0.15592700  12.010000   ; qtot 0.380799
12753         c3    488    ccc     C4  12753 0.28383300  12.010000   ; qtot 0.664632
12754         c3    488    ccc     C5  12754 0.32403300  12.010000   ; qtot 0.988665
12755         h1    488    ccc     H3  12755 0.13386900   1.008000   ; qtot 1.122534
12756         h1    488    ccc     H4  12756 0.10146700   1.008000   ; qtot 1.224001
12757         h2    488    ccc     H5  12757 0.10960400   1.008000   ; qtot 1.333605
12758         os    488    ccc     O1  12758 -0.28650000  16.000000   ; qtot 1.047105
12759         oh    488    ccc     O2  12759 -0.86012500  16.000000   ; qtot 0.186980
12760         oh    488    ccc     O3  12760 -0.83772800  16.000000   ; qtot -0.650748
12761         oh    488    ccc     O4  12761 -0.77449700  16.000000   ; qtot -1.425245
12762         c3    488    ccc     C6  12762 0.37576500  12.010000   ; qtot -1.049480
12763         ho    488    ccc     H6  12763 0.53656000   1.008000   ; qtot -0.512920
12764         ho    488    ccc     H7  12764 0.49492100   1.008000   ; qtot -0.017999
12765         ho    488    ccc     H8  12765 0.51297200   1.008000   ; qtot 0.494973
12766         h1    488    ccc     H9  12766 0.05653400   1.008000   ; qtot 0.551507
12767         h1    488    ccc    H10  12767 0.05653400   1.008000   ; qtot 0.608041
12768         oh    488    ccc     O5  12768 -0.84113600  16.000000   ; qtot -0.233095
12769         ho    488    ccc    H11  12769 0.51201600   1.008000   ; qtot 0.278921
12770         os    488    ccc     O6  12770 -0.26013600  16.000000   ; qtot 0.018785
; residue  489 ccc rtp ccc q 0.0
12771         c3    489    ccc     C1  12771 -0.33178800  12.010000   ; qtot -0.313003
12772         c3    489    ccc     C2  12772 0.30606500  12.010000   ; qtot -0.006938
12773         h1    489    ccc     H1  12773 0.11662300   1.008000   ; qtot 0.109685
12774         h1    489    ccc     H2  12774 0.11526800   1.008000   ; qtot 0.224953
12775         c3    489    ccc     C3  12775 0.15592700  12.010000   ; qtot 0.380880
12776         c3    489    ccc     C4  12776 0.28383300  12.010000   ; qtot 0.664713
12777         c3    489    ccc     C5  12777 0.32403300  12.010000   ; qtot 0.988746
12778         h1    489    ccc     H3  12778 0.13386900   1.008000   ; qtot 1.122615
12779         h1    489    ccc     H4  12779 0.10146700   1.008000   ; qtot 1.224082
12780         h2    489    ccc     H5  12780 0.10960400   1.008000   ; qtot 1.333686
12781         os    489    ccc     O1  12781 -0.28650000  16.000000   ; qtot 1.047186
12782         oh    489    ccc     O2  12782 -0.86012500  16.000000   ; qtot 0.187061
12783         oh    489    ccc     O3  12783 -0.83772800  16.000000   ; qtot -0.650667
12784         oh    489    ccc     O4  12784 -0.77449700  16.000000   ; qtot -1.425164
12785         c3    489    ccc     C6  12785 0.37576500  12.010000   ; qtot -1.049399
12786         ho    489    ccc     H6  12786 0.53656000   1.008000   ; qtot -0.512839
12787         ho    489    ccc     H7  12787 0.49492100   1.008000   ; qtot -0.017918
12788         ho    489    ccc     H8  12788 0.51297200   1.008000   ; qtot 0.495054
12789         h1    489    ccc     H9  12789 0.05653400   1.008000   ; qtot 0.551588
12790         h1    489    ccc    H10  12790 0.05653400   1.008000   ; qtot 0.608122
12791         oh    489    ccc     O5  12791 -0.84113600  16.000000   ; qtot -0.233014
12792         ho    489    ccc    H11  12792 0.51201600   1.008000   ; qtot 0.279002
12793         os    489    ccc     O6  12793 -0.26013600  16.000000   ; qtot 0.018866
; residue  490 ccc rtp ccc q 0.0
12794         c3    490    ccc     C1  12794 -0.33178800  12.010000   ; qtot -0.312922
12795         c3    490    ccc     C2  12795 0.30606500  12.010000   ; qtot -0.006857
12796         h1    490    ccc     H1  12796 0.11662300   1.008000   ; qtot 0.109766
12797         h1    490    ccc     H2  12797 0.11526800   1.008000   ; qtot 0.225034
12798         c3    490    ccc     C3  12798 0.15592700  12.010000   ; qtot 0.380961
12799         c3    490    ccc     C4  12799 0.28383300  12.010000   ; qtot 0.664794
12800         c3    490    ccc     C5  12800 0.32403300  12.010000   ; qtot 0.988827
12801         h1    490    ccc     H3  12801 0.13386900   1.008000   ; qtot 1.122696
12802         h1    490    ccc     H4  12802 0.10146700   1.008000   ; qtot 1.224163
12803         h2    490    ccc     H5  12803 0.10960400   1.008000   ; qtot 1.333767
12804         os    490    ccc     O1  12804 -0.28650000  16.000000   ; qtot 1.047267
12805         oh    490    ccc     O2  12805 -0.86012500  16.000000   ; qtot 0.187142
12806         oh    490    ccc     O3  12806 -0.83772800  16.000000   ; qtot -0.650586
12807         oh    490    ccc     O4  12807 -0.77449700  16.000000   ; qtot -1.425083
12808         c3    490    ccc     C6  12808 0.37576500  12.010000   ; qtot -1.049318
12809         ho    490    ccc     H6  12809 0.53656000   1.008000   ; qtot -0.512758
12810         ho    490    ccc     H7  12810 0.49492100   1.008000   ; qtot -0.017837
12811         ho    490    ccc     H8  12811 0.51297200   1.008000   ; qtot 0.495135
12812         h1    490    ccc     H9  12812 0.05653400   1.008000   ; qtot 0.551669
12813         h1    490    ccc    H10  12813 0.05653400   1.008000   ; qtot 0.608203
12814         oh    490    ccc     O5  12814 -0.84113600  16.000000   ; qtot -0.232933
12815         ho    490    ccc    H11  12815 0.51201600   1.008000   ; qtot 0.279083
12816         os    490    ccc     O6  12816 -0.26013600  16.000000   ; qtot 0.018947
; residue  491 ccc rtp ccc q 0.0
12817         c3    491    ccc     C1  12817 -0.33178800  12.010000   ; qtot -0.312841
12818         c3    491    ccc     C2  12818 0.30606500  12.010000   ; qtot -0.006776
12819         h1    491    ccc     H1  12819 0.11662300   1.008000   ; qtot 0.109847
12820         h1    491    ccc     H2  12820 0.11526800   1.008000   ; qtot 0.225115
12821         c3    491    ccc     C3  12821 0.15592700  12.010000   ; qtot 0.381042
12822         c3    491    ccc     C4  12822 0.28383300  12.010000   ; qtot 0.664875
12823         c3    491    ccc     C5  12823 0.32403300  12.010000   ; qtot 0.988908
12824         h1    491    ccc     H3  12824 0.13386900   1.008000   ; qtot 1.122777
12825         h1    491    ccc     H4  12825 0.10146700   1.008000   ; qtot 1.224244
12826         h2    491    ccc     H5  12826 0.10960400   1.008000   ; qtot 1.333848
12827         os    491    ccc     O1  12827 -0.28650000  16.000000   ; qtot 1.047348
12828         oh    491    ccc     O2  12828 -0.86012500  16.000000   ; qtot 0.187223
12829         oh    491    ccc     O3  12829 -0.83772800  16.000000   ; qtot -0.650505
12830         oh    491    ccc     O4  12830 -0.77449700  16.000000   ; qtot -1.425002
12831         c3    491    ccc     C6  12831 0.37576500  12.010000   ; qtot -1.049237
12832         ho    491    ccc     H6  12832 0.53656000   1.008000   ; qtot -0.512677
12833         ho    491    ccc     H7  12833 0.49492100   1.008000   ; qtot -0.017756
12834         ho    491    ccc     H8  12834 0.51297200   1.008000   ; qtot 0.495216
12835         h1    491    ccc     H9  12835 0.05653400   1.008000   ; qtot 0.551750
12836         h1    491    ccc    H10  12836 0.05653400   1.008000   ; qtot 0.608284
12837         oh    491    ccc     O5  12837 -0.84113600  16.000000   ; qtot -0.232852
12838         ho    491    ccc    H11  12838 0.51201600   1.008000   ; qtot 0.279164
12839         os    491    ccc     O6  12839 -0.26013600  16.000000   ; qtot 0.019028
; residue  492 ccc rtp ccc q 0.0
12840         c3    492    ccc     C1  12840 -0.33178800  12.010000   ; qtot -0.312760
12841         c3    492    ccc     C2  12841 0.30606500  12.010000   ; qtot -0.006695
12842         h1    492    ccc     H1  12842 0.11662300   1.008000   ; qtot 0.109928
12843         h1    492    ccc     H2  12843 0.11526800   1.008000   ; qtot 0.225196
12844         c3    492    ccc     C3  12844 0.15592700  12.010000   ; qtot 0.381123
12845         c3    492    ccc     C4  12845 0.28383300  12.010000   ; qtot 0.664956
12846         c3    492    ccc     C5  12846 0.32403300  12.010000   ; qtot 0.988989
12847         h1    492    ccc     H3  12847 0.13386900   1.008000   ; qtot 1.122858
12848         h1    492    ccc     H4  12848 0.10146700   1.008000   ; qtot 1.224325
12849         h2    492    ccc     H5  12849 0.10960400   1.008000   ; qtot 1.333929
12850         os    492    ccc     O1  12850 -0.28650000  16.000000   ; qtot 1.047429
12851         oh    492    ccc     O2  12851 -0.86012500  16.000000   ; qtot 0.187304
12852         oh    492    ccc     O3  12852 -0.83772800  16.000000   ; qtot -0.650424
12853         oh    492    ccc     O4  12853 -0.77449700  16.000000   ; qtot -1.424921
12854         c3    492    ccc     C6  12854 0.37576500  12.010000   ; qtot -1.049156
12855         ho    492    ccc     H6  12855 0.53656000   1.008000   ; qtot -0.512596
12856         ho    492    ccc     H7  12856 0.49492100   1.008000   ; qtot -0.017675
12857         ho    492    ccc     H8  12857 0.51297200   1.008000   ; qtot 0.495297
12858         h1    492    ccc     H9  12858 0.05653400   1.008000   ; qtot 0.551831
12859         h1    492    ccc    H10  12859 0.05653400   1.008000   ; qtot 0.608365
12860         oh    492    ccc     O5  12860 -0.84113600  16.000000   ; qtot -0.232771
12861         ho    492    ccc    H11  12861 0.51201600   1.008000   ; qtot 0.279245
12862         os    492    ccc     O6  12862 -0.26013600  16.000000   ; qtot 0.019109
; residue  493 ccc rtp ccc q 0.0
12863         c3    493    ccc     C1  12863 -0.33178800  12.010000   ; qtot -0.312679
12864         c3    493    ccc     C2  12864 0.30606500  12.010000   ; qtot -0.006614
12865         h1    493    ccc     H1  12865 0.11662300   1.008000   ; qtot 0.110009
12866         h1    493    ccc     H2  12866 0.11526800   1.008000   ; qtot 0.225277
12867         c3    493    ccc     C3  12867 0.15592700  12.010000   ; qtot 0.381204
12868         c3    493    ccc     C4  12868 0.28383300  12.010000   ; qtot 0.665037
12869         c3    493    ccc     C5  12869 0.32403300  12.010000   ; qtot 0.989070
12870         h1    493    ccc     H3  12870 0.13386900   1.008000   ; qtot 1.122939
12871         h1    493    ccc     H4  12871 0.10146700   1.008000   ; qtot 1.224406
12872         h2    493    ccc     H5  12872 0.10960400   1.008000   ; qtot 1.334010
12873         os    493    ccc     O1  12873 -0.28650000  16.000000   ; qtot 1.047510
12874         oh    493    ccc     O2  12874 -0.86012500  16.000000   ; qtot 0.187385
12875         oh    493    ccc     O3  12875 -0.83772800  16.000000   ; qtot -0.650343
12876         oh    493    ccc     O4  12876 -0.77449700  16.000000   ; qtot -1.424840
12877         c3    493    ccc     C6  12877 0.37576500  12.010000   ; qtot -1.049075
12878         ho    493    ccc     H6  12878 0.53656000   1.008000   ; qtot -0.512515
12879         ho    493    ccc     H7  12879 0.49492100   1.008000   ; qtot -0.017594
12880         ho    493    ccc     H8  12880 0.51297200   1.008000   ; qtot 0.495378
12881         h1    493    ccc     H9  12881 0.05653400   1.008000   ; qtot 0.551912
12882         h1    493    ccc    H10  12882 0.05653400   1.008000   ; qtot 0.608446
12883         oh    493    ccc     O5  12883 -0.84113600  16.000000   ; qtot -0.232690
12884         ho    493    ccc    H11  12884 0.51201600   1.008000   ; qtot 0.279326
12885         os    493    ccc     O6  12885 -0.26013600  16.000000   ; qtot 0.019190
; residue  494 ccc rtp ccc q 0.0
12886         c3    494    ccc     C1  12886 -0.33178800  12.010000   ; qtot -0.312598
12887         c3    494    ccc     C2  12887 0.30606500  12.010000   ; qtot -0.006533
12888         h1    494    ccc     H1  12888 0.11662300   1.008000   ; qtot 0.110090
12889         h1    494    ccc     H2  12889 0.11526800   1.008000   ; qtot 0.225358
12890         c3    494    ccc     C3  12890 0.15592700  12.010000   ; qtot 0.381285
12891         c3    494    ccc     C4  12891 0.28383300  12.010000   ; qtot 0.665118
12892         c3    494    ccc     C5  12892 0.32403300  12.010000   ; qtot 0.989151
12893         h1    494    ccc     H3  12893 0.13386900   1.008000   ; qtot 1.123020
12894         h1    494    ccc     H4  12894 0.10146700   1.008000   ; qtot 1.224487
12895         h2    494    ccc     H5  12895 0.10960400   1.008000   ; qtot 1.334091
12896         os    494    ccc     O1  12896 -0.28650000  16.000000   ; qtot 1.047591
12897         oh    494    ccc     O2  12897 -0.86012500  16.000000   ; qtot 0.187466
12898         oh    494    ccc     O3  12898 -0.83772800  16.000000   ; qtot -0.650262
12899         oh    494    ccc     O4  12899 -0.77449700  16.000000   ; qtot -1.424759
12900         c3    494    ccc     C6  12900 0.37576500  12.010000   ; qtot -1.048994
12901         ho    494    ccc     H6  12901 0.53656000   1.008000   ; qtot -0.512434
12902         ho    494    ccc     H7  12902 0.49492100   1.008000   ; qtot -0.017513
12903         ho    494    ccc     H8  12903 0.51297200   1.008000   ; qtot 0.495459
12904         h1    494    ccc     H9  12904 0.05653400   1.008000   ; qtot 0.551993
12905         h1    494    ccc    H10  12905 0.05653400   1.008000   ; qtot 0.608527
12906         oh    494    ccc     O5  12906 -0.84113600  16.000000   ; qtot -0.232609
12907         ho    494    ccc    H11  12907 0.51201600   1.008000   ; qtot 0.279407
12908         os    494    ccc     O6  12908 -0.26013600  16.000000   ; qtot 0.019271
; residue  495 ccc rtp ccc q 0.0
12909         c3    495    ccc     C1  12909 -0.33178800  12.010000   ; qtot -0.312517
12910         c3    495    ccc     C2  12910 0.30606500  12.010000   ; qtot -0.006452
12911         h1    495    ccc     H1  12911 0.11662300   1.008000   ; qtot 0.110171
12912         h1    495    ccc     H2  12912 0.11526800   1.008000   ; qtot 0.225439
12913         c3    495    ccc     C3  12913 0.15592700  12.010000   ; qtot 0.381366
12914         c3    495    ccc     C4  12914 0.28383300  12.010000   ; qtot 0.665199
12915         c3    495    ccc     C5  12915 0.32403300  12.010000   ; qtot 0.989232
12916         h1    495    ccc     H3  12916 0.13386900   1.008000   ; qtot 1.123101
12917         h1    495    ccc     H4  12917 0.10146700   1.008000   ; qtot 1.224568
12918         h2    495    ccc     H5  12918 0.10960400   1.008000   ; qtot 1.334172
12919         os    495    ccc     O1  12919 -0.28650000  16.000000   ; qtot 1.047672
12920         oh    495    ccc     O2  12920 -0.86012500  16.000000   ; qtot 0.187547
12921         oh    495    ccc     O3  12921 -0.83772800  16.000000   ; qtot -0.650181
12922         oh    495    ccc     O4  12922 -0.77449700  16.000000   ; qtot -1.424678
12923         c3    495    ccc     C6  12923 0.37576500  12.010000   ; qtot -1.048913
12924         ho    495    ccc     H6  12924 0.53656000   1.008000   ; qtot -0.512353
12925         ho    495    ccc     H7  12925 0.49492100   1.008000   ; qtot -0.017432
12926         ho    495    ccc     H8  12926 0.51297200   1.008000   ; qtot 0.495540
12927         h1    495    ccc     H9  12927 0.05653400   1.008000   ; qtot 0.552074
12928         h1    495    ccc    H10  12928 0.05653400   1.008000   ; qtot 0.608608
12929         oh    495    ccc     O5  12929 -0.84113600  16.000000   ; qtot -0.232528
12930         ho    495    ccc    H11  12930 0.51201600   1.008000   ; qtot 0.279488
12931         os    495    ccc     O6  12931 -0.26013600  16.000000   ; qtot 0.019352
; residue  496 ccc rtp ccc q 0.0
12932         c3    496    ccc     C1  12932 -0.33178800  12.010000   ; qtot -0.312436
12933         c3    496    ccc     C2  12933 0.30606500  12.010000   ; qtot -0.006371
12934         h1    496    ccc     H1  12934 0.11662300   1.008000   ; qtot 0.110252
12935         h1    496    ccc     H2  12935 0.11526800   1.008000   ; qtot 0.225520
12936         c3    496    ccc     C3  12936 0.15592700  12.010000   ; qtot 0.381447
12937         c3    496    ccc     C4  12937 0.28383300  12.010000   ; qtot 0.665280
12938         c3    496    ccc     C5  12938 0.32403300  12.010000   ; qtot 0.989313
12939         h1    496    ccc     H3  12939 0.13386900   1.008000   ; qtot 1.123182
12940         h1    496    ccc     H4  12940 0.10146700   1.008000   ; qtot 1.224649
12941         h2    496    ccc     H5  12941 0.10960400   1.008000   ; qtot 1.334253
12942         os    496    ccc     O1  12942 -0.28650000  16.000000   ; qtot 1.047753
12943         oh    496    ccc     O2  12943 -0.86012500  16.000000   ; qtot 0.187628
12944         oh    496    ccc     O3  12944 -0.83772800  16.000000   ; qtot -0.650100
12945         oh    496    ccc     O4  12945 -0.77449700  16.000000   ; qtot -1.424597
12946         c3    496    ccc     C6  12946 0.37576500  12.010000   ; qtot -1.048832
12947         ho    496    ccc     H6  12947 0.53656000   1.008000   ; qtot -0.512272
12948         ho    496    ccc     H7  12948 0.49492100   1.008000   ; qtot -0.017351
12949         ho    496    ccc     H8  12949 0.51297200   1.008000   ; qtot 0.495621
12950         h1    496    ccc     H9  12950 0.05653400   1.008000   ; qtot 0.552155
12951         h1    496    ccc    H10  12951 0.05653400   1.008000   ; qtot 0.608689
12952         oh    496    ccc     O5  12952 -0.84113600  16.000000   ; qtot -0.232447
12953         ho    496    ccc    H11  12953 0.51201600   1.008000   ; qtot 0.279569
12954         os    496    ccc     O6  12954 -0.26013600  16.000000   ; qtot 0.019433
; residue  497 ccc rtp ccc q 0.0
12955         c3    497    ccc     C1  12955 -0.33178800  12.010000   ; qtot -0.312355
12956         c3    497    ccc     C2  12956 0.30606500  12.010000   ; qtot -0.006290
12957         h1    497    ccc     H1  12957 0.11662300   1.008000   ; qtot 0.110333
12958         h1    497    ccc     H2  12958 0.11526800   1.008000   ; qtot 0.225601
12959         c3    497    ccc     C3  12959 0.15592700  12.010000   ; qtot 0.381528
12960         c3    497    ccc     C4  12960 0.28383300  12.010000   ; qtot 0.665361
12961         c3    497    ccc     C5  12961 0.32403300  12.010000   ; qtot 0.989394
12962         h1    497    ccc     H3  12962 0.13386900   1.008000   ; qtot 1.123263
12963         h1    497    ccc     H4  12963 0.10146700   1.008000   ; qtot 1.224730
12964         h2    497    ccc     H5  12964 0.10960400   1.008000   ; qtot 1.334334
12965         os    497    ccc     O1  12965 -0.28650000  16.000000   ; qtot 1.047834
12966         oh    497    ccc     O2  12966 -0.86012500  16.000000   ; qtot 0.187709
12967         oh    497    ccc     O3  12967 -0.83772800  16.000000   ; qtot -0.650019
12968         oh    497    ccc     O4  12968 -0.77449700  16.000000   ; qtot -1.424516
12969         c3    497    ccc     C6  12969 0.37576500  12.010000   ; qtot -1.048751
12970         ho    497    ccc     H6  12970 0.53656000   1.008000   ; qtot -0.512191
12971         ho    497    ccc     H7  12971 0.49492100   1.008000   ; qtot -0.017270
12972         ho    497    ccc     H8  12972 0.51297200   1.008000   ; qtot 0.495702
12973         h1    497    ccc     H9  12973 0.05653400   1.008000   ; qtot 0.552236
12974         h1    497    ccc    H10  12974 0.05653400   1.008000   ; qtot 0.608770
12975         oh    497    ccc     O5  12975 -0.84113600  16.000000   ; qtot -0.232366
12976         ho    497    ccc    H11  12976 0.51201600   1.008000   ; qtot 0.279650
12977         os    497    ccc     O6  12977 -0.26013600  16.000000   ; qtot 0.019514
; residue  498 ccc rtp ccc q 0.0
12978         c3    498    ccc     C1  12978 -0.33178800  12.010000   ; qtot -0.312274
12979         c3    498    ccc     C2  12979 0.30606500  12.010000   ; qtot -0.006209
12980         h1    498    ccc     H1  12980 0.11662300   1.008000   ; qtot 0.110414
12981         h1    498    ccc     H2  12981 0.11526800   1.008000   ; qtot 0.225682
12982         c3    498    ccc     C3  12982 0.15592700  12.010000   ; qtot 0.381609
12983         c3    498    ccc     C4  12983 0.28383300  12.010000   ; qtot 0.665442
12984         c3    498    ccc     C5  12984 0.32403300  12.010000   ; qtot 0.989475
12985         h1    498    ccc     H3  12985 0.13386900   1.008000   ; qtot 1.123344
12986         h1    498    ccc     H4  12986 0.10146700   1.008000   ; qtot 1.224811
12987         h2    498    ccc     H5  12987 0.10960400   1.008000   ; qtot 1.334415
12988         os    498    ccc     O1  12988 -0.28650000  16.000000   ; qtot 1.047915
12989         oh    498    ccc     O2  12989 -0.86012500  16.000000   ; qtot 0.187790
12990         oh    498    ccc     O3  12990 -0.83772800  16.000000   ; qtot -0.649938
12991         oh    498    ccc     O4  12991 -0.77449700  16.000000   ; qtot -1.424435
12992         c3    498    ccc     C6  12992 0.37576500  12.010000   ; qtot -1.048670
12993         ho    498    ccc     H6  12993 0.53656000   1.008000   ; qtot -0.512110
12994         ho    498    ccc     H7  12994 0.49492100   1.008000   ; qtot -0.017189
12995         ho    498    ccc     H8  12995 0.51297200   1.008000   ; qtot 0.495783
12996         h1    498    ccc     H9  12996 0.05653400   1.008000   ; qtot 0.552317
12997         h1    498    ccc    H10  12997 0.05653400   1.008000   ; qtot 0.608851
12998         oh    498    ccc     O5  12998 -0.84113600  16.000000   ; qtot -0.232285
12999         ho    498    ccc    H11  12999 0.51201600   1.008000   ; qtot 0.279731
13000         os    498    ccc     O6  13000 -0.26013600  16.000000   ; qtot 0.019595
; residue  499 ccc rtp ccc q 0.0
13001         c3    499    ccc     C1  13001 -0.33178800  12.010000   ; qtot -0.312193
13002         c3    499    ccc     C2  13002 0.30606500  12.010000   ; qtot -0.006128
13003         h1    499    ccc     H1  13003 0.11662300   1.008000   ; qtot 0.110495
13004         h1    499    ccc     H2  13004 0.11526800   1.008000   ; qtot 0.225763
13005         c3    499    ccc     C3  13005 0.15592700  12.010000   ; qtot 0.381690
13006         c3    499    ccc     C4  13006 0.28383300  12.010000   ; qtot 0.665523
13007         c3    499    ccc     C5  13007 0.32403300  12.010000   ; qtot 0.989556
13008         h1    499    ccc     H3  13008 0.13386900   1.008000   ; qtot 1.123425
13009         h1    499    ccc     H4  13009 0.10146700   1.008000   ; qtot 1.224892
13010         h2    499    ccc     H5  13010 0.10960400   1.008000   ; qtot 1.334496
13011         os    499    ccc     O1  13011 -0.28650000  16.000000   ; qtot 1.047996
13012         oh    499    ccc     O2  13012 -0.86012500  16.000000   ; qtot 0.187871
13013         oh    499    ccc     O3  13013 -0.83772800  16.000000   ; qtot -0.649857
13014         oh    499    ccc     O4  13014 -0.77449700  16.000000   ; qtot -1.424354
13015         c3    499    ccc     C6  13015 0.37576500  12.010000   ; qtot -1.048589
13016         ho    499    ccc     H6  13016 0.53656000   1.008000   ; qtot -0.512029
13017         ho    499    ccc     H7  13017 0.49492100   1.008000   ; qtot -0.017108
13018         ho    499    ccc     H8  13018 0.51297200   1.008000   ; qtot 0.495864
13019         h1    499    ccc     H9  13019 0.05653400   1.008000   ; qtot 0.552398
13020         h1    499    ccc    H10  13020 0.05653400   1.008000   ; qtot 0.608932
13021         oh    499    ccc     O5  13021 -0.84113600  16.000000   ; qtot -0.232204
13022         ho    499    ccc    H11  13022 0.51201600   1.008000   ; qtot 0.279812
13023         os    499    ccc     O6  13023 -0.26013600  16.000000   ; qtot 0.019676
; residue  500 ccc rtp ccc q 0.0
13024         c3    500    ccc     C1  13024 -0.33178800  12.010000   ; qtot -0.312112
13025         c3    500    ccc     C2  13025 0.30606500  12.010000   ; qtot -0.006047
13026         h1    500    ccc     H1  13026 0.11662300   1.008000   ; qtot 0.110576
13027         h1    500    ccc     H2  13027 0.11526800   1.008000   ; qtot 0.225844
13028         c3    500    ccc     C3  13028 0.15592700  12.010000   ; qtot 0.381771
13029         c3    500    ccc     C4  13029 0.28383300  12.010000   ; qtot 0.665604
13030         c3    500    ccc     C5  13030 0.32403300  12.010000   ; qtot 0.989637
13031         h1    500    ccc     H3  13031 0.13386900   1.008000   ; qtot 1.123506
13032         h1    500    ccc     H4  13032 0.10146700   1.008000   ; qtot 1.224973
13033         h2    500    ccc     H5  13033 0.10960400   1.008000   ; qtot 1.334577
13034         os    500    ccc     O1  13034 -0.28650000  16.000000   ; qtot 1.048077
13035         oh    500    ccc     O2  13035 -0.86012500  16.000000   ; qtot 0.187952
13036         oh    500    ccc     O3  13036 -0.83772800  16.000000   ; qtot -0.649776
13037         oh    500    ccc     O4  13037 -0.77449700  16.000000   ; qtot -1.424273
13038         c3    500    ccc     C6  13038 0.37576500  12.010000   ; qtot -1.048508
13039         ho    500    ccc     H6  13039 0.53656000   1.008000   ; qtot -0.511948
13040         ho    500    ccc     H7  13040 0.49492100   1.008000   ; qtot -0.017027
13041         ho    500    ccc     H8  13041 0.51297200   1.008000   ; qtot 0.495945
13042         h1    500    ccc     H9  13042 0.05653400   1.008000   ; qtot 0.552479
13043         h1    500    ccc    H10  13043 0.05653400   1.008000   ; qtot 0.609013
13044         oh    500    ccc     O5  13044 -0.84113600  16.000000   ; qtot -0.232123
13045         ho    500    ccc    H11  13045 0.51201600   1.008000   ; qtot 0.279893
13046         os    500    ccc     O6  13046 -0.26013600  16.000000   ; qtot 0.019757
; residue  501 ccc rtp ccc q 0.0
13047         c3    501    ccc     C1  13047 -0.33178800  12.010000   ; qtot -0.312031
13048         c3    501    ccc     C2  13048 0.30606500  12.010000   ; qtot -0.005966
13049         h1    501    ccc     H1  13049 0.11662300   1.008000   ; qtot 0.110657
13050         h1    501    ccc     H2  13050 0.11526800   1.008000   ; qtot 0.225925
13051         c3    501    ccc     C3  13051 0.15592700  12.010000   ; qtot 0.381852
13052         c3    501    ccc     C4  13052 0.28383300  12.010000   ; qtot 0.665685
13053         c3    501    ccc     C5  13053 0.32403300  12.010000   ; qtot 0.989718
13054         h1    501    ccc     H3  13054 0.13386900   1.008000   ; qtot 1.123587
13055         h1    501    ccc     H4  13055 0.10146700   1.008000   ; qtot 1.225054
13056         h2    501    ccc     H5  13056 0.10960400   1.008000   ; qtot 1.334658
13057         os    501    ccc     O1  13057 -0.28650000  16.000000   ; qtot 1.048158
13058         oh    501    ccc     O2  13058 -0.86012500  16.000000   ; qtot 0.188033
13059         oh    501    ccc     O3  13059 -0.83772800  16.000000   ; qtot -0.649695
13060         oh    501    ccc     O4  13060 -0.77449700  16.000000   ; qtot -1.424192
13061         c3    501    ccc     C6  13061 0.37576500  12.010000   ; qtot -1.048427
13062         ho    501    ccc     H6  13062 0.53656000   1.008000   ; qtot -0.511867
13063         ho    501    ccc     H7  13063 0.49492100   1.008000   ; qtot -0.016946
13064         ho    501    ccc     H8  13064 0.51297200   1.008000   ; qtot 0.496026
13065         h1    501    ccc     H9  13065 0.05653400   1.008000   ; qtot 0.552560
13066         h1    501    ccc    H10  13066 0.05653400   1.008000   ; qtot 0.609094
13067         oh    501    ccc     O5  13067 -0.84113600  16.000000   ; qtot -0.232042
13068         ho    501    ccc    H11  13068 0.51201600   1.008000   ; qtot 0.279974
13069         os    501    ccc     O6  13069 -0.26013600  16.000000   ; qtot 0.019838
; residue  502 ccc rtp ccc q 0.0
13070         c3    502    ccc     C1  13070 -0.33178800  12.010000   ; qtot -0.311950
13071         c3    502    ccc     C2  13071 0.30606500  12.010000   ; qtot -0.005885
13072         h1    502    ccc     H1  13072 0.11662300   1.008000   ; qtot 0.110738
13073         h1    502    ccc     H2  13073 0.11526800   1.008000   ; qtot 0.226006
13074         c3    502    ccc     C3  13074 0.15592700  12.010000   ; qtot 0.381933
13075         c3    502    ccc     C4  13075 0.28383300  12.010000   ; qtot 0.665766
13076         c3    502    ccc     C5  13076 0.32403300  12.010000   ; qtot 0.989799
13077         h1    502    ccc     H3  13077 0.13386900   1.008000   ; qtot 1.123668
13078         h1    502    ccc     H4  13078 0.10146700   1.008000   ; qtot 1.225135
13079         h2    502    ccc     H5  13079 0.10960400   1.008000   ; qtot 1.334739
13080         os    502    ccc     O1  13080 -0.28650000  16.000000   ; qtot 1.048239
13081         oh    502    ccc     O2  13081 -0.86012500  16.000000   ; qtot 0.188114
13082         oh    502    ccc     O3  13082 -0.83772800  16.000000   ; qtot -0.649614
13083         oh    502    ccc     O4  13083 -0.77449700  16.000000   ; qtot -1.424111
13084         c3    502    ccc     C6  13084 0.37576500  12.010000   ; qtot -1.048346
13085         ho    502    ccc     H6  13085 0.53656000   1.008000   ; qtot -0.511786
13086         ho    502    ccc     H7  13086 0.49492100   1.008000   ; qtot -0.016865
13087         ho    502    ccc     H8  13087 0.51297200   1.008000   ; qtot 0.496107
13088         h1    502    ccc     H9  13088 0.05653400   1.008000   ; qtot 0.552641
13089         h1    502    ccc    H10  13089 0.05653400   1.008000   ; qtot 0.609175
13090         oh    502    ccc     O5  13090 -0.84113600  16.000000   ; qtot -0.231961
13091         ho    502    ccc    H11  13091 0.51201600   1.008000   ; qtot 0.280055
13092         os    502    ccc     O6  13092 -0.26013600  16.000000   ; qtot 0.019919
; residue  503 ccc rtp ccc q 0.0
13093         c3    503    ccc     C1  13093 -0.33178800  12.010000   ; qtot -0.311869
13094         c3    503    ccc     C2  13094 0.30606500  12.010000   ; qtot -0.005804
13095         h1    503    ccc     H1  13095 0.11662300   1.008000   ; qtot 0.110819
13096         h1    503    ccc     H2  13096 0.11526800   1.008000   ; qtot 0.226087
13097         c3    503    ccc     C3  13097 0.15592700  12.010000   ; qtot 0.382014
13098         c3    503    ccc     C4  13098 0.28383300  12.010000   ; qtot 0.665847
13099         c3    503    ccc     C5  13099 0.32403300  12.010000   ; qtot 0.989880
13100         h1    503    ccc     H3  13100 0.13386900   1.008000   ; qtot 1.123749
13101         h1    503    ccc     H4  13101 0.10146700   1.008000   ; qtot 1.225216
13102         h2    503    ccc     H5  13102 0.10960400   1.008000   ; qtot 1.334820
13103         os    503    ccc     O1  13103 -0.28650000  16.000000   ; qtot 1.048320
13104         oh    503    ccc     O2  13104 -0.86012500  16.000000   ; qtot 0.188195
13105         oh    503    ccc     O3  13105 -0.83772800  16.000000   ; qtot -0.649533
13106         oh    503    ccc     O4  13106 -0.77449700  16.000000   ; qtot -1.424030
13107         c3    503    ccc     C6  13107 0.37576500  12.010000   ; qtot -1.048265
13108         ho    503    ccc     H6  13108 0.53656000   1.008000   ; qtot -0.511705
13109         ho    503    ccc     H7  13109 0.49492100   1.008000   ; qtot -0.016784
13110         ho    503    ccc     H8  13110 0.51297200   1.008000   ; qtot 0.496188
13111         h1    503    ccc     H9  13111 0.05653400   1.008000   ; qtot 0.552722
13112         h1    503    ccc    H10  13112 0.05653400   1.008000   ; qtot 0.609256
13113         oh    503    ccc     O5  13113 -0.84113600  16.000000   ; qtot -0.231880
13114         ho    503    ccc    H11  13114 0.51201600   1.008000   ; qtot 0.280136
13115         os    503    ccc     O6  13115 -0.26013600  16.000000   ; qtot 0.020000
; residue  504 ccc rtp ccc q 0.0
13116         c3    504    ccc     C1  13116 -0.33178800  12.010000   ; qtot -0.311788
13117         c3    504    ccc     C2  13117 0.30606500  12.010000   ; qtot -0.005723
13118         h1    504    ccc     H1  13118 0.11662300   1.008000   ; qtot 0.110900
13119         h1    504    ccc     H2  13119 0.11526800   1.008000   ; qtot 0.226168
13120         c3    504    ccc     C3  13120 0.15592700  12.010000   ; qtot 0.382095
13121         c3    504    ccc     C4  13121 0.28383300  12.010000   ; qtot 0.665928
13122         c3    504    ccc     C5  13122 0.32403300  12.010000   ; qtot 0.989961
13123         h1    504    ccc     H3  13123 0.13386900   1.008000   ; qtot 1.123830
13124         h1    504    ccc     H4  13124 0.10146700   1.008000   ; qtot 1.225297
13125         h2    504    ccc     H5  13125 0.10960400   1.008000   ; qtot 1.334901
13126         os    504    ccc     O1  13126 -0.28650000  16.000000   ; qtot 1.048401
13127         oh    504    ccc     O2  13127 -0.86012500  16.000000   ; qtot 0.188276
13128         oh    504    ccc     O3  13128 -0.83772800  16.000000   ; qtot -0.649452
13129         oh    504    ccc     O4  13129 -0.77449700  16.000000   ; qtot -1.423949
13130         c3    504    ccc     C6  13130 0.37576500  12.010000   ; qtot -1.048184
13131         ho    504    ccc     H6  13131 0.53656000   1.008000   ; qtot -0.511624
13132         ho    504    ccc     H7  13132 0.49492100   1.008000   ; qtot -0.016703
13133         ho    504    ccc     H8  13133 0.51297200   1.008000   ; qtot 0.496269
13134         h1    504    ccc     H9  13134 0.05653400   1.008000   ; qtot 0.552803
13135         h1    504    ccc    H10  13135 0.05653400   1.008000   ; qtot 0.609337
13136         oh    504    ccc     O5  13136 -0.84113600  16.000000   ; qtot -0.231799
13137         ho    504    ccc    H11  13137 0.51201600   1.008000   ; qtot 0.280217
13138         os    504    ccc     O6  13138 -0.26013600  16.000000   ; qtot 0.020081
; residue  505 ccc rtp ccc q 0.0
13139         c3    505    ccc     C1  13139 -0.33178800  12.010000   ; qtot -0.311707
13140         c3    505    ccc     C2  13140 0.30606500  12.010000   ; qtot -0.005642
13141         h1    505    ccc     H1  13141 0.11662300   1.008000   ; qtot 0.110981
13142         h1    505    ccc     H2  13142 0.11526800   1.008000   ; qtot 0.226249
13143         c3    505    ccc     C3  13143 0.15592700  12.010000   ; qtot 0.382176
13144         c3    505    ccc     C4  13144 0.28383300  12.010000   ; qtot 0.666009
13145         c3    505    ccc     C5  13145 0.32403300  12.010000   ; qtot 0.990042
13146         h1    505    ccc     H3  13146 0.13386900   1.008000   ; qtot 1.123911
13147         h1    505    ccc     H4  13147 0.10146700   1.008000   ; qtot 1.225378
13148         h2    505    ccc     H5  13148 0.10960400   1.008000   ; qtot 1.334982
13149         os    505    ccc     O1  13149 -0.28650000  16.000000   ; qtot 1.048482
13150         oh    505    ccc     O2  13150 -0.86012500  16.000000   ; qtot 0.188357
13151         oh    505    ccc     O3  13151 -0.83772800  16.000000   ; qtot -0.649371
13152         oh    505    ccc     O4  13152 -0.77449700  16.000000   ; qtot -1.423868
13153         c3    505    ccc     C6  13153 0.37576500  12.010000   ; qtot -1.048103
13154         ho    505    ccc     H6  13154 0.53656000   1.008000   ; qtot -0.511543
13155         ho    505    ccc     H7  13155 0.49492100   1.008000   ; qtot -0.016622
13156         ho    505    ccc     H8  13156 0.51297200   1.008000   ; qtot 0.496350
13157         h1    505    ccc     H9  13157 0.05653400   1.008000   ; qtot 0.552884
13158         h1    505    ccc    H10  13158 0.05653400   1.008000   ; qtot 0.609418
13159         oh    505    ccc     O5  13159 -0.84113600  16.000000   ; qtot -0.231718
13160         ho    505    ccc    H11  13160 0.51201600   1.008000   ; qtot 0.280298
13161         os    505    ccc     O6  13161 -0.26013600  16.000000   ; qtot 0.020162
; residue  506 ccc rtp ccc q 0.0
13162         c3    506    ccc     C1  13162 -0.33178800  12.010000   ; qtot -0.311626
13163         c3    506    ccc     C2  13163 0.30606500  12.010000   ; qtot -0.005561
13164         h1    506    ccc     H1  13164 0.11662300   1.008000   ; qtot 0.111062
13165         h1    506    ccc     H2  13165 0.11526800   1.008000   ; qtot 0.226330
13166         c3    506    ccc     C3  13166 0.15592700  12.010000   ; qtot 0.382257
13167         c3    506    ccc     C4  13167 0.28383300  12.010000   ; qtot 0.666090
13168         c3    506    ccc     C5  13168 0.32403300  12.010000   ; qtot 0.990123
13169         h1    506    ccc     H3  13169 0.13386900   1.008000   ; qtot 1.123992
13170         h1    506    ccc     H4  13170 0.10146700   1.008000   ; qtot 1.225459
13171         h2    506    ccc     H5  13171 0.10960400   1.008000   ; qtot 1.335063
13172         os    506    ccc     O1  13172 -0.28650000  16.000000   ; qtot 1.048563
13173         oh    506    ccc     O2  13173 -0.86012500  16.000000   ; qtot 0.188438
13174         oh    506    ccc     O3  13174 -0.83772800  16.000000   ; qtot -0.649290
13175         oh    506    ccc     O4  13175 -0.77449700  16.000000   ; qtot -1.423787
13176         c3    506    ccc     C6  13176 0.37576500  12.010000   ; qtot -1.048022
13177         ho    506    ccc     H6  13177 0.53656000   1.008000   ; qtot -0.511462
13178         ho    506    ccc     H7  13178 0.49492100   1.008000   ; qtot -0.016541
13179         ho    506    ccc     H8  13179 0.51297200   1.008000   ; qtot 0.496431
13180         h1    506    ccc     H9  13180 0.05653400   1.008000   ; qtot 0.552965
13181         h1    506    ccc    H10  13181 0.05653400   1.008000   ; qtot 0.609499
13182         oh    506    ccc     O5  13182 -0.84113600  16.000000   ; qtot -0.231637
13183         ho    506    ccc    H11  13183 0.51201600   1.008000   ; qtot 0.280379
13184         os    506    ccc     O6  13184 -0.26013600  16.000000   ; qtot 0.020243
; residue  507 ccc rtp ccc q 0.0
13185         c3    507    ccc     C1  13185 -0.33178800  12.010000   ; qtot -0.311545
13186         c3    507    ccc     C2  13186 0.30606500  12.010000   ; qtot -0.005480
13187         h1    507    ccc     H1  13187 0.11662300   1.008000   ; qtot 0.111143
13188         h1    507    ccc     H2  13188 0.11526800   1.008000   ; qtot 0.226411
13189         c3    507    ccc     C3  13189 0.15592700  12.010000   ; qtot 0.382338
13190         c3    507    ccc     C4  13190 0.28383300  12.010000   ; qtot 0.666171
13191         c3    507    ccc     C5  13191 0.32403300  12.010000   ; qtot 0.990204
13192         h1    507    ccc     H3  13192 0.13386900   1.008000   ; qtot 1.124073
13193         h1    507    ccc     H4  13193 0.10146700   1.008000   ; qtot 1.225540
13194         h2    507    ccc     H5  13194 0.10960400   1.008000   ; qtot 1.335144
13195         os    507    ccc     O1  13195 -0.28650000  16.000000   ; qtot 1.048644
13196         oh    507    ccc     O2  13196 -0.86012500  16.000000   ; qtot 0.188519
13197         oh    507    ccc     O3  13197 -0.83772800  16.000000   ; qtot -0.649209
13198         oh    507    ccc     O4  13198 -0.77449700  16.000000   ; qtot -1.423706
13199         c3    507    ccc     C6  13199 0.37576500  12.010000   ; qtot -1.047941
13200         ho    507    ccc     H6  13200 0.53656000   1.008000   ; qtot -0.511381
13201         ho    507    ccc     H7  13201 0.49492100   1.008000   ; qtot -0.016460
13202         ho    507    ccc     H8  13202 0.51297200   1.008000   ; qtot 0.496512
13203         h1    507    ccc     H9  13203 0.05653400   1.008000   ; qtot 0.553046
13204         h1    507    ccc    H10  13204 0.05653400   1.008000   ; qtot 0.609580
13205         oh    507    ccc     O5  13205 -0.84113600  16.000000   ; qtot -0.231556
13206         ho    507    ccc    H11  13206 0.51201600   1.008000   ; qtot 0.280460
13207         os    507    ccc     O6  13207 -0.26013600  16.000000   ; qtot 0.020324
; residue  508 ccc rtp ccc q 0.0
13208         c3    508    ccc     C1  13208 -0.33178800  12.010000   ; qtot -0.311464
13209         c3    508    ccc     C2  13209 0.30606500  12.010000   ; qtot -0.005399
13210         h1    508    ccc     H1  13210 0.11662300   1.008000   ; qtot 0.111224
13211         h1    508    ccc     H2  13211 0.11526800   1.008000   ; qtot 0.226492
13212         c3    508    ccc     C3  13212 0.15592700  12.010000   ; qtot 0.382419
13213         c3    508    ccc     C4  13213 0.28383300  12.010000   ; qtot 0.666252
13214         c3    508    ccc     C5  13214 0.32403300  12.010000   ; qtot 0.990285
13215         h1    508    ccc     H3  13215 0.13386900   1.008000   ; qtot 1.124154
13216         h1    508    ccc     H4  13216 0.10146700   1.008000   ; qtot 1.225621
13217         h2    508    ccc     H5  13217 0.10960400   1.008000   ; qtot 1.335225
13218         os    508    ccc     O1  13218 -0.28650000  16.000000   ; qtot 1.048725
13219         oh    508    ccc     O2  13219 -0.86012500  16.000000   ; qtot 0.188600
13220         oh    508    ccc     O3  13220 -0.83772800  16.000000   ; qtot -0.649128
13221         oh    508    ccc     O4  13221 -0.77449700  16.000000   ; qtot -1.423625
13222         c3    508    ccc     C6  13222 0.37576500  12.010000   ; qtot -1.047860
13223         ho    508    ccc     H6  13223 0.53656000   1.008000   ; qtot -0.511300
13224         ho    508    ccc     H7  13224 0.49492100   1.008000   ; qtot -0.016379
13225         ho    508    ccc     H8  13225 0.51297200   1.008000   ; qtot 0.496593
13226         h1    508    ccc     H9  13226 0.05653400   1.008000   ; qtot 0.553127
13227         h1    508    ccc    H10  13227 0.05653400   1.008000   ; qtot 0.609661
13228         oh    508    ccc     O5  13228 -0.84113600  16.000000   ; qtot -0.231475
13229         ho    508    ccc    H11  13229 0.51201600   1.008000   ; qtot 0.280541
13230         os    508    ccc     O6  13230 -0.26013600  16.000000   ; qtot 0.020405
; residue  509 ccc rtp ccc q 0.0
13231         c3    509    ccc     C1  13231 -0.33178800  12.010000   ; qtot -0.311383
13232         c3    509    ccc     C2  13232 0.30606500  12.010000   ; qtot -0.005318
13233         h1    509    ccc     H1  13233 0.11662300   1.008000   ; qtot 0.111305
13234         h1    509    ccc     H2  13234 0.11526800   1.008000   ; qtot 0.226573
13235         c3    509    ccc     C3  13235 0.15592700  12.010000   ; qtot 0.382500
13236         c3    509    ccc     C4  13236 0.28383300  12.010000   ; qtot 0.666333
13237         c3    509    ccc     C5  13237 0.32403300  12.010000   ; qtot 0.990366
13238         h1    509    ccc     H3  13238 0.13386900   1.008000   ; qtot 1.124235
13239         h1    509    ccc     H4  13239 0.10146700   1.008000   ; qtot 1.225702
13240         h2    509    ccc     H5  13240 0.10960400   1.008000   ; qtot 1.335306
13241         os    509    ccc     O1  13241 -0.28650000  16.000000   ; qtot 1.048806
13242         oh    509    ccc     O2  13242 -0.86012500  16.000000   ; qtot 0.188681
13243         oh    509    ccc     O3  13243 -0.83772800  16.000000   ; qtot -0.649047
13244         oh    509    ccc     O4  13244 -0.77449700  16.000000   ; qtot -1.423544
13245         c3    509    ccc     C6  13245 0.37576500  12.010000   ; qtot -1.047779
13246         ho    509    ccc     H6  13246 0.53656000   1.008000   ; qtot -0.511219
13247         ho    509    ccc     H7  13247 0.49492100   1.008000   ; qtot -0.016298
13248         ho    509    ccc     H8  13248 0.51297200   1.008000   ; qtot 0.496674
13249         h1    509    ccc     H9  13249 0.05653400   1.008000   ; qtot 0.553208
13250         h1    509    ccc    H10  13250 0.05653400   1.008000   ; qtot 0.609742
13251         oh    509    ccc     O5  13251 -0.84113600  16.000000   ; qtot -0.231394
13252         ho    509    ccc    H11  13252 0.51201600   1.008000   ; qtot 0.280622
13253         os    509    ccc     O6  13253 -0.26013600  16.000000   ; qtot 0.020486

[ bonds ]
;    ai     aj funct         c0         c1         c2         c3
      1      2     1   0.14316 258236.480000
      1      5     1   0.14316 258236.480000
      2      8     1   0.15375 251793.120000
      5     11     1   0.15375 251793.120000
      8     14     1   0.15375 251793.120000
     11     17     1   0.15375 251793.120000
     14     20     1   0.14647 272713.120000
     17     21     1   0.14647 272713.120000
     20     28     1   0.14647 272713.120000
     20     31     1   0.14647 272713.120000
     21     22     1   0.14647 272713.120000
     21     25     1   0.14647 272713.120000
     22     34     1   0.15375 251793.120000
     25     37     1   0.15375 251793.120000
     28     40     1   0.15375 251793.120000
     31     43     1   0.15375 251793.120000
     34     55     1   0.15375 251793.120000
     37     52     1   0.15375 251793.120000
     40     49     1   0.15375 251793.120000
     43     46     1   0.15375 251793.120000
     46     86     1   0.14316 258236.480000
     49    115     1   0.14316 258236.480000
     52    144     1   0.14316 258236.480000
     55    173     1   0.14316 258236.480000
     58     59     1   0.14647 272713.120000
     58     62     1   0.14647 272713.120000
     58     65     1   0.14647 272713.120000
     59     71     1   0.15375 251793.120000
     62     74     1   0.15375 251793.120000
     65     68     1   0.15375 251793.120000
     68     77     1   0.15375 251793.120000
     71     83     1   0.15375 251793.120000
     74     80     1   0.15375 251793.120000
     77     86     1   0.14316 258236.480000
     80    202     1   0.14316 258236.480000
     83    231     1   0.14316 258236.480000
     87     88     1   0.14647 272713.120000
     87     91     1   0.14647 272713.120000
     87     94     1   0.14647 272713.120000
     88    100     1   0.15375 251793.120000
     91    103     1   0.15375 251793.120000
     94     97     1   0.15375 251793.120000
     97    106     1   0.15375 251793.120000
    100    112     1   0.15375 251793.120000
    103    109     1   0.15375 251793.120000
    106    115     1   0.14316 258236.480000
    109    260     1   0.14316 258236.480000
    112    289     1   0.14316 258236.480000
    116    117     1   0.14647 272713.120000
    116    120     1   0.14647 272713.120000
    116    123     1   0.14647 272713.120000
    117    129     1   0.15375 251793.120000
    120    132     1   0.15375 251793.120000
    123    126     1   0.15375 251793.120000
    126    135     1   0.15375 251793.120000
    129    141     1   0.15375 251793.120000
    132    138     1   0.15375 251793.120000
    135    144     1   0.14316 258236.480000
    138    318     1   0.14316 258236.480000
    141    347     1   0.14316 258236.480000
    145    146     1   0.14647 272713.120000
    145    149     1   0.14647 272713.120000
    145    152     1   0.14647 272713.120000
    146    158     1   0.15375 251793.120000
    149    161     1   0.15375 251793.120000
    152    155     1   0.15375 251793.120000
    155    164     1   0.15375 251793.120000
    158    170     1   0.15375 251793.120000
    161    167     1   0.15375 251793.120000
    164    173     1   0.14316 258236.480000
    167    376     1   0.14316 258236.480000
    170    405     1   0.14316 258236.480000
    174    175     1   0.14647 272713.120000
    174    178     1   0.14647 272713.120000
    174    181     1   0.14647 272713.120000
    175    187     1   0.15375 251793.120000
    178    190     1   0.15375 251793.120000
    181    184     1   0.15375 251793.120000
    184    193     1   0.15375 251793.120000
    187    199     1   0.15375 251793.120000
    190    196     1   0.15375 251793.120000
    193    202     1   0.14316 258236.480000
    196    434     1   0.14316 258236.480000
    199    463     1   0.14316 258236.480000
    203    204     1   0.14647 272713.120000
    203    207     1   0.14647 272713.120000
    203    210     1   0.14647 272713.120000
    204    216     1   0.15375 251793.120000
    207    219     1   0.15375 251793.120000
    210    213     1   0.15375 251793.120000
    213    222     1   0.15375 251793.120000
    216    228     1   0.15375 251793.120000
    219    225     1   0.15375 251793.120000
    222    231     1   0.14316 258236.480000
    225    492     1   0.14316 258236.480000
    228    521     1   0.14316 258236.480000
    232    233     1   0.14647 272713.120000
    232    236     1   0.14647 272713.120000
    232    239     1   0.14647 272713.120000
    233    245     1   0.15375 251793.120000
    236    248     1   0.15375 251793.120000
    239    242     1   0.15375 251793.120000
    242    251     1   0.15375 251793.120000
    245    257     1   0.15375 251793.120000
    248    254     1   0.15375 251793.120000
    251    260     1   0.14316 258236.480000
    254    550     1   0.14316 258236.480000
    257    579     1   0.14316 258236.480000
    261    262     1   0.14647 272713.120000
    261    265     1   0.14647 272713.120000
    261    268     1   0.14647 272713.120000
    262    274     1   0.15375 251793.120000
    265    277     1   0.15375 251793.120000
    268    271     1   0.15375 251793.120000
    271    280     1   0.15375 251793.120000
    274    286     1   0.15375 251793.120000
    277    283     1   0.15375 251793.120000
    280    289     1   0.14316 258236.480000
    283    608     1   0.14316 258236.480000
    286    637     1   0.14316 258236.480000
    290    291     1   0.14647 272713.120000
    290    294     1   0.14647 272713.120000
    290    297     1   0.14647 272713.120000
    291    303     1   0.15375 251793.120000
    294    306     1   0.15375 251793.120000
    297    300     1   0.15375 251793.120000
    300    309     1   0.15375 251793.120000
    303    315     1   0.15375 251793.120000
    306    312     1   0.15375 251793.120000
    309    318     1   0.14316 258236.480000
    312    666     1   0.14316 258236.480000
    315    695     1   0.14316 258236.480000
    319    320     1   0.14647 272713.120000
    319    323     1   0.14647 272713.120000
    319    326     1   0.14647 272713.120000
    320    332     1   0.15375 251793.120000
    323    335     1   0.15375 251793.120000
    326    329     1   0.15375 251793.120000
    329    338     1   0.15375 251793.120000
    332    344     1   0.15375 251793.120000
    335    341     1   0.15375 251793.120000
    338    347     1   0.14316 258236.480000
    341    724     1   0.14316 258236.480000
    344    753     1   0.14316 258236.480000
    348    349     1   0.14647 272713.120000
    348    352     1   0.14647 272713.120000
    348    355     1   0.14647 272713.120000
    349    361     1   0.15375 251793.120000
    352    364     1   0.15375 251793.120000
    355    358     1   0.15375 251793.120000
    358    367     1   0.15375 251793.120000
    361    373     1   0.15375 251793.120000
    364    370     1   0.15375 251793.120000
    367    376     1   0.14316 258236.480000
    370    782     1   0.14316 258236.480000
    373    811     1   0.14316 258236.480000
    377    378     1   0.14647 272713.120000
    377    381     1   0.14647 272713.120000
    377    384     1   0.14647 272713.120000
    378    390     1   0.15375 251793.120000
    381    393     1   0.15375 251793.120000
    384    387     1   0.15375 251793.120000
    387    396     1   0.15375 251793.120000
    390    402     1   0.15375 251793.120000
    393    399     1   0.15375 251793.120000
    396    405     1   0.14316 258236.480000
    399    840     1   0.14316 258236.480000
    402    869     1   0.14316 258236.480000
    406    407     1   0.14647 272713.120000
    406    410     1   0.14647 272713.120000
    406    413     1   0.14647 272713.120000
    407    419     1   0.15375 251793.120000
    410    422     1   0.15375 251793.120000
    413    416     1   0.15375 251793.120000
    416    425     1   0.15375 251793.120000
    419    431     1   0.15375 251793.120000
    422    428     1   0.15375 251793.120000
    425    434     1   0.14316 258236.480000
    428    898     1   0.14316 258236.480000
    431    927     1   0.14316 258236.480000
    435    436     1   0.14647 272713.120000
    435    439     1   0.14647 272713.120000
    435    442     1   0.14647 272713.120000
    436    448     1   0.15375 251793.120000
    439    451     1   0.15375 251793.120000
    442    445     1   0.15375 251793.120000
    445    454     1   0.15375 251793.120000
    448    460     1   0.15375 251793.120000
    451    457     1   0.15375 251793.120000
    454    463     1   0.14316 258236.480000
    457    956     1   0.14316 258236.480000
    460    985     1   0.14316 258236.480000
    464    465     1   0.14647 272713.120000
    464    468     1   0.14647 272713.120000
    464    471     1   0.14647 272713.120000
    465    477     1   0.15375 251793.120000
    468    480     1   0.15375 251793.120000
    471    474     1   0.15375 251793.120000
    474    483     1   0.15375 251793.120000
    477    489     1   0.15375 251793.120000
    480    486     1   0.15375 251793.120000
    483    492     1   0.14316 258236.480000
    486   1014     1   0.14316 258236.480000
    489   1043     1   0.14316 258236.480000
    493    494     1   0.14647 272713.120000
    493    497     1   0.14647 272713.120000
    493    500     1   0.14647 272713.120000
    494    506     1   0.15375 251793.120000
    497    509     1   0.15375 251793.120000
    500    503     1   0.15375 251793.120000
    503    512     1   0.15375 251793.120000
    506    518     1   0.15375 251793.120000
    509    515     1   0.15375 251793.120000
    512    521     1   0.14316 258236.480000
    515   1072     1   0.14316 258236.480000
    518   1101     1   0.14316 258236.480000
    522    523     1   0.14647 272713.120000
    522    526     1   0.14647 272713.120000
    522    529     1   0.14647 272713.120000
    523    535     1   0.15375 251793.120000
    526    538     1   0.15375 251793.120000
    529    532     1   0.15375 251793.120000
    532    541     1   0.15375 251793.120000
    535    547     1   0.15375 251793.120000
    538    544     1   0.15375 251793.120000
    541    550     1   0.14316 258236.480000
    544   1130     1   0.14316 258236.480000
    547   1159     1   0.14316 258236.480000
    551    552     1   0.14647 272713.120000
    551    555     1   0.14647 272713.120000
    551    558     1   0.14647 272713.120000
    552    564     1   0.15375 251793.120000
    555    567     1   0.15375 251793.120000
    558    561     1   0.15375 251793.120000
    561    570     1   0.15375 251793.120000
    564    576     1   0.15375 251793.120000
    567    573     1   0.15375 251793.120000
    570    579     1   0.14316 258236.480000
    573   1188     1   0.14316 258236.480000
    576   1217     1   0.14316 258236.480000
    580    581     1   0.14647 272713.120000
    580    584     1   0.14647 272713.120000
    580    587     1   0.14647 272713.120000
    581    593     1   0.15375 251793.120000
    584    596     1   0.15375 251793.120000
    587    590     1   0.15375 251793.120000
    590    599     1   0.15375 251793.120000
    593    605     1   0.15375 251793.120000
    596    602     1   0.15375 251793.120000
    599    608     1   0.14316 258236.480000
    602   1246     1   0.14316 258236.480000
    605   1275     1   0.14316 258236.480000
    609    610     1   0.14647 272713.120000
    609    613     1   0.14647 272713.120000
    609    616     1   0.14647 272713.120000
    610    622     1   0.15375 251793.120000
    613    625     1   0.15375 251793.120000
    616    619     1   0.15375 251793.120000
    619    628     1   0.15375 251793.120000
    622    634     1   0.15375 251793.120000
    625    631     1   0.15375 251793.120000
    628    637     1   0.14316 258236.480000
    631   1304     1   0.14316 258236.480000
    634   1333     1   0.14316 258236.480000
    638    639     1   0.14647 272713.120000
    638    642     1   0.14647 272713.120000
    638    645     1   0.14647 272713.120000
    639    651     1   0.15375 251793.120000
    642    654     1   0.15375 251793.120000
    645    648     1   0.15375 251793.120000
    648    657     1   0.15375 251793.120000
    651    663     1   0.15375 251793.120000
    654    660     1   0.15375 251793.120000
    657    666     1   0.14316 258236.480000
    660   1362     1   0.14316 258236.480000
    663   1391     1   0.14316 258236.480000
    667    668     1   0.14647 272713.120000
    667    671     1   0.14647 272713.120000
    667    674     1   0.14647 272713.120000
    668    680     1   0.15375 251793.120000
    671    683     1   0.15375 251793.120000
    674    677     1   0.15375 251793.120000
    677    686     1   0.15375 251793.120000
    680    692     1   0.15375 251793.120000
    683    689     1   0.15375 251793.120000
    686    695     1   0.14316 258236.480000
    689   1420     1   0.14316 258236.480000
    692   1449     1   0.14316 258236.480000
    696    697     1   0.14647 272713.120000
    696    700     1   0.14647 272713.120000
    696    703     1   0.14647 272713.120000
    697    709     1   0.15375 251793.120000
    700    712     1   0.15375 251793.120000
    703    706     1   0.15375 251793.120000
    706    715     1   0.15375 251793.120000
    709    721     1   0.15375 251793.120000
    712    718     1   0.15375 251793.120000
    715    724     1   0.14316 258236.480000
    718   1478     1   0.14316 258236.480000
    721   1507     1   0.14316 258236.480000
    725    726     1   0.14647 272713.120000
    725    729     1   0.14647 272713.120000
    725    732     1   0.14647 272713.120000
    726    738     1   0.15375 251793.120000
    729    741     1   0.15375 251793.120000
    732    735     1   0.15375 251793.120000
    735    744     1   0.15375 251793.120000
    738    750     1   0.15375 251793.120000
    741    747     1   0.15375 251793.120000
    744    753     1   0.14316 258236.480000
    747   1536     1   0.14316 258236.480000
    750   1565     1   0.14316 258236.480000
    754    755     1   0.14647 272713.120000
    754    758     1   0.14647 272713.120000
    754    761     1   0.14647 272713.120000
    755    767     1   0.15375 251793.120000
    758    770     1   0.15375 251793.120000
    761    764     1   0.15375 251793.120000
    764    773     1   0.15375 251793.120000
    767    779     1   0.15375 251793.120000
    770    776     1   0.15375 251793.120000
    773    782     1   0.14316 258236.480000
    776   1594     1   0.14316 258236.480000
    779   1623     1   0.14316 258236.480000
    783    784     1   0.14647 272713.120000
    783    787     1   0.14647 272713.120000
    783    790     1   0.14647 272713.120000
    784    796     1   0.15375 251793.120000
    787    799     1   0.15375 251793.120000
    790    793     1   0.15375 251793.120000
    793    802     1   0.15375 251793.120000
    796    808     1   0.15375 251793.120000
    799    805     1   0.15375 251793.120000
    802    811     1   0.14316 258236.480000
    805   1652     1   0.14316 258236.480000
    808   1681     1   0.14316 258236.480000
    812    813     1   0.14647 272713.120000
    812    816     1   0.14647 272713.120000
    812    819     1   0.14647 272713.120000
    813    825     1   0.15375 251793.120000
    816    828     1   0.15375 251793.120000
    819    822     1   0.15375 251793.120000
    822    831     1   0.15375 251793.120000
    825    837     1   0.15375 251793.120000
    828    834     1   0.15375 251793.120000
    831    840     1   0.14316 258236.480000
    834   1710     1   0.14316 258236.480000
    837   1739     1   0.14316 258236.480000
    841    842     1   0.14647 272713.120000
    841    845     1   0.14647 272713.120000
    841    848     1   0.14647 272713.120000
    842    854     1   0.15375 251793.120000
    845    857     1   0.15375 251793.120000
    848    851     1   0.15375 251793.120000
    851    860     1   0.15375 251793.120000
    854    866     1   0.15375 251793.120000
    857    863     1   0.15375 251793.120000
    860    869     1   0.14316 258236.480000
    863   1768     1   0.14316 258236.480000
    866   1797     1   0.14316 258236.480000
    870    871     1   0.14647 272713.120000
    870    874     1   0.14647 272713.120000
    870    877     1   0.14647 272713.120000
    871    883     1   0.15375 251793.120000
    874    886     1   0.15375 251793.120000
    877    880     1   0.15375 251793.120000
    880    889     1   0.15375 251793.120000
    883    895     1   0.15375 251793.120000
    886    892     1   0.15375 251793.120000
    889    898     1   0.14316 258236.480000
    892   1826     1   0.14316 258236.480000
    895   1855     1   0.14316 258236.480000
    899    900     1   0.14647 272713.120000
    899    903     1   0.14647 272713.120000
    899    906     1   0.14647 272713.120000
    900    912     1   0.15375 251793.120000
    903    915     1   0.15375 251793.120000
    906    909     1   0.15375 251793.120000
    909    918     1   0.15375 251793.120000
    912    924     1   0.15375 251793.120000
    915    921     1   0.15375 251793.120000
    918    927     1   0.14316 258236.480000
    921   1884     1   0.14316 258236.480000
    924   1913     1   0.14316 258236.480000
    928    929     1   0.14647 272713.120000
    928    932     1   0.14647 272713.120000
    928    935     1   0.14647 272713.120000
    929    941     1   0.15375 251793.120000
    932    944     1   0.15375 251793.120000
    935    938     1   0.15375 251793.120000
    938    947     1   0.15375 251793.120000
    941    953     1   0.15375 251793.120000
    944    950     1   0.15375 251793.120000
    947    956     1   0.14316 258236.480000
    950   1942     1   0.14316 258236.480000
    953   1971     1   0.14316 258236.480000
    957    958     1   0.14647 272713.120000
    957    961     1   0.14647 272713.120000
    957    964     1   0.14647 272713.120000
    958    970     1   0.15375 251793.120000
    961    973     1   0.15375 251793.120000
    964    967     1   0.15375 251793.120000
    967    976     1   0.15375 251793.120000
    970    982     1   0.15375 251793.120000
    973    979     1   0.15375 251793.120000
    976    985     1   0.14316 258236.480000
    979   2000     1   0.14316 258236.480000
    982   2029     1   0.14316 258236.480000
    986    987     1   0.14647 272713.120000
    986    990     1   0.14647 272713.120000
    986    993     1   0.14647 272713.120000
    987    999     1   0.15375 251793.120000
    990   1002     1   0.15375 251793.120000
    993    996     1   0.15375 251793.120000
    996   1005     1   0.15375 251793.120000
    999   1011     1   0.15375 251793.120000
   1002   1008     1   0.15375 251793.120000
   1005   1014     1   0.14316 258236.480000
   1008   2058     1   0.14316 258236.480000
   1011   2087     1   0.14316 258236.480000
   1015   1016     1   0.14647 272713.120000
   1015   1019     1   0.14647 272713.120000
   1015   1022     1   0.14647 272713.120000
   1016   1028     1   0.15375 251793.120000
   1019   1031     1   0.15375 251793.120000
   1022   1025     1   0.15375 251793.120000
   1025   1034     1   0.15375 251793.120000
   1028   1040     1   0.15375 251793.120000
   1031   1037     1   0.15375 251793.120000
   1034   1043     1   0.14316 258236.480000
   1037   2116     1   0.14316 258236.480000
   1040   2145     1   0.14316 258236.480000
   1044   1045     1   0.14647 272713.120000
   1044   1048     1   0.14647 272713.120000
   1044   1051     1   0.14647 272713.120000
   1045   1057     1   0.15375 251793.120000
   1048   1060     1   0.15375 251793.120000
   1051   1054     1   0.15375 251793.120000
   1054   1063     1   0.15375 251793.120000
   1057   1069     1   0.15375 251793.120000
   1060   1066     1   0.15375 251793.120000
   1063   1072     1   0.14316 258236.480000
   1066   2174     1   0.14316 258236.480000
   1069   2203     1   0.14316 258236.480000
   1073   1074     1   0.14647 272713.120000
   1073   1077     1   0.14647 272713.120000
   1073   1080     1   0.14647 272713.120000
   1074   1086     1   0.15375 251793.120000
   1077   1089     1   0.15375 251793.120000
   1080   1083     1   0.15375 251793.120000
   1083   1092     1   0.15375 251793.120000
   1086   1098     1   0.15375 251793.120000
   1089   1095     1   0.15375 251793.120000
   1092   1101     1   0.14316 258236.480000
   1095   2232     1   0.14316 258236.480000
   1098   2261     1   0.14316 258236.480000
   1102   1103     1   0.14647 272713.120000
   1102   1106     1   0.14647 272713.120000
   1102   1109     1   0.14647 272713.120000
   1103   1115     1   0.15375 251793.120000
   1106   1118     1   0.15375 251793.120000
   1109   1112     1   0.15375 251793.120000
   1112   1121     1   0.15375 251793.120000
   1115   1127     1   0.15375 251793.120000
   1118   1124     1   0.15375 251793.120000
   1121   1130     1   0.14316 258236.480000
   1124   2290     1   0.14316 258236.480000
   1127   2319     1   0.14316 258236.480000
   1131   1132     1   0.14647 272713.120000
   1131   1135     1   0.14647 272713.120000
   1131   1138     1   0.14647 272713.120000
   1132   1144     1   0.15375 251793.120000
   1135   1147     1   0.15375 251793.120000
   1138   1141     1   0.15375 251793.120000
   1141   1150     1   0.15375 251793.120000
   1144   1156     1   0.15375 251793.120000
   1147   1153     1   0.15375 251793.120000
   1150   1159     1   0.14316 258236.480000
   1153   2348     1   0.14316 258236.480000
   1156   2377     1   0.14316 258236.480000
   1160   1161     1   0.14647 272713.120000
   1160   1164     1   0.14647 272713.120000
   1160   1167     1   0.14647 272713.120000
   1161   1173     1   0.15375 251793.120000
   1164   1176     1   0.15375 251793.120000
   1167   1170     1   0.15375 251793.120000
   1170   1179     1   0.15375 251793.120000
   1173   1185     1   0.15375 251793.120000
   1176   1182     1   0.15375 251793.120000
   1179   1188     1   0.14316 258236.480000
   1182   2406     1   0.14316 258236.480000
   1185   2435     1   0.14316 258236.480000
   1189   1190     1   0.14647 272713.120000
   1189   1193     1   0.14647 272713.120000
   1189   1196     1   0.14647 272713.120000
   1190   1202     1   0.15375 251793.120000
   1193   1205     1   0.15375 251793.120000
   1196   1199     1   0.15375 251793.120000
   1199   1208     1   0.15375 251793.120000
   1202   1214     1   0.15375 251793.120000
   1205   1211     1   0.15375 251793.120000
   1208   1217     1   0.14316 258236.480000
   1211   2464     1   0.14316 258236.480000
   1214   2493     1   0.14316 258236.480000
   1218   1219     1   0.14647 272713.120000
   1218   1222     1   0.14647 272713.120000
   1218   1225     1   0.14647 272713.120000
   1219   1231     1   0.15375 251793.120000
   1222   1234     1   0.15375 251793.120000
   1225   1228     1   0.15375 251793.120000
   1228   1237     1   0.15375 251793.120000
   1231   1243     1   0.15375 251793.120000
   1234   1240     1   0.15375 251793.120000
   1237   1246     1   0.14316 258236.480000
   1240   2522     1   0.14316 258236.480000
   1243   2551     1   0.14316 258236.480000
   1247   1248     1   0.14647 272713.120000
   1247   1251     1   0.14647 272713.120000
   1247   1254     1   0.14647 272713.120000
   1248   1260     1   0.15375 251793.120000
   1251   1263     1   0.15375 251793.120000
   1254   1257     1   0.15375 251793.120000
   1257   1266     1   0.15375 251793.120000
   1260   1272     1   0.15375 251793.120000
   1263   1269     1   0.15375 251793.120000
   1266   1275     1   0.14316 258236.480000
   1269   2580     1   0.14316 258236.480000
   1272   2609     1   0.14316 258236.480000
   1276   1277     1   0.14647 272713.120000
   1276   1280     1   0.14647 272713.120000
   1276   1283     1   0.14647 272713.120000
   1277   1289     1   0.15375 251793.120000
   1280   1292     1   0.15375 251793.120000
   1283   1286     1   0.15375 251793.120000
   1286   1295     1   0.15375 251793.120000
   1289   1301     1   0.15375 251793.120000
   1292   1298     1   0.15375 251793.120000
   1295   1304     1   0.14316 258236.480000
   1298   2638     1   0.14316 258236.480000
   1301   2667     1   0.14316 258236.480000
   1305   1306     1   0.14647 272713.120000
   1305   1309     1   0.14647 272713.120000
   1305   1312     1   0.14647 272713.120000
   1306   1318     1   0.15375 251793.120000
   1309   1321     1   0.15375 251793.120000
   1312   1315     1   0.15375 251793.120000
   1315   1324     1   0.15375 251793.120000
   1318   1330     1   0.15375 251793.120000
   1321   1327     1   0.15375 251793.120000
   1324   1333     1   0.14316 258236.480000
   1327   2696     1   0.14316 258236.480000
   1330   2725     1   0.14316 258236.480000
   1334   1335     1   0.14647 272713.120000
   1334   1338     1   0.14647 272713.120000
   1334   1341     1   0.14647 272713.120000
   1335   1347     1   0.15375 251793.120000
   1338   1350     1   0.15375 251793.120000
   1341   1344     1   0.15375 251793.120000
   1344   1353     1   0.15375 251793.120000
   1347   1359     1   0.15375 251793.120000
   1350   1356     1   0.15375 251793.120000
   1353   1362     1   0.14316 258236.480000
   1356   2754     1   0.14316 258236.480000
   1359   2783     1   0.14316 258236.480000
   1363   1364     1   0.14647 272713.120000
   1363   1367     1   0.14647 272713.120000
   1363   1370     1   0.14647 272713.120000
   1364   1376     1   0.15375 251793.120000
   1367   1379     1   0.15375 251793.120000
   1370   1373     1   0.15375 251793.120000
   1373   1382     1   0.15375 251793.120000
   1376   1388     1   0.15375 251793.120000
   1379   1385     1   0.15375 251793.120000
   1382   1391     1   0.14316 258236.480000
   1385   2812     1   0.14316 258236.480000
   1388   2841     1   0.14316 258236.480000
   1392   1393     1   0.14647 272713.120000
   1392   1396     1   0.14647 272713.120000
   1392   1399     1   0.14647 272713.120000
   1393   1405     1   0.15375 251793.120000
   1396   1408     1   0.15375 251793.120000
   1399   1402     1   0.15375 251793.120000
   1402   1411     1   0.15375 251793.120000
   1405   1417     1   0.15375 251793.120000
   1408   1414     1   0.15375 251793.120000
   1411   1420     1   0.14316 258236.480000
   1414   2870     1   0.14316 258236.480000
   1417   2899     1   0.14316 258236.480000
   1421   1422     1   0.14647 272713.120000
   1421   1425     1   0.14647 272713.120000
   1421   1428     1   0.14647 272713.120000
   1422   1434     1   0.15375 251793.120000
   1425   1437     1   0.15375 251793.120000
   1428   1431     1   0.15375 251793.120000
   1431   1440     1   0.15375 251793.120000
   1434   1446     1   0.15375 251793.120000
   1437   1443     1   0.15375 251793.120000
   1440   1449     1   0.14316 258236.480000
   1443   2928     1   0.14316 258236.480000
   1446   2957     1   0.14316 258236.480000
   1450   1451     1   0.14647 272713.120000
   1450   1454     1   0.14647 272713.120000
   1450   1457     1   0.14647 272713.120000
   1451   1463     1   0.15375 251793.120000
   1454   1466     1   0.15375 251793.120000
   1457   1460     1   0.15375 251793.120000
   1460   1469     1   0.15375 251793.120000
   1463   1475     1   0.15375 251793.120000
   1466   1472     1   0.15375 251793.120000
   1469   1478     1   0.14316 258236.480000
   1472   2986     1   0.14316 258236.480000
   1475   3015     1   0.14316 258236.480000
   1479   1480     1   0.14647 272713.120000
   1479   1483     1   0.14647 272713.120000
   1479   1486     1   0.14647 272713.120000
   1480   1492     1   0.15375 251793.120000
   1483   1495     1   0.15375 251793.120000
   1486   1489     1   0.15375 251793.120000
   1489   1498     1   0.15375 251793.120000
   1492   1504     1   0.15375 251793.120000
   1495   1501     1   0.15375 251793.120000
   1498   1507     1   0.14316 258236.480000
   1501   3044     1   0.14316 258236.480000
   1504   3073     1   0.14316 258236.480000
   1508   1509     1   0.14647 272713.120000
   1508   1512     1   0.14647 272713.120000
   1508   1515     1   0.14647 272713.120000
   1509   1521     1   0.15375 251793.120000
   1512   1524     1   0.15375 251793.120000
   1515   1518     1   0.15375 251793.120000
   1518   1527     1   0.15375 251793.120000
   1521   1533     1   0.15375 251793.120000
   1524   1530     1   0.15375 251793.120000
   1527   1536     1   0.14316 258236.480000
   1530   3102     1   0.14316 258236.480000
   1533   3131     1   0.14316 258236.480000
   1537   1538     1   0.14647 272713.120000
   1537   1541     1   0.14647 272713.120000
   1537   1544     1   0.14647 272713.120000
   1538   1550     1   0.15375 251793.120000
   1541   1553     1   0.15375 251793.120000
   1544   1547     1   0.15375 251793.120000
   1547   1556     1   0.15375 251793.120000
   1550   1562     1   0.15375 251793.120000
   1553   1559     1   0.15375 251793.120000
   1556   1565     1   0.14316 258236.480000
   1559   3160     1   0.14316 258236.480000
   1562   3189     1   0.14316 258236.480000
   1566   1567     1   0.14647 272713.120000
   1566   1570     1   0.14647 272713.120000
   1566   1573     1   0.14647 272713.120000
   1567   1579     1   0.15375 251793.120000
   1570   1582     1   0.15375 251793.120000
   1573   1576     1   0.15375 251793.120000
   1576   1585     1   0.15375 251793.120000
   1579   1591     1   0.15375 251793.120000
   1582   1588     1   0.15375 251793.120000
   1585   1594     1   0.14316 258236.480000
   1588   3218     1   0.14316 258236.480000
   1591   3247     1   0.14316 258236.480000
   1595   1596     1   0.14647 272713.120000
   1595   1599     1   0.14647 272713.120000
   1595   1602     1   0.14647 272713.120000
   1596   1608     1   0.15375 251793.120000
   1599   1611     1   0.15375 251793.120000
   1602   1605     1   0.15375 251793.120000
   1605   1614     1   0.15375 251793.120000
   1608   1620     1   0.15375 251793.120000
   1611   1617     1   0.15375 251793.120000
   1614   1623     1   0.14316 258236.480000
   1617   3276     1   0.14316 258236.480000
   1620   3305     1   0.14316 258236.480000
   1624   1625     1   0.14647 272713.120000
   1624   1628     1   0.14647 272713.120000
   1624   1631     1   0.14647 272713.120000
   1625   1637     1   0.15375 251793.120000
   1628   1640     1   0.15375 251793.120000
   1631   1634     1   0.15375 251793.120000
   1634   1643     1   0.15375 251793.120000
   1637   1649     1   0.15375 251793.120000
   1640   1646     1   0.15375 251793.120000
   1643   1652     1   0.14316 258236.480000
   1646   3334     1   0.14316 258236.480000
   1649   3363     1   0.14316 258236.480000
   1653   1654     1   0.14647 272713.120000
   1653   1657     1   0.14647 272713.120000
   1653   1660     1   0.14647 272713.120000
   1654   1666     1   0.15375 251793.120000
   1657   1669     1   0.15375 251793.120000
   1660   1663     1   0.15375 251793.120000
   1663   1672     1   0.15375 251793.120000
   1666   1678     1   0.15375 251793.120000
   1669   1675     1   0.15375 251793.120000
   1672   1681     1   0.14316 258236.480000
   1675   3392     1   0.14316 258236.480000
   1678   3421     1   0.14316 258236.480000
   1682   1683     1   0.14647 272713.120000
   1682   1686     1   0.14647 272713.120000
   1682   1689     1   0.14647 272713.120000
   1683   1695     1   0.15375 251793.120000
   1686   1698     1   0.15375 251793.120000
   1689   1692     1   0.15375 251793.120000
   1692   1701     1   0.15375 251793.120000
   1695   1707     1   0.15375 251793.120000
   1698   1704     1   0.15375 251793.120000
   1701   1710     1   0.14316 258236.480000
   1704   3450     1   0.14316 258236.480000
   1707   3479     1   0.14316 258236.480000
   1711   1712     1   0.14647 272713.120000
   1711   1715     1   0.14647 272713.120000
   1711   1718     1   0.14647 272713.120000
   1712   1724     1   0.15375 251793.120000
   1715   1727     1   0.15375 251793.120000
   1718   1721     1   0.15375 251793.120000
   1721   1730     1   0.15375 251793.120000
   1724   1736     1   0.15375 251793.120000
   1727   1733     1   0.15375 251793.120000
   1730   1739     1   0.14316 258236.480000
   1733   3508     1   0.14316 258236.480000
   1736   3537     1   0.14316 258236.480000
   1740   1741     1   0.14647 272713.120000
   1740   1744     1   0.14647 272713.120000
   1740   1747     1   0.14647 272713.120000
   1741   1753     1   0.15375 251793.120000
   1744   1756     1   0.15375 251793.120000
   1747   1750     1   0.15375 251793.120000
   1750   1759     1   0.15375 251793.120000
   1753   1765     1   0.15375 251793.120000
   1756   1762     1   0.15375 251793.120000
   1759   1768     1   0.14316 258236.480000
   1762   3566     1   0.14316 258236.480000
   1765   3595     1   0.14316 258236.480000
   1769   1770     1   0.14647 272713.120000
   1769   1773     1   0.14647 272713.120000
   1769   1776     1   0.14647 272713.120000
   1770   1782     1   0.15375 251793.120000
   1773   1785     1   0.15375 251793.120000
   1776   1779     1   0.15375 251793.120000
   1779   1788     1   0.15375 251793.120000
   1782   1794     1   0.15375 251793.120000
   1785   1791     1   0.15375 251793.120000
   1788   1797     1   0.14316 258236.480000
   1791   3624     1   0.14316 258236.480000
   1794   3653     1   0.14316 258236.480000
   1798   1799     1   0.14647 272713.120000
   1798   1802     1   0.14647 272713.120000
   1798   1805     1   0.14647 272713.120000
   1799   1811     1   0.15375 251793.120000
   1802   1814     1   0.15375 251793.120000
   1805   1808     1   0.15375 251793.120000
   1808   1817     1   0.15375 251793.120000
   1811   1823     1   0.15375 251793.120000
   1814   1820     1   0.15375 251793.120000
   1817   1826     1   0.14316 258236.480000
   1820   3682     1   0.14316 258236.480000
   1823   3711     1   0.14316 258236.480000
   1827   1828     1   0.14647 272713.120000
   1827   1831     1   0.14647 272713.120000
   1827   1834     1   0.14647 272713.120000
   1828   1840     1   0.15375 251793.120000
   1831   1843     1   0.15375 251793.120000
   1834   1837     1   0.15375 251793.120000
   1837   1846     1   0.15375 251793.120000
   1840   1852     1   0.15375 251793.120000
   1843   1849     1   0.15375 251793.120000
   1846   1855     1   0.14316 258236.480000
   1849   3740     1   0.14316 258236.480000
   1852   3769     1   0.14316 258236.480000
   1856   1857     1   0.14647 272713.120000
   1856   1860     1   0.14647 272713.120000
   1856   1863     1   0.14647 272713.120000
   1857   1869     1   0.15375 251793.120000
   1860   1872     1   0.15375 251793.120000
   1863   1866     1   0.15375 251793.120000
   1866   1875     1   0.15375 251793.120000
   1869   1881     1   0.15375 251793.120000
   1872   1878     1   0.15375 251793.120000
   1875   1884     1   0.14316 258236.480000
   1878   3798     1   0.14316 258236.480000
   1881   3827     1   0.14316 258236.480000
   1885   1886     1   0.14647 272713.120000
   1885   1889     1   0.14647 272713.120000
   1885   1892     1   0.14647 272713.120000
   1886   1898     1   0.15375 251793.120000
   1889   1901     1   0.15375 251793.120000
   1892   1895     1   0.15375 251793.120000
   1895   1904     1   0.15375 251793.120000
   1898   1910     1   0.15375 251793.120000
   1901   1907     1   0.15375 251793.120000
   1904   1913     1   0.14316 258236.480000
   1907   3856     1   0.14316 258236.480000
   1910   3885     1   0.14316 258236.480000
   1914   1915     1   0.14647 272713.120000
   1914   1918     1   0.14647 272713.120000
   1914   1921     1   0.14647 272713.120000
   1915   1927     1   0.15375 251793.120000
   1918   1930     1   0.15375 251793.120000
   1921   1924     1   0.15375 251793.120000
   1924   1933     1   0.15375 251793.120000
   1927   1939     1   0.15375 251793.120000
   1930   1936     1   0.15375 251793.120000
   1933   1942     1   0.14316 258236.480000
   1936   3914     1   0.14316 258236.480000
   1939   3943     1   0.14316 258236.480000
   1943   1944     1   0.14647 272713.120000
   1943   1947     1   0.14647 272713.120000
   1943   1950     1   0.14647 272713.120000
   1944   1956     1   0.15375 251793.120000
   1947   1959     1   0.15375 251793.120000
   1950   1953     1   0.15375 251793.120000
   1953   1962     1   0.15375 251793.120000
   1956   1968     1   0.15375 251793.120000
   1959   1965     1   0.15375 251793.120000
   1962   1971     1   0.14316 258236.480000
   1965   3972     1   0.14316 258236.480000
   1968   4001     1   0.14316 258236.480000
   1972   1973     1   0.14647 272713.120000
   1972   1976     1   0.14647 272713.120000
   1972   1979     1   0.14647 272713.120000
   1973   1985     1   0.15375 251793.120000
   1976   1988     1   0.15375 251793.120000
   1979   1982     1   0.15375 251793.120000
   1982   1991     1   0.15375 251793.120000
   1985   1997     1   0.15375 251793.120000
   1988   1994     1   0.15375 251793.120000
   1991   2000     1   0.14316 258236.480000
   1994   4030     1   0.14316 258236.480000
   1997   4059     1   0.14316 258236.480000
   2001   2002     1   0.14647 272713.120000
   2001   2005     1   0.14647 272713.120000
   2001   2008     1   0.14647 272713.120000
   2002   2014     1   0.15375 251793.120000
   2005   2017     1   0.15375 251793.120000
   2008   2011     1   0.15375 251793.120000
   2011   2020     1   0.15375 251793.120000
   2014   2026     1   0.15375 251793.120000
   2017   2023     1   0.15375 251793.120000
   2020   2029     1   0.14316 258236.480000
   2023   4088     1   0.14316 258236.480000
   2026   4117     1   0.14316 258236.480000
   2030   2031     1   0.14647 272713.120000
   2030   2034     1   0.14647 272713.120000
   2030   2037     1   0.14647 272713.120000
   2031   2043     1   0.15375 251793.120000
   2034   2046     1   0.15375 251793.120000
   2037   2040     1   0.15375 251793.120000
   2040   2049     1   0.15375 251793.120000
   2043   2055     1   0.15375 251793.120000
   2046   2052     1   0.15375 251793.120000
   2049   2058     1   0.14316 258236.480000
   2052   4146     1   0.14316 258236.480000
   2055   4175     1   0.14316 258236.480000
   2059   2060     1   0.14647 272713.120000
   2059   2063     1   0.14647 272713.120000
   2059   2066     1   0.14647 272713.120000
   2060   2072     1   0.15375 251793.120000
   2063   2075     1   0.15375 251793.120000
   2066   2069     1   0.15375 251793.120000
   2069   2078     1   0.15375 251793.120000
   2072   2084     1   0.15375 251793.120000
   2075   2081     1   0.15375 251793.120000
   2078   2087     1   0.14316 258236.480000
   2081   4204     1   0.14316 258236.480000
   2084   4233     1   0.14316 258236.480000
   2088   2089     1   0.14647 272713.120000
   2088   2092     1   0.14647 272713.120000
   2088   2095     1   0.14647 272713.120000
   2089   2101     1   0.15375 251793.120000
   2092   2104     1   0.15375 251793.120000
   2095   2098     1   0.15375 251793.120000
   2098   2107     1   0.15375 251793.120000
   2101   2113     1   0.15375 251793.120000
   2104   2110     1   0.15375 251793.120000
   2107   2116     1   0.14316 258236.480000
   2110   4262     1   0.14316 258236.480000
   2113   4291     1   0.14316 258236.480000
   2117   2118     1   0.14647 272713.120000
   2117   2121     1   0.14647 272713.120000
   2117   2124     1   0.14647 272713.120000
   2118   2130     1   0.15375 251793.120000
   2121   2133     1   0.15375 251793.120000
   2124   2127     1   0.15375 251793.120000
   2127   2136     1   0.15375 251793.120000
   2130   2142     1   0.15375 251793.120000
   2133   2139     1   0.15375 251793.120000
   2136   2145     1   0.14316 258236.480000
   2139   4320     1   0.14316 258236.480000
   2142   4349     1   0.14316 258236.480000
   2146   2147     1   0.14647 272713.120000
   2146   2150     1   0.14647 272713.120000
   2146   2153     1   0.14647 272713.120000
   2147   2159     1   0.15375 251793.120000
   2150   2162     1   0.15375 251793.120000
   2153   2156     1   0.15375 251793.120000
   2156   2165     1   0.15375 251793.120000
   2159   2171     1   0.15375 251793.120000
   2162   2168     1   0.15375 251793.120000
   2165   2174     1   0.14316 258236.480000
   2168   4378     1   0.14316 258236.480000
   2171   4407     1   0.14316 258236.480000
   2175   2176     1   0.14647 272713.120000
   2175   2179     1   0.14647 272713.120000
   2175   2182     1   0.14647 272713.120000
   2176   2188     1   0.15375 251793.120000
   2179   2191     1   0.15375 251793.120000
   2182   2185     1   0.15375 251793.120000
   2185   2194     1   0.15375 251793.120000
   2188   2200     1   0.15375 251793.120000
   2191   2197     1   0.15375 251793.120000
   2194   2203     1   0.14316 258236.480000
   2197   4436     1   0.14316 258236.480000
   2200   4465     1   0.14316 258236.480000
   2204   2205     1   0.14647 272713.120000
   2204   2208     1   0.14647 272713.120000
   2204   2211     1   0.14647 272713.120000
   2205   2217     1   0.15375 251793.120000
   2208   2220     1   0.15375 251793.120000
   2211   2214     1   0.15375 251793.120000
   2214   2223     1   0.15375 251793.120000
   2217   2229     1   0.15375 251793.120000
   2220   2226     1   0.15375 251793.120000
   2223   2232     1   0.14316 258236.480000
   2226   4494     1   0.14316 258236.480000
   2229   4523     1   0.14316 258236.480000
   2233   2234     1   0.14647 272713.120000
   2233   2237     1   0.14647 272713.120000
   2233   2240     1   0.14647 272713.120000
   2234   2246     1   0.15375 251793.120000
   2237   2249     1   0.15375 251793.120000
   2240   2243     1   0.15375 251793.120000
   2243   2252     1   0.15375 251793.120000
   2246   2258     1   0.15375 251793.120000
   2249   2255     1   0.15375 251793.120000
   2252   2261     1   0.14316 258236.480000
   2255   4552     1   0.14316 258236.480000
   2258   4581     1   0.14316 258236.480000
   2262   2263     1   0.14647 272713.120000
   2262   2266     1   0.14647 272713.120000
   2262   2269     1   0.14647 272713.120000
   2263   2275     1   0.15375 251793.120000
   2266   2278     1   0.15375 251793.120000
   2269   2272     1   0.15375 251793.120000
   2272   2281     1   0.15375 251793.120000
   2275   2287     1   0.15375 251793.120000
   2278   2284     1   0.15375 251793.120000
   2281   2290     1   0.14316 258236.480000
   2284   4610     1   0.14316 258236.480000
   2287   4639     1   0.14316 258236.480000
   2291   2292     1   0.14647 272713.120000
   2291   2295     1   0.14647 272713.120000
   2291   2298     1   0.14647 272713.120000
   2292   2304     1   0.15375 251793.120000
   2295   2307     1   0.15375 251793.120000
   2298   2301     1   0.15375 251793.120000
   2301   2310     1   0.15375 251793.120000
   2304   2316     1   0.15375 251793.120000
   2307   2313     1   0.15375 251793.120000
   2310   2319     1   0.14316 258236.480000
   2313   4668     1   0.14316 258236.480000
   2316   4697     1   0.14316 258236.480000
   2320   2321     1   0.14647 272713.120000
   2320   2324     1   0.14647 272713.120000
   2320   2327     1   0.14647 272713.120000
   2321   2333     1   0.15375 251793.120000
   2324   2336     1   0.15375 251793.120000
   2327   2330     1   0.15375 251793.120000
   2330   2339     1   0.15375 251793.120000
   2333   2345     1   0.15375 251793.120000
   2336   2342     1   0.15375 251793.120000
   2339   2348     1   0.14316 258236.480000
   2342   4726     1   0.14316 258236.480000
   2345   4755     1   0.14316 258236.480000
   2349   2350     1   0.14647 272713.120000
   2349   2353     1   0.14647 272713.120000
   2349   2356     1   0.14647 272713.120000
   2350   2362     1   0.15375 251793.120000
   2353   2365     1   0.15375 251793.120000
   2356   2359     1   0.15375 251793.120000
   2359   2368     1   0.15375 251793.120000
   2362   2374     1   0.15375 251793.120000
   2365   2371     1   0.15375 251793.120000
   2368   2377     1   0.14316 258236.480000
   2371   4784     1   0.14316 258236.480000
   2374   4813     1   0.14316 258236.480000
   2378   2379     1   0.14647 272713.120000
   2378   2382     1   0.14647 272713.120000
   2378   2385     1   0.14647 272713.120000
   2379   2391     1   0.15375 251793.120000
   2382   2394     1   0.15375 251793.120000
   2385   2388     1   0.15375 251793.120000
   2388   2397     1   0.15375 251793.120000
   2391   2403     1   0.15375 251793.120000
   2394   2400     1   0.15375 251793.120000
   2397   2406     1   0.14316 258236.480000
   2400   4842     1   0.14316 258236.480000
   2403   4871     1   0.14316 258236.480000
   2407   2408     1   0.14647 272713.120000
   2407   2411     1   0.14647 272713.120000
   2407   2414     1   0.14647 272713.120000
   2408   2420     1   0.15375 251793.120000
   2411   2423     1   0.15375 251793.120000
   2414   2417     1   0.15375 251793.120000
   2417   2426     1   0.15375 251793.120000
   2420   2432     1   0.15375 251793.120000
   2423   2429     1   0.15375 251793.120000
   2426   2435     1   0.14316 258236.480000
   2429   4900     1   0.14316 258236.480000
   2432   4929     1   0.14316 258236.480000
   2436   2437     1   0.14647 272713.120000
   2436   2440     1   0.14647 272713.120000
   2436   2443     1   0.14647 272713.120000
   2437   2449     1   0.15375 251793.120000
   2440   2452     1   0.15375 251793.120000
   2443   2446     1   0.15375 251793.120000
   2446   2455     1   0.15375 251793.120000
   2449   2461     1   0.15375 251793.120000
   2452   2458     1   0.15375 251793.120000
   2455   2464     1   0.14316 258236.480000
   2458   4958     1   0.14316 258236.480000
   2461   4987     1   0.14316 258236.480000
   2465   2466     1   0.14647 272713.120000
   2465   2469     1   0.14647 272713.120000
   2465   2472     1   0.14647 272713.120000
   2466   2478     1   0.15375 251793.120000
   2469   2481     1   0.15375 251793.120000
   2472   2475     1   0.15375 251793.120000
   2475   2484     1   0.15375 251793.120000
   2478   2490     1   0.15375 251793.120000
   2481   2487     1   0.15375 251793.120000
   2484   2493     1   0.14316 258236.480000
   2487   5016     1   0.14316 258236.480000
   2490   5045     1   0.14316 258236.480000
   2494   2495     1   0.14647 272713.120000
   2494   2498     1   0.14647 272713.120000
   2494   2501     1   0.14647 272713.120000
   2495   2507     1   0.15375 251793.120000
   2498   2510     1   0.15375 251793.120000
   2501   2504     1   0.15375 251793.120000
   2504   2513     1   0.15375 251793.120000
   2507   2519     1   0.15375 251793.120000
   2510   2516     1   0.15375 251793.120000
   2513   2522     1   0.14316 258236.480000
   2516   5074     1   0.14316 258236.480000
   2519   5103     1   0.14316 258236.480000
   2523   2524     1   0.14647 272713.120000
   2523   2527     1   0.14647 272713.120000
   2523   2530     1   0.14647 272713.120000
   2524   2536     1   0.15375 251793.120000
   2527   2539     1   0.15375 251793.120000
   2530   2533     1   0.15375 251793.120000
   2533   2542     1   0.15375 251793.120000
   2536   2548     1   0.15375 251793.120000
   2539   2545     1   0.15375 251793.120000
   2542   2551     1   0.14316 258236.480000
   2545   5132     1   0.14316 258236.480000
   2548   5161     1   0.14316 258236.480000
   2552   2553     1   0.14647 272713.120000
   2552   2556     1   0.14647 272713.120000
   2552   2559     1   0.14647 272713.120000
   2553   2565     1   0.15375 251793.120000
   2556   2568     1   0.15375 251793.120000
   2559   2562     1   0.15375 251793.120000
   2562   2571     1   0.15375 251793.120000
   2565   2577     1   0.15375 251793.120000
   2568   2574     1   0.15375 251793.120000
   2571   2580     1   0.14316 258236.480000
   2574   5190     1   0.14316 258236.480000
   2577   5219     1   0.14316 258236.480000
   2581   2582     1   0.14647 272713.120000
   2581   2585     1   0.14647 272713.120000
   2581   2588     1   0.14647 272713.120000
   2582   2594     1   0.15375 251793.120000
   2585   2597     1   0.15375 251793.120000
   2588   2591     1   0.15375 251793.120000
   2591   2600     1   0.15375 251793.120000
   2594   2606     1   0.15375 251793.120000
   2597   2603     1   0.15375 251793.120000
   2600   2609     1   0.14316 258236.480000
   2603   5248     1   0.14316 258236.480000
   2606   5277     1   0.14316 258236.480000
   2610   2611     1   0.14647 272713.120000
   2610   2614     1   0.14647 272713.120000
   2610   2617     1   0.14647 272713.120000
   2611   2623     1   0.15375 251793.120000
   2614   2626     1   0.15375 251793.120000
   2617   2620     1   0.15375 251793.120000
   2620   2629     1   0.15375 251793.120000
   2623   2635     1   0.15375 251793.120000
   2626   2632     1   0.15375 251793.120000
   2629   2638     1   0.14316 258236.480000
   2632   5306     1   0.14316 258236.480000
   2635   5335     1   0.14316 258236.480000
   2639   2640     1   0.14647 272713.120000
   2639   2643     1   0.14647 272713.120000
   2639   2646     1   0.14647 272713.120000
   2640   2652     1   0.15375 251793.120000
   2643   2655     1   0.15375 251793.120000
   2646   2649     1   0.15375 251793.120000
   2649   2658     1   0.15375 251793.120000
   2652   2664     1   0.15375 251793.120000
   2655   2661     1   0.15375 251793.120000
   2658   2667     1   0.14316 258236.480000
   2661   5364     1   0.14316 258236.480000
   2664   5393     1   0.14316 258236.480000
   2668   2669     1   0.14647 272713.120000
   2668   2672     1   0.14647 272713.120000
   2668   2675     1   0.14647 272713.120000
   2669   2681     1   0.15375 251793.120000
   2672   2684     1   0.15375 251793.120000
   2675   2678     1   0.15375 251793.120000
   2678   2687     1   0.15375 251793.120000
   2681   2693     1   0.15375 251793.120000
   2684   2690     1   0.15375 251793.120000
   2687   2696     1   0.14316 258236.480000
   2690   5422     1   0.14316 258236.480000
   2693   5451     1   0.14316 258236.480000
   2697   2698     1   0.14647 272713.120000
   2697   2701     1   0.14647 272713.120000
   2697   2704     1   0.14647 272713.120000
   2698   2710     1   0.15375 251793.120000
   2701   2713     1   0.15375 251793.120000
   2704   2707     1   0.15375 251793.120000
   2707   2716     1   0.15375 251793.120000
   2710   2722     1   0.15375 251793.120000
   2713   2719     1   0.15375 251793.120000
   2716   2725     1   0.14316 258236.480000
   2719   5480     1   0.14316 258236.480000
   2722   5509     1   0.14316 258236.480000
   2726   2727     1   0.14647 272713.120000
   2726   2730     1   0.14647 272713.120000
   2726   2733     1   0.14647 272713.120000
   2727   2739     1   0.15375 251793.120000
   2730   2742     1   0.15375 251793.120000
   2733   2736     1   0.15375 251793.120000
   2736   2745     1   0.15375 251793.120000
   2739   2751     1   0.15375 251793.120000
   2742   2748     1   0.15375 251793.120000
   2745   2754     1   0.14316 258236.480000
   2748   5538     1   0.14316 258236.480000
   2751   5567     1   0.14316 258236.480000
   2755   2756     1   0.14647 272713.120000
   2755   2759     1   0.14647 272713.120000
   2755   2762     1   0.14647 272713.120000
   2756   2768     1   0.15375 251793.120000
   2759   2771     1   0.15375 251793.120000
   2762   2765     1   0.15375 251793.120000
   2765   2774     1   0.15375 251793.120000
   2768   2780     1   0.15375 251793.120000
   2771   2777     1   0.15375 251793.120000
   2774   2783     1   0.14316 258236.480000
   2777   5596     1   0.14316 258236.480000
   2780   5625     1   0.14316 258236.480000
   2784   2785     1   0.14647 272713.120000
   2784   2788     1   0.14647 272713.120000
   2784   2791     1   0.14647 272713.120000
   2785   2797     1   0.15375 251793.120000
   2788   2800     1   0.15375 251793.120000
   2791   2794     1   0.15375 251793.120000
   2794   2803     1   0.15375 251793.120000
   2797   2809     1   0.15375 251793.120000
   2800   2806     1   0.15375 251793.120000
   2803   2812     1   0.14316 258236.480000
   2806   5654     1   0.14316 258236.480000
   2809   5683     1   0.14316 258236.480000
   2813   2814     1   0.14647 272713.120000
   2813   2817     1   0.14647 272713.120000
   2813   2820     1   0.14647 272713.120000
   2814   2826     1   0.15375 251793.120000
   2817   2829     1   0.15375 251793.120000
   2820   2823     1   0.15375 251793.120000
   2823   2832     1   0.15375 251793.120000
   2826   2838     1   0.15375 251793.120000
   2829   2835     1   0.15375 251793.120000
   2832   2841     1   0.14316 258236.480000
   2835   5712     1   0.14316 258236.480000
   2838   5741     1   0.14316 258236.480000
   2842   2843     1   0.14647 272713.120000
   2842   2846     1   0.14647 272713.120000
   2842   2849     1   0.14647 272713.120000
   2843   2855     1   0.15375 251793.120000
   2846   2858     1   0.15375 251793.120000
   2849   2852     1   0.15375 251793.120000
   2852   2861     1   0.15375 251793.120000
   2855   2867     1   0.15375 251793.120000
   2858   2864     1   0.15375 251793.120000
   2861   2870     1   0.14316 258236.480000
   2864   5770     1   0.14316 258236.480000
   2867   5799     1   0.14316 258236.480000
   2871   2872     1   0.14647 272713.120000
   2871   2875     1   0.14647 272713.120000
   2871   2878     1   0.14647 272713.120000
   2872   2884     1   0.15375 251793.120000
   2875   2887     1   0.15375 251793.120000
   2878   2881     1   0.15375 251793.120000
   2881   2890     1   0.15375 251793.120000
   2884   2896     1   0.15375 251793.120000
   2887   2893     1   0.15375 251793.120000
   2890   2899     1   0.14316 258236.480000
   2893   5828     1   0.14316 258236.480000
   2896   5857     1   0.14316 258236.480000
   2900   2901     1   0.14647 272713.120000
   2900   2904     1   0.14647 272713.120000
   2900   2907     1   0.14647 272713.120000
   2901   2913     1   0.15375 251793.120000
   2904   2916     1   0.15375 251793.120000
   2907   2910     1   0.15375 251793.120000
   2910   2919     1   0.15375 251793.120000
   2913   2925     1   0.15375 251793.120000
   2916   2922     1   0.15375 251793.120000
   2919   2928     1   0.14316 258236.480000
   2922   5886     1   0.14316 258236.480000
   2925   5915     1   0.14316 258236.480000
   2929   2930     1   0.14647 272713.120000
   2929   2933     1   0.14647 272713.120000
   2929   2936     1   0.14647 272713.120000
   2930   2942     1   0.15375 251793.120000
   2933   2945     1   0.15375 251793.120000
   2936   2939     1   0.15375 251793.120000
   2939   2948     1   0.15375 251793.120000
   2942   2954     1   0.15375 251793.120000
   2945   2951     1   0.15375 251793.120000
   2948   2957     1   0.14316 258236.480000
   2951   5944     1   0.14316 258236.480000
   2954   5973     1   0.14316 258236.480000
   2958   2959     1   0.14647 272713.120000
   2958   2962     1   0.14647 272713.120000
   2958   2965     1   0.14647 272713.120000
   2959   2971     1   0.15375 251793.120000
   2962   2974     1   0.15375 251793.120000
   2965   2968     1   0.15375 251793.120000
   2968   2977     1   0.15375 251793.120000
   2971   2983     1   0.15375 251793.120000
   2974   2980     1   0.15375 251793.120000
   2977   2986     1   0.14316 258236.480000
   2980   6002     1   0.14316 258236.480000
   2983   6031     1   0.14316 258236.480000
   2987   2988     1   0.14647 272713.120000
   2987   2991     1   0.14647 272713.120000
   2987   2994     1   0.14647 272713.120000
   2988   3000     1   0.15375 251793.120000
   2991   3003     1   0.15375 251793.120000
   2994   2997     1   0.15375 251793.120000
   2997   3006     1   0.15375 251793.120000
   3000   3012     1   0.15375 251793.120000
   3003   3009     1   0.15375 251793.120000
   3006   3015     1   0.14316 258236.480000
   3009   6060     1   0.14316 258236.480000
   3012   6089     1   0.14316 258236.480000
   3016   3017     1   0.14647 272713.120000
   3016   3020     1   0.14647 272713.120000
   3016   3023     1   0.14647 272713.120000
   3017   3029     1   0.15375 251793.120000
   3020   3032     1   0.15375 251793.120000
   3023   3026     1   0.15375 251793.120000
   3026   3035     1   0.15375 251793.120000
   3029   3041     1   0.15375 251793.120000
   3032   3038     1   0.15375 251793.120000
   3035   3044     1   0.14316 258236.480000
   3038   6118     1   0.14316 258236.480000
   3041   6147     1   0.14316 258236.480000
   3045   3046     1   0.14647 272713.120000
   3045   3049     1   0.14647 272713.120000
   3045   3052     1   0.14647 272713.120000
   3046   3058     1   0.15375 251793.120000
   3049   3061     1   0.15375 251793.120000
   3052   3055     1   0.15375 251793.120000
   3055   3064     1   0.15375 251793.120000
   3058   3070     1   0.15375 251793.120000
   3061   3067     1   0.15375 251793.120000
   3064   3073     1   0.14316 258236.480000
   3067   6176     1   0.14316 258236.480000
   3070   6205     1   0.14316 258236.480000
   3074   3075     1   0.14647 272713.120000
   3074   3078     1   0.14647 272713.120000
   3074   3081     1   0.14647 272713.120000
   3075   3087     1   0.15375 251793.120000
   3078   3090     1   0.15375 251793.120000
   3081   3084     1   0.15375 251793.120000
   3084   3093     1   0.15375 251793.120000
   3087   3099     1   0.15375 251793.120000
   3090   3096     1   0.15375 251793.120000
   3093   3102     1   0.14316 258236.480000
   3096   6234     1   0.14316 258236.480000
   3099   6263     1   0.14316 258236.480000
   3103   3104     1   0.14647 272713.120000
   3103   3107     1   0.14647 272713.120000
   3103   3110     1   0.14647 272713.120000
   3104   3116     1   0.15375 251793.120000
   3107   3119     1   0.15375 251793.120000
   3110   3113     1   0.15375 251793.120000
   3113   3122     1   0.15375 251793.120000
   3116   3128     1   0.15375 251793.120000
   3119   3125     1   0.15375 251793.120000
   3122   3131     1   0.14316 258236.480000
   3125   6292     1   0.14316 258236.480000
   3128   6321     1   0.14316 258236.480000
   3132   3133     1   0.14647 272713.120000
   3132   3136     1   0.14647 272713.120000
   3132   3139     1   0.14647 272713.120000
   3133   3145     1   0.15375 251793.120000
   3136   3148     1   0.15375 251793.120000
   3139   3142     1   0.15375 251793.120000
   3142   3151     1   0.15375 251793.120000
   3145   3157     1   0.15375 251793.120000
   3148   3154     1   0.15375 251793.120000
   3151   3160     1   0.14316 258236.480000
   3154   6350     1   0.14316 258236.480000
   3157   6379     1   0.14316 258236.480000
   3161   3162     1   0.14647 272713.120000
   3161   3165     1   0.14647 272713.120000
   3161   3168     1   0.14647 272713.120000
   3162   3174     1   0.15375 251793.120000
   3165   3177     1   0.15375 251793.120000
   3168   3171     1   0.15375 251793.120000
   3171   3180     1   0.15375 251793.120000
   3174   3186     1   0.15375 251793.120000
   3177   3183     1   0.15375 251793.120000
   3180   3189     1   0.14316 258236.480000
   3183   6408     1   0.14316 258236.480000
   3186   6437     1   0.14316 258236.480000
   3190   3191     1   0.14647 272713.120000
   3190   3194     1   0.14647 272713.120000
   3190   3197     1   0.14647 272713.120000
   3191   3203     1   0.15375 251793.120000
   3194   3206     1   0.15375 251793.120000
   3197   3200     1   0.15375 251793.120000
   3200   3209     1   0.15375 251793.120000
   3203   3215     1   0.15375 251793.120000
   3206   3212     1   0.15375 251793.120000
   3209   3218     1   0.14316 258236.480000
   3212   6466     1   0.14316 258236.480000
   3215   6495     1   0.14316 258236.480000
   3219   3220     1   0.14647 272713.120000
   3219   3223     1   0.14647 272713.120000
   3219   3226     1   0.14647 272713.120000
   3220   3232     1   0.15375 251793.120000
   3223   3235     1   0.15375 251793.120000
   3226   3229     1   0.15375 251793.120000
   3229   3238     1   0.15375 251793.120000
   3232   3244     1   0.15375 251793.120000
   3235   3241     1   0.15375 251793.120000
   3238   3247     1   0.14316 258236.480000
   3241   6524     1   0.14316 258236.480000
   3244   6553     1   0.14316 258236.480000
   3248   3249     1   0.14647 272713.120000
   3248   3252     1   0.14647 272713.120000
   3248   3255     1   0.14647 272713.120000
   3249   3261     1   0.15375 251793.120000
   3252   3264     1   0.15375 251793.120000
   3255   3258     1   0.15375 251793.120000
   3258   3267     1   0.15375 251793.120000
   3261   3273     1   0.15375 251793.120000
   3264   3270     1   0.15375 251793.120000
   3267   3276     1   0.14316 258236.480000
   3270   6582     1   0.14316 258236.480000
   3273   6611     1   0.14316 258236.480000
   3277   3278     1   0.14647 272713.120000
   3277   3281     1   0.14647 272713.120000
   3277   3284     1   0.14647 272713.120000
   3278   3290     1   0.15375 251793.120000
   3281   3293     1   0.15375 251793.120000
   3284   3287     1   0.15375 251793.120000
   3287   3296     1   0.15375 251793.120000
   3290   3302     1   0.15375 251793.120000
   3293   3299     1   0.15375 251793.120000
   3296   3305     1   0.14316 258236.480000
   3299   6640     1   0.14316 258236.480000
   3302   6669     1   0.14316 258236.480000
   3306   3307     1   0.14647 272713.120000
   3306   3310     1   0.14647 272713.120000
   3306   3313     1   0.14647 272713.120000
   3307   3319     1   0.15375 251793.120000
   3310   3322     1   0.15375 251793.120000
   3313   3316     1   0.15375 251793.120000
   3316   3325     1   0.15375 251793.120000
   3319   3331     1   0.15375 251793.120000
   3322   3328     1   0.15375 251793.120000
   3325   3334     1   0.14316 258236.480000
   3328   6698     1   0.14316 258236.480000
   3331   6727     1   0.14316 258236.480000
   3335   3336     1   0.14647 272713.120000
   3335   3339     1   0.14647 272713.120000
   3335   3342     1   0.14647 272713.120000
   3336   3348     1   0.15375 251793.120000
   3339   3351     1   0.15375 251793.120000
   3342   3345     1   0.15375 251793.120000
   3345   3354     1   0.15375 251793.120000
   3348   3360     1   0.15375 251793.120000
   3351   3357     1   0.15375 251793.120000
   3354   3363     1   0.14316 258236.480000
   3357   6756     1   0.14316 258236.480000
   3360   6785     1   0.14316 258236.480000
   3364   3365     1   0.14647 272713.120000
   3364   3368     1   0.14647 272713.120000
   3364   3371     1   0.14647 272713.120000
   3365   3377     1   0.15375 251793.120000
   3368   3380     1   0.15375 251793.120000
   3371   3374     1   0.15375 251793.120000
   3374   3383     1   0.15375 251793.120000
   3377   3389     1   0.15375 251793.120000
   3380   3386     1   0.15375 251793.120000
   3383   3392     1   0.14316 258236.480000
   3386   6814     1   0.14316 258236.480000
   3389   6843     1   0.14316 258236.480000
   3393   3394     1   0.14647 272713.120000
   3393   3397     1   0.14647 272713.120000
   3393   3400     1   0.14647 272713.120000
   3394   3406     1   0.15375 251793.120000
   3397   3409     1   0.15375 251793.120000
   3400   3403     1   0.15375 251793.120000
   3403   3412     1   0.15375 251793.120000
   3406   3418     1   0.15375 251793.120000
   3409   3415     1   0.15375 251793.120000
   3412   3421     1   0.14316 258236.480000
   3415   6872     1   0.14316 258236.480000
   3418   6901     1   0.14316 258236.480000
   3422   3423     1   0.14647 272713.120000
   3422   3426     1   0.14647 272713.120000
   3422   3429     1   0.14647 272713.120000
   3423   3435     1   0.15375 251793.120000
   3426   3438     1   0.15375 251793.120000
   3429   3432     1   0.15375 251793.120000
   3432   3441     1   0.15375 251793.120000
   3435   3447     1   0.15375 251793.120000
   3438   3444     1   0.15375 251793.120000
   3441   3450     1   0.14316 258236.480000
   3444   6930     1   0.14316 258236.480000
   3447   6959     1   0.14316 258236.480000
   3451   3452     1   0.14647 272713.120000
   3451   3455     1   0.14647 272713.120000
   3451   3458     1   0.14647 272713.120000
   3452   3464     1   0.15375 251793.120000
   3455   3467     1   0.15375 251793.120000
   3458   3461     1   0.15375 251793.120000
   3461   3470     1   0.15375 251793.120000
   3464   3476     1   0.15375 251793.120000
   3467   3473     1   0.15375 251793.120000
   3470   3479     1   0.14316 258236.480000
   3473   6988     1   0.14316 258236.480000
   3476   7017     1   0.14316 258236.480000
   3480   3481     1   0.14647 272713.120000
   3480   3484     1   0.14647 272713.120000
   3480   3487     1   0.14647 272713.120000
   3481   3493     1   0.15375 251793.120000
   3484   3496     1   0.15375 251793.120000
   3487   3490     1   0.15375 251793.120000
   3490   3499     1   0.15375 251793.120000
   3493   3505     1   0.15375 251793.120000
   3496   3502     1   0.15375 251793.120000
   3499   3508     1   0.14316 258236.480000
   3502   7046     1   0.14316 258236.480000
   3505   7075     1   0.14316 258236.480000
   3509   3510     1   0.14647 272713.120000
   3509   3513     1   0.14647 272713.120000
   3509   3516     1   0.14647 272713.120000
   3510   3522     1   0.15375 251793.120000
   3513   3525     1   0.15375 251793.120000
   3516   3519     1   0.15375 251793.120000
   3519   3528     1   0.15375 251793.120000
   3522   3534     1   0.15375 251793.120000
   3525   3531     1   0.15375 251793.120000
   3528   3537     1   0.14316 258236.480000
   3531   7104     1   0.14316 258236.480000
   3534   7133     1   0.14316 258236.480000
   3538   3539     1   0.14647 272713.120000
   3538   3542     1   0.14647 272713.120000
   3538   3545     1   0.14647 272713.120000
   3539   3551     1   0.15375 251793.120000
   3542   3554     1   0.15375 251793.120000
   3545   3548     1   0.15375 251793.120000
   3548   3557     1   0.15375 251793.120000
   3551   3563     1   0.15375 251793.120000
   3554   3560     1   0.15375 251793.120000
   3557   3566     1   0.14316 258236.480000
   3560   7162     1   0.14316 258236.480000
   3563   7191     1   0.14316 258236.480000
   3567   3568     1   0.14647 272713.120000
   3567   3571     1   0.14647 272713.120000
   3567   3574     1   0.14647 272713.120000
   3568   3580     1   0.15375 251793.120000
   3571   3583     1   0.15375 251793.120000
   3574   3577     1   0.15375 251793.120000
   3577   3586     1   0.15375 251793.120000
   3580   3592     1   0.15375 251793.120000
   3583   3589     1   0.15375 251793.120000
   3586   3595     1   0.14316 258236.480000
   3589   7220     1   0.14316 258236.480000
   3592   7249     1   0.14316 258236.480000
   3596   3597     1   0.14647 272713.120000
   3596   3600     1   0.14647 272713.120000
   3596   3603     1   0.14647 272713.120000
   3597   3609     1   0.15375 251793.120000
   3600   3612     1   0.15375 251793.120000
   3603   3606     1   0.15375 251793.120000
   3606   3615     1   0.15375 251793.120000
   3609   3621     1   0.15375 251793.120000
   3612   3618     1   0.15375 251793.120000
   3615   3624     1   0.14316 258236.480000
   3618   7278     1   0.14316 258236.480000
   3621   7307     1   0.14316 258236.480000
   3625   3626     1   0.14647 272713.120000
   3625   3629     1   0.14647 272713.120000
   3625   3632     1   0.14647 272713.120000
   3626   3638     1   0.15375 251793.120000
   3629   3641     1   0.15375 251793.120000
   3632   3635     1   0.15375 251793.120000
   3635   3644     1   0.15375 251793.120000
   3638   3650     1   0.15375 251793.120000
   3641   3647     1   0.15375 251793.120000
   3644   3653     1   0.14316 258236.480000
   3647   7336     1   0.14316 258236.480000
   3650   7365     1   0.14316 258236.480000
   3654   3655     1   0.14647 272713.120000
   3654   3658     1   0.14647 272713.120000
   3654   3661     1   0.14647 272713.120000
   3655   3667     1   0.15375 251793.120000
   3658   3670     1   0.15375 251793.120000
   3661   3664     1   0.15375 251793.120000
   3664   3673     1   0.15375 251793.120000
   3667   3679     1   0.15375 251793.120000
   3670   3676     1   0.15375 251793.120000
   3673   3682     1   0.14316 258236.480000
   3676   7376     1   0.14316 258236.480000
   3679   7399     1   0.14316 258236.480000
   3683   3684     1   0.14647 272713.120000
   3683   3687     1   0.14647 272713.120000
   3683   3690     1   0.14647 272713.120000
   3684   3696     1   0.15375 251793.120000
   3687   3699     1   0.15375 251793.120000
   3690   3693     1   0.15375 251793.120000
   3693   3702     1   0.15375 251793.120000
   3696   3708     1   0.15375 251793.120000
   3699   3705     1   0.15375 251793.120000
   3702   3711     1   0.14316 258236.480000
   3705   7422     1   0.14316 258236.480000
   3708   7445     1   0.14316 258236.480000
   3712   3713     1   0.14647 272713.120000
   3712   3716     1   0.14647 272713.120000
   3712   3719     1   0.14647 272713.120000
   3713   3725     1   0.15375 251793.120000
   3716   3728     1   0.15375 251793.120000
   3719   3722     1   0.15375 251793.120000
   3722   3731     1   0.15375 251793.120000
   3725   3737     1   0.15375 251793.120000
   3728   3734     1   0.15375 251793.120000
   3731   3740     1   0.14316 258236.480000
   3734   7468     1   0.14316 258236.480000
   3737   7491     1   0.14316 258236.480000
   3741   3742     1   0.14647 272713.120000
   3741   3745     1   0.14647 272713.120000
   3741   3748     1   0.14647 272713.120000
   3742   3754     1   0.15375 251793.120000
   3745   3757     1   0.15375 251793.120000
   3748   3751     1   0.15375 251793.120000
   3751   3760     1   0.15375 251793.120000
   3754   3766     1   0.15375 251793.120000
   3757   3763     1   0.15375 251793.120000
   3760   3769     1   0.14316 258236.480000
   3763   7514     1   0.14316 258236.480000
   3766   7537     1   0.14316 258236.480000
   3770   3771     1   0.14647 272713.120000
   3770   3774     1   0.14647 272713.120000
   3770   3777     1   0.14647 272713.120000
   3771   3783     1   0.15375 251793.120000
   3774   3786     1   0.15375 251793.120000
   3777   3780     1   0.15375 251793.120000
   3780   3789     1   0.15375 251793.120000
   3783   3795     1   0.15375 251793.120000
   3786   3792     1   0.15375 251793.120000
   3789   3798     1   0.14316 258236.480000
   3792   7560     1   0.14316 258236.480000
   3795   7583     1   0.14316 258236.480000
   3799   3800     1   0.14647 272713.120000
   3799   3803     1   0.14647 272713.120000
   3799   3806     1   0.14647 272713.120000
   3800   3812     1   0.15375 251793.120000
   3803   3815     1   0.15375 251793.120000
   3806   3809     1   0.15375 251793.120000
   3809   3818     1   0.15375 251793.120000
   3812   3824     1   0.15375 251793.120000
   3815   3821     1   0.15375 251793.120000
   3818   3827     1   0.14316 258236.480000
   3821   7606     1   0.14316 258236.480000
   3824   7629     1   0.14316 258236.480000
   3828   3829     1   0.14647 272713.120000
   3828   3832     1   0.14647 272713.120000
   3828   3835     1   0.14647 272713.120000
   3829   3841     1   0.15375 251793.120000
   3832   3844     1   0.15375 251793.120000
   3835   3838     1   0.15375 251793.120000
   3838   3847     1   0.15375 251793.120000
   3841   3853     1   0.15375 251793.120000
   3844   3850     1   0.15375 251793.120000
   3847   3856     1   0.14316 258236.480000
   3850   7652     1   0.14316 258236.480000
   3853   7675     1   0.14316 258236.480000
   3857   3858     1   0.14647 272713.120000
   3857   3861     1   0.14647 272713.120000
   3857   3864     1   0.14647 272713.120000
   3858   3870     1   0.15375 251793.120000
   3861   3873     1   0.15375 251793.120000
   3864   3867     1   0.15375 251793.120000
   3867   3876     1   0.15375 251793.120000
   3870   3882     1   0.15375 251793.120000
   3873   3879     1   0.15375 251793.120000
   3876   3885     1   0.14316 258236.480000
   3879   7698     1   0.14316 258236.480000
   3882   7721     1   0.14316 258236.480000
   3886   3887     1   0.14647 272713.120000
   3886   3890     1   0.14647 272713.120000
   3886   3893     1   0.14647 272713.120000
   3887   3899     1   0.15375 251793.120000
   3890   3902     1   0.15375 251793.120000
   3893   3896     1   0.15375 251793.120000
   3896   3905     1   0.15375 251793.120000
   3899   3911     1   0.15375 251793.120000
   3902   3908     1   0.15375 251793.120000
   3905   3914     1   0.14316 258236.480000
   3908   7744     1   0.14316 258236.480000
   3911   7767     1   0.14316 258236.480000
   3915   3916     1   0.14647 272713.120000
   3915   3919     1   0.14647 272713.120000
   3915   3922     1   0.14647 272713.120000
   3916   3928     1   0.15375 251793.120000
   3919   3931     1   0.15375 251793.120000
   3922   3925     1   0.15375 251793.120000
   3925   3934     1   0.15375 251793.120000
   3928   3940     1   0.15375 251793.120000
   3931   3937     1   0.15375 251793.120000
   3934   3943     1   0.14316 258236.480000
   3937   7790     1   0.14316 258236.480000
   3940   7813     1   0.14316 258236.480000
   3944   3945     1   0.14647 272713.120000
   3944   3948     1   0.14647 272713.120000
   3944   3951     1   0.14647 272713.120000
   3945   3957     1   0.15375 251793.120000
   3948   3960     1   0.15375 251793.120000
   3951   3954     1   0.15375 251793.120000
   3954   3963     1   0.15375 251793.120000
   3957   3969     1   0.15375 251793.120000
   3960   3966     1   0.15375 251793.120000
   3963   3972     1   0.14316 258236.480000
   3966   7836     1   0.14316 258236.480000
   3969   7859     1   0.14316 258236.480000
   3973   3974     1   0.14647 272713.120000
   3973   3977     1   0.14647 272713.120000
   3973   3980     1   0.14647 272713.120000
   3974   3986     1   0.15375 251793.120000
   3977   3989     1   0.15375 251793.120000
   3980   3983     1   0.15375 251793.120000
   3983   3992     1   0.15375 251793.120000
   3986   3998     1   0.15375 251793.120000
   3989   3995     1   0.15375 251793.120000
   3992   4001     1   0.14316 258236.480000
   3995   7882     1   0.14316 258236.480000
   3998   7905     1   0.14316 258236.480000
   4002   4003     1   0.14647 272713.120000
   4002   4006     1   0.14647 272713.120000
   4002   4009     1   0.14647 272713.120000
   4003   4015     1   0.15375 251793.120000
   4006   4018     1   0.15375 251793.120000
   4009   4012     1   0.15375 251793.120000
   4012   4021     1   0.15375 251793.120000
   4015   4027     1   0.15375 251793.120000
   4018   4024     1   0.15375 251793.120000
   4021   4030     1   0.14316 258236.480000
   4024   7928     1   0.14316 258236.480000
   4027   7951     1   0.14316 258236.480000
   4031   4032     1   0.14647 272713.120000
   4031   4035     1   0.14647 272713.120000
   4031   4038     1   0.14647 272713.120000
   4032   4044     1   0.15375 251793.120000
   4035   4047     1   0.15375 251793.120000
   4038   4041     1   0.15375 251793.120000
   4041   4050     1   0.15375 251793.120000
   4044   4056     1   0.15375 251793.120000
   4047   4053     1   0.15375 251793.120000
   4050   4059     1   0.14316 258236.480000
   4053   7974     1   0.14316 258236.480000
   4056   7997     1   0.14316 258236.480000
   4060   4061     1   0.14647 272713.120000
   4060   4064     1   0.14647 272713.120000
   4060   4067     1   0.14647 272713.120000
   4061   4073     1   0.15375 251793.120000
   4064   4076     1   0.15375 251793.120000
   4067   4070     1   0.15375 251793.120000
   4070   4079     1   0.15375 251793.120000
   4073   4085     1   0.15375 251793.120000
   4076   4082     1   0.15375 251793.120000
   4079   4088     1   0.14316 258236.480000
   4082   8020     1   0.14316 258236.480000
   4085   8043     1   0.14316 258236.480000
   4089   4090     1   0.14647 272713.120000
   4089   4093     1   0.14647 272713.120000
   4089   4096     1   0.14647 272713.120000
   4090   4102     1   0.15375 251793.120000
   4093   4105     1   0.15375 251793.120000
   4096   4099     1   0.15375 251793.120000
   4099   4108     1   0.15375 251793.120000
   4102   4114     1   0.15375 251793.120000
   4105   4111     1   0.15375 251793.120000
   4108   4117     1   0.14316 258236.480000
   4111   8066     1   0.14316 258236.480000
   4114   8089     1   0.14316 258236.480000
   4118   4119     1   0.14647 272713.120000
   4118   4122     1   0.14647 272713.120000
   4118   4125     1   0.14647 272713.120000
   4119   4131     1   0.15375 251793.120000
   4122   4134     1   0.15375 251793.120000
   4125   4128     1   0.15375 251793.120000
   4128   4137     1   0.15375 251793.120000
   4131   4143     1   0.15375 251793.120000
   4134   4140     1   0.15375 251793.120000
   4137   4146     1   0.14316 258236.480000
   4140   8112     1   0.14316 258236.480000
   4143   8135     1   0.14316 258236.480000
   4147   4148     1   0.14647 272713.120000
   4147   4151     1   0.14647 272713.120000
   4147   4154     1   0.14647 272713.120000
   4148   4160     1   0.15375 251793.120000
   4151   4163     1   0.15375 251793.120000
   4154   4157     1   0.15375 251793.120000
   4157   4166     1   0.15375 251793.120000
   4160   4172     1   0.15375 251793.120000
   4163   4169     1   0.15375 251793.120000
   4166   4175     1   0.14316 258236.480000
   4169   8158     1   0.14316 258236.480000
   4172   8181     1   0.14316 258236.480000
   4176   4177     1   0.14647 272713.120000
   4176   4180     1   0.14647 272713.120000
   4176   4183     1   0.14647 272713.120000
   4177   4189     1   0.15375 251793.120000
   4180   4192     1   0.15375 251793.120000
   4183   4186     1   0.15375 251793.120000
   4186   4195     1   0.15375 251793.120000
   4189   4201     1   0.15375 251793.120000
   4192   4198     1   0.15375 251793.120000
   4195   4204     1   0.14316 258236.480000
   4198   8204     1   0.14316 258236.480000
   4201   8227     1   0.14316 258236.480000
   4205   4206     1   0.14647 272713.120000
   4205   4209     1   0.14647 272713.120000
   4205   4212     1   0.14647 272713.120000
   4206   4218     1   0.15375 251793.120000
   4209   4221     1   0.15375 251793.120000
   4212   4215     1   0.15375 251793.120000
   4215   4224     1   0.15375 251793.120000
   4218   4230     1   0.15375 251793.120000
   4221   4227     1   0.15375 251793.120000
   4224   4233     1   0.14316 258236.480000
   4227   8250     1   0.14316 258236.480000
   4230   8273     1   0.14316 258236.480000
   4234   4235     1   0.14647 272713.120000
   4234   4238     1   0.14647 272713.120000
   4234   4241     1   0.14647 272713.120000
   4235   4247     1   0.15375 251793.120000
   4238   4250     1   0.15375 251793.120000
   4241   4244     1   0.15375 251793.120000
   4244   4253     1   0.15375 251793.120000
   4247   4259     1   0.15375 251793.120000
   4250   4256     1   0.15375 251793.120000
   4253   4262     1   0.14316 258236.480000
   4256   8296     1   0.14316 258236.480000
   4259   8319     1   0.14316 258236.480000
   4263   4264     1   0.14647 272713.120000
   4263   4267     1   0.14647 272713.120000
   4263   4270     1   0.14647 272713.120000
   4264   4276     1   0.15375 251793.120000
   4267   4279     1   0.15375 251793.120000
   4270   4273     1   0.15375 251793.120000
   4273   4282     1   0.15375 251793.120000
   4276   4288     1   0.15375 251793.120000
   4279   4285     1   0.15375 251793.120000
   4282   4291     1   0.14316 258236.480000
   4285   8342     1   0.14316 258236.480000
   4288   8365     1   0.14316 258236.480000
   4292   4293     1   0.14647 272713.120000
   4292   4296     1   0.14647 272713.120000
   4292   4299     1   0.14647 272713.120000
   4293   4305     1   0.15375 251793.120000
   4296   4308     1   0.15375 251793.120000
   4299   4302     1   0.15375 251793.120000
   4302   4311     1   0.15375 251793.120000
   4305   4317     1   0.15375 251793.120000
   4308   4314     1   0.15375 251793.120000
   4311   4320     1   0.14316 258236.480000
   4314   8388     1   0.14316 258236.480000
   4317   8411     1   0.14316 258236.480000
   4321   4322     1   0.14647 272713.120000
   4321   4325     1   0.14647 272713.120000
   4321   4328     1   0.14647 272713.120000
   4322   4334     1   0.15375 251793.120000
   4325   4337     1   0.15375 251793.120000
   4328   4331     1   0.15375 251793.120000
   4331   4340     1   0.15375 251793.120000
   4334   4346     1   0.15375 251793.120000
   4337   4343     1   0.15375 251793.120000
   4340   4349     1   0.14316 258236.480000
   4343   8434     1   0.14316 258236.480000
   4346   8457     1   0.14316 258236.480000
   4350   4351     1   0.14647 272713.120000
   4350   4354     1   0.14647 272713.120000
   4350   4357     1   0.14647 272713.120000
   4351   4363     1   0.15375 251793.120000
   4354   4366     1   0.15375 251793.120000
   4357   4360     1   0.15375 251793.120000
   4360   4369     1   0.15375 251793.120000
   4363   4375     1   0.15375 251793.120000
   4366   4372     1   0.15375 251793.120000
   4369   4378     1   0.14316 258236.480000
   4372   8480     1   0.14316 258236.480000
   4375   8503     1   0.14316 258236.480000
   4379   4380     1   0.14647 272713.120000
   4379   4383     1   0.14647 272713.120000
   4379   4386     1   0.14647 272713.120000
   4380   4392     1   0.15375 251793.120000
   4383   4395     1   0.15375 251793.120000
   4386   4389     1   0.15375 251793.120000
   4389   4398     1   0.15375 251793.120000
   4392   4404     1   0.15375 251793.120000
   4395   4401     1   0.15375 251793.120000
   4398   4407     1   0.14316 258236.480000
   4401   8526     1   0.14316 258236.480000
   4404   8549     1   0.14316 258236.480000
   4408   4409     1   0.14647 272713.120000
   4408   4412     1   0.14647 272713.120000
   4408   4415     1   0.14647 272713.120000
   4409   4421     1   0.15375 251793.120000
   4412   4424     1   0.15375 251793.120000
   4415   4418     1   0.15375 251793.120000
   4418   4427     1   0.15375 251793.120000
   4421   4433     1   0.15375 251793.120000
   4424   4430     1   0.15375 251793.120000
   4427   4436     1   0.14316 258236.480000
   4430   8572     1   0.14316 258236.480000
   4433   8595     1   0.14316 258236.480000
   4437   4438     1   0.14647 272713.120000
   4437   4441     1   0.14647 272713.120000
   4437   4444     1   0.14647 272713.120000
   4438   4450     1   0.15375 251793.120000
   4441   4453     1   0.15375 251793.120000
   4444   4447     1   0.15375 251793.120000
   4447   4456     1   0.15375 251793.120000
   4450   4462     1   0.15375 251793.120000
   4453   4459     1   0.15375 251793.120000
   4456   4465     1   0.14316 258236.480000
   4459   8618     1   0.14316 258236.480000
   4462   8641     1   0.14316 258236.480000
   4466   4467     1   0.14647 272713.120000
   4466   4470     1   0.14647 272713.120000
   4466   4473     1   0.14647 272713.120000
   4467   4479     1   0.15375 251793.120000
   4470   4482     1   0.15375 251793.120000
   4473   4476     1   0.15375 251793.120000
   4476   4485     1   0.15375 251793.120000
   4479   4491     1   0.15375 251793.120000
   4482   4488     1   0.15375 251793.120000
   4485   4494     1   0.14316 258236.480000
   4488   8664     1   0.14316 258236.480000
   4491   8687     1   0.14316 258236.480000
   4495   4496     1   0.14647 272713.120000
   4495   4499     1   0.14647 272713.120000
   4495   4502     1   0.14647 272713.120000
   4496   4508     1   0.15375 251793.120000
   4499   4511     1   0.15375 251793.120000
   4502   4505     1   0.15375 251793.120000
   4505   4514     1   0.15375 251793.120000
   4508   4520     1   0.15375 251793.120000
   4511   4517     1   0.15375 251793.120000
   4514   4523     1   0.14316 258236.480000
   4517   8710     1   0.14316 258236.480000
   4520   8733     1   0.14316 258236.480000
   4524   4525     1   0.14647 272713.120000
   4524   4528     1   0.14647 272713.120000
   4524   4531     1   0.14647 272713.120000
   4525   4537     1   0.15375 251793.120000
   4528   4540     1   0.15375 251793.120000
   4531   4534     1   0.15375 251793.120000
   4534   4543     1   0.15375 251793.120000
   4537   4549     1   0.15375 251793.120000
   4540   4546     1   0.15375 251793.120000
   4543   4552     1   0.14316 258236.480000
   4546   8756     1   0.14316 258236.480000
   4549   8779     1   0.14316 258236.480000
   4553   4554     1   0.14647 272713.120000
   4553   4557     1   0.14647 272713.120000
   4553   4560     1   0.14647 272713.120000
   4554   4566     1   0.15375 251793.120000
   4557   4569     1   0.15375 251793.120000
   4560   4563     1   0.15375 251793.120000
   4563   4572     1   0.15375 251793.120000
   4566   4578     1   0.15375 251793.120000
   4569   4575     1   0.15375 251793.120000
   4572   4581     1   0.14316 258236.480000
   4575   8802     1   0.14316 258236.480000
   4578   8825     1   0.14316 258236.480000
   4582   4583     1   0.14647 272713.120000
   4582   4586     1   0.14647 272713.120000
   4582   4589     1   0.14647 272713.120000
   4583   4595     1   0.15375 251793.120000
   4586   4598     1   0.15375 251793.120000
   4589   4592     1   0.15375 251793.120000
   4592   4601     1   0.15375 251793.120000
   4595   4607     1   0.15375 251793.120000
   4598   4604     1   0.15375 251793.120000
   4601   4610     1   0.14316 258236.480000
   4604   8848     1   0.14316 258236.480000
   4607   8871     1   0.14316 258236.480000
   4611   4612     1   0.14647 272713.120000
   4611   4615     1   0.14647 272713.120000
   4611   4618     1   0.14647 272713.120000
   4612   4624     1   0.15375 251793.120000
   4615   4627     1   0.15375 251793.120000
   4618   4621     1   0.15375 251793.120000
   4621   4630     1   0.15375 251793.120000
   4624   4636     1   0.15375 251793.120000
   4627   4633     1   0.15375 251793.120000
   4630   4639     1   0.14316 258236.480000
   4633   8894     1   0.14316 258236.480000
   4636   8917     1   0.14316 258236.480000
   4640   4641     1   0.14647 272713.120000
   4640   4644     1   0.14647 272713.120000
   4640   4647     1   0.14647 272713.120000
   4641   4653     1   0.15375 251793.120000
   4644   4656     1   0.15375 251793.120000
   4647   4650     1   0.15375 251793.120000
   4650   4659     1   0.15375 251793.120000
   4653   4665     1   0.15375 251793.120000
   4656   4662     1   0.15375 251793.120000
   4659   4668     1   0.14316 258236.480000
   4662   8940     1   0.14316 258236.480000
   4665   8963     1   0.14316 258236.480000
   4669   4670     1   0.14647 272713.120000
   4669   4673     1   0.14647 272713.120000
   4669   4676     1   0.14647 272713.120000
   4670   4682     1   0.15375 251793.120000
   4673   4685     1   0.15375 251793.120000
   4676   4679     1   0.15375 251793.120000
   4679   4688     1   0.15375 251793.120000
   4682   4694     1   0.15375 251793.120000
   4685   4691     1   0.15375 251793.120000
   4688   4697     1   0.14316 258236.480000
   4691   8986     1   0.14316 258236.480000
   4694   9009     1   0.14316 258236.480000
   4698   4699     1   0.14647 272713.120000
   4698   4702     1   0.14647 272713.120000
   4698   4705     1   0.14647 272713.120000
   4699   4711     1   0.15375 251793.120000
   4702   4714     1   0.15375 251793.120000
   4705   4708     1   0.15375 251793.120000
   4708   4717     1   0.15375 251793.120000
   4711   4723     1   0.15375 251793.120000
   4714   4720     1   0.15375 251793.120000
   4717   4726     1   0.14316 258236.480000
   4720   9032     1   0.14316 258236.480000
   4723   9055     1   0.14316 258236.480000
   4727   4728     1   0.14647 272713.120000
   4727   4731     1   0.14647 272713.120000
   4727   4734     1   0.14647 272713.120000
   4728   4740     1   0.15375 251793.120000
   4731   4743     1   0.15375 251793.120000
   4734   4737     1   0.15375 251793.120000
   4737   4746     1   0.15375 251793.120000
   4740   4752     1   0.15375 251793.120000
   4743   4749     1   0.15375 251793.120000
   4746   4755     1   0.14316 258236.480000
   4749   9078     1   0.14316 258236.480000
   4752   9101     1   0.14316 258236.480000
   4756   4757     1   0.14647 272713.120000
   4756   4760     1   0.14647 272713.120000
   4756   4763     1   0.14647 272713.120000
   4757   4769     1   0.15375 251793.120000
   4760   4772     1   0.15375 251793.120000
   4763   4766     1   0.15375 251793.120000
   4766   4775     1   0.15375 251793.120000
   4769   4781     1   0.15375 251793.120000
   4772   4778     1   0.15375 251793.120000
   4775   4784     1   0.14316 258236.480000
   4778   9124     1   0.14316 258236.480000
   4781   9147     1   0.14316 258236.480000
   4785   4786     1   0.14647 272713.120000
   4785   4789     1   0.14647 272713.120000
   4785   4792     1   0.14647 272713.120000
   4786   4798     1   0.15375 251793.120000
   4789   4801     1   0.15375 251793.120000
   4792   4795     1   0.15375 251793.120000
   4795   4804     1   0.15375 251793.120000
   4798   4810     1   0.15375 251793.120000
   4801   4807     1   0.15375 251793.120000
   4804   4813     1   0.14316 258236.480000
   4807   9170     1   0.14316 258236.480000
   4810   9193     1   0.14316 258236.480000
   4814   4815     1   0.14647 272713.120000
   4814   4818     1   0.14647 272713.120000
   4814   4821     1   0.14647 272713.120000
   4815   4827     1   0.15375 251793.120000
   4818   4830     1   0.15375 251793.120000
   4821   4824     1   0.15375 251793.120000
   4824   4833     1   0.15375 251793.120000
   4827   4839     1   0.15375 251793.120000
   4830   4836     1   0.15375 251793.120000
   4833   4842     1   0.14316 258236.480000
   4836   9216     1   0.14316 258236.480000
   4839   9239     1   0.14316 258236.480000
   4843   4844     1   0.14647 272713.120000
   4843   4847     1   0.14647 272713.120000
   4843   4850     1   0.14647 272713.120000
   4844   4856     1   0.15375 251793.120000
   4847   4859     1   0.15375 251793.120000
   4850   4853     1   0.15375 251793.120000
   4853   4862     1   0.15375 251793.120000
   4856   4868     1   0.15375 251793.120000
   4859   4865     1   0.15375 251793.120000
   4862   4871     1   0.14316 258236.480000
   4865   9262     1   0.14316 258236.480000
   4868   9285     1   0.14316 258236.480000
   4872   4873     1   0.14647 272713.120000
   4872   4876     1   0.14647 272713.120000
   4872   4879     1   0.14647 272713.120000
   4873   4885     1   0.15375 251793.120000
   4876   4888     1   0.15375 251793.120000
   4879   4882     1   0.15375 251793.120000
   4882   4891     1   0.15375 251793.120000
   4885   4897     1   0.15375 251793.120000
   4888   4894     1   0.15375 251793.120000
   4891   4900     1   0.14316 258236.480000
   4894   9308     1   0.14316 258236.480000
   4897   9331     1   0.14316 258236.480000
   4901   4902     1   0.14647 272713.120000
   4901   4905     1   0.14647 272713.120000
   4901   4908     1   0.14647 272713.120000
   4902   4914     1   0.15375 251793.120000
   4905   4917     1   0.15375 251793.120000
   4908   4911     1   0.15375 251793.120000
   4911   4920     1   0.15375 251793.120000
   4914   4926     1   0.15375 251793.120000
   4917   4923     1   0.15375 251793.120000
   4920   4929     1   0.14316 258236.480000
   4923   9354     1   0.14316 258236.480000
   4926   9377     1   0.14316 258236.480000
   4930   4931     1   0.14647 272713.120000
   4930   4934     1   0.14647 272713.120000
   4930   4937     1   0.14647 272713.120000
   4931   4943     1   0.15375 251793.120000
   4934   4946     1   0.15375 251793.120000
   4937   4940     1   0.15375 251793.120000
   4940   4949     1   0.15375 251793.120000
   4943   4955     1   0.15375 251793.120000
   4946   4952     1   0.15375 251793.120000
   4949   4958     1   0.14316 258236.480000
   4952   9400     1   0.14316 258236.480000
   4955   9423     1   0.14316 258236.480000
   4959   4960     1   0.14647 272713.120000
   4959   4963     1   0.14647 272713.120000
   4959   4966     1   0.14647 272713.120000
   4960   4972     1   0.15375 251793.120000
   4963   4975     1   0.15375 251793.120000
   4966   4969     1   0.15375 251793.120000
   4969   4978     1   0.15375 251793.120000
   4972   4984     1   0.15375 251793.120000
   4975   4981     1   0.15375 251793.120000
   4978   4987     1   0.14316 258236.480000
   4981   9446     1   0.14316 258236.480000
   4984   9469     1   0.14316 258236.480000
   4988   4989     1   0.14647 272713.120000
   4988   4992     1   0.14647 272713.120000
   4988   4995     1   0.14647 272713.120000
   4989   5001     1   0.15375 251793.120000
   4992   5004     1   0.15375 251793.120000
   4995   4998     1   0.15375 251793.120000
   4998   5007     1   0.15375 251793.120000
   5001   5013     1   0.15375 251793.120000
   5004   5010     1   0.15375 251793.120000
   5007   5016     1   0.14316 258236.480000
   5010   9492     1   0.14316 258236.480000
   5013   9515     1   0.14316 258236.480000
   5017   5018     1   0.14647 272713.120000
   5017   5021     1   0.14647 272713.120000
   5017   5024     1   0.14647 272713.120000
   5018   5030     1   0.15375 251793.120000
   5021   5033     1   0.15375 251793.120000
   5024   5027     1   0.15375 251793.120000
   5027   5036     1   0.15375 251793.120000
   5030   5042     1   0.15375 251793.120000
   5033   5039     1   0.15375 251793.120000
   5036   5045     1   0.14316 258236.480000
   5039   9538     1   0.14316 258236.480000
   5042   9561     1   0.14316 258236.480000
   5046   5047     1   0.14647 272713.120000
   5046   5050     1   0.14647 272713.120000
   5046   5053     1   0.14647 272713.120000
   5047   5059     1   0.15375 251793.120000
   5050   5062     1   0.15375 251793.120000
   5053   5056     1   0.15375 251793.120000
   5056   5065     1   0.15375 251793.120000
   5059   5071     1   0.15375 251793.120000
   5062   5068     1   0.15375 251793.120000
   5065   5074     1   0.14316 258236.480000
   5068   9584     1   0.14316 258236.480000
   5071   9607     1   0.14316 258236.480000
   5075   5076     1   0.14647 272713.120000
   5075   5079     1   0.14647 272713.120000
   5075   5082     1   0.14647 272713.120000
   5076   5088     1   0.15375 251793.120000
   5079   5091     1   0.15375 251793.120000
   5082   5085     1   0.15375 251793.120000
   5085   5094     1   0.15375 251793.120000
   5088   5100     1   0.15375 251793.120000
   5091   5097     1   0.15375 251793.120000
   5094   5103     1   0.14316 258236.480000
   5097   9630     1   0.14316 258236.480000
   5100   9653     1   0.14316 258236.480000
   5104   5105     1   0.14647 272713.120000
   5104   5108     1   0.14647 272713.120000
   5104   5111     1   0.14647 272713.120000
   5105   5117     1   0.15375 251793.120000
   5108   5120     1   0.15375 251793.120000
   5111   5114     1   0.15375 251793.120000
   5114   5123     1   0.15375 251793.120000
   5117   5129     1   0.15375 251793.120000
   5120   5126     1   0.15375 251793.120000
   5123   5132     1   0.14316 258236.480000
   5126   9676     1   0.14316 258236.480000
   5129   9699     1   0.14316 258236.480000
   5133   5134     1   0.14647 272713.120000
   5133   5137     1   0.14647 272713.120000
   5133   5140     1   0.14647 272713.120000
   5134   5146     1   0.15375 251793.120000
   5137   5149     1   0.15375 251793.120000
   5140   5143     1   0.15375 251793.120000
   5143   5152     1   0.15375 251793.120000
   5146   5158     1   0.15375 251793.120000
   5149   5155     1   0.15375 251793.120000
   5152   5161     1   0.14316 258236.480000
   5155   9722     1   0.14316 258236.480000
   5158   9745     1   0.14316 258236.480000
   5162   5163     1   0.14647 272713.120000
   5162   5166     1   0.14647 272713.120000
   5162   5169     1   0.14647 272713.120000
   5163   5175     1   0.15375 251793.120000
   5166   5178     1   0.15375 251793.120000
   5169   5172     1   0.15375 251793.120000
   5172   5181     1   0.15375 251793.120000
   5175   5187     1   0.15375 251793.120000
   5178   5184     1   0.15375 251793.120000
   5181   5190     1   0.14316 258236.480000
   5184   9768     1   0.14316 258236.480000
   5187   9791     1   0.14316 258236.480000
   5191   5192     1   0.14647 272713.120000
   5191   5195     1   0.14647 272713.120000
   5191   5198     1   0.14647 272713.120000
   5192   5204     1   0.15375 251793.120000
   5195   5207     1   0.15375 251793.120000
   5198   5201     1   0.15375 251793.120000
   5201   5210     1   0.15375 251793.120000
   5204   5216     1   0.15375 251793.120000
   5207   5213     1   0.15375 251793.120000
   5210   5219     1   0.14316 258236.480000
   5213   9814     1   0.14316 258236.480000
   5216   9837     1   0.14316 258236.480000
   5220   5221     1   0.14647 272713.120000
   5220   5224     1   0.14647 272713.120000
   5220   5227     1   0.14647 272713.120000
   5221   5233     1   0.15375 251793.120000
   5224   5236     1   0.15375 251793.120000
   5227   5230     1   0.15375 251793.120000
   5230   5239     1   0.15375 251793.120000
   5233   5245     1   0.15375 251793.120000
   5236   5242     1   0.15375 251793.120000
   5239   5248     1   0.14316 258236.480000
   5242   9860     1   0.14316 258236.480000
   5245   9883     1   0.14316 258236.480000
   5249   5250     1   0.14647 272713.120000
   5249   5253     1   0.14647 272713.120000
   5249   5256     1   0.14647 272713.120000
   5250   5262     1   0.15375 251793.120000
   5253   5265     1   0.15375 251793.120000
   5256   5259     1   0.15375 251793.120000
   5259   5268     1   0.15375 251793.120000
   5262   5274     1   0.15375 251793.120000
   5265   5271     1   0.15375 251793.120000
   5268   5277     1   0.14316 258236.480000
   5271   9906     1   0.14316 258236.480000
   5274   9929     1   0.14316 258236.480000
   5278   5279     1   0.14647 272713.120000
   5278   5282     1   0.14647 272713.120000
   5278   5285     1   0.14647 272713.120000
   5279   5291     1   0.15375 251793.120000
   5282   5294     1   0.15375 251793.120000
   5285   5288     1   0.15375 251793.120000
   5288   5297     1   0.15375 251793.120000
   5291   5303     1   0.15375 251793.120000
   5294   5300     1   0.15375 251793.120000
   5297   5306     1   0.14316 258236.480000
   5300   9952     1   0.14316 258236.480000
   5303   9975     1   0.14316 258236.480000
   5307   5308     1   0.14647 272713.120000
   5307   5311     1   0.14647 272713.120000
   5307   5314     1   0.14647 272713.120000
   5308   5320     1   0.15375 251793.120000
   5311   5323     1   0.15375 251793.120000
   5314   5317     1   0.15375 251793.120000
   5317   5326     1   0.15375 251793.120000
   5320   5332     1   0.15375 251793.120000
   5323   5329     1   0.15375 251793.120000
   5326   5335     1   0.14316 258236.480000
   5329   9998     1   0.14316 258236.480000
   5332  10021     1   0.14316 258236.480000
   5336   5337     1   0.14647 272713.120000
   5336   5340     1   0.14647 272713.120000
   5336   5343     1   0.14647 272713.120000
   5337   5349     1   0.15375 251793.120000
   5340   5352     1   0.15375 251793.120000
   5343   5346     1   0.15375 251793.120000
   5346   5355     1   0.15375 251793.120000
   5349   5361     1   0.15375 251793.120000
   5352   5358     1   0.15375 251793.120000
   5355   5364     1   0.14316 258236.480000
   5358  10044     1   0.14316 258236.480000
   5361  10067     1   0.14316 258236.480000
   5365   5366     1   0.14647 272713.120000
   5365   5369     1   0.14647 272713.120000
   5365   5372     1   0.14647 272713.120000
   5366   5378     1   0.15375 251793.120000
   5369   5381     1   0.15375 251793.120000
   5372   5375     1   0.15375 251793.120000
   5375   5384     1   0.15375 251793.120000
   5378   5390     1   0.15375 251793.120000
   5381   5387     1   0.15375 251793.120000
   5384   5393     1   0.14316 258236.480000
   5387  10090     1   0.14316 258236.480000
   5390  10113     1   0.14316 258236.480000
   5394   5395     1   0.14647 272713.120000
   5394   5398     1   0.14647 272713.120000
   5394   5401     1   0.14647 272713.120000
   5395   5407     1   0.15375 251793.120000
   5398   5410     1   0.15375 251793.120000
   5401   5404     1   0.15375 251793.120000
   5404   5413     1   0.15375 251793.120000
   5407   5419     1   0.15375 251793.120000
   5410   5416     1   0.15375 251793.120000
   5413   5422     1   0.14316 258236.480000
   5416  10136     1   0.14316 258236.480000
   5419  10159     1   0.14316 258236.480000
   5423   5424     1   0.14647 272713.120000
   5423   5427     1   0.14647 272713.120000
   5423   5430     1   0.14647 272713.120000
   5424   5436     1   0.15375 251793.120000
   5427   5439     1   0.15375 251793.120000
   5430   5433     1   0.15375 251793.120000
   5433   5442     1   0.15375 251793.120000
   5436   5448     1   0.15375 251793.120000
   5439   5445     1   0.15375 251793.120000
   5442   5451     1   0.14316 258236.480000
   5445  10182     1   0.14316 258236.480000
   5448  10205     1   0.14316 258236.480000
   5452   5453     1   0.14647 272713.120000
   5452   5456     1   0.14647 272713.120000
   5452   5459     1   0.14647 272713.120000
   5453   5465     1   0.15375 251793.120000
   5456   5468     1   0.15375 251793.120000
   5459   5462     1   0.15375 251793.120000
   5462   5471     1   0.15375 251793.120000
   5465   5477     1   0.15375 251793.120000
   5468   5474     1   0.15375 251793.120000
   5471   5480     1   0.14316 258236.480000
   5474  10228     1   0.14316 258236.480000
   5477  10251     1   0.14316 258236.480000
   5481   5482     1   0.14647 272713.120000
   5481   5485     1   0.14647 272713.120000
   5481   5488     1   0.14647 272713.120000
   5482   5494     1   0.15375 251793.120000
   5485   5497     1   0.15375 251793.120000
   5488   5491     1   0.15375 251793.120000
   5491   5500     1   0.15375 251793.120000
   5494   5506     1   0.15375 251793.120000
   5497   5503     1   0.15375 251793.120000
   5500   5509     1   0.14316 258236.480000
   5503  10274     1   0.14316 258236.480000
   5506  10297     1   0.14316 258236.480000
   5510   5511     1   0.14647 272713.120000
   5510   5514     1   0.14647 272713.120000
   5510   5517     1   0.14647 272713.120000
   5511   5523     1   0.15375 251793.120000
   5514   5526     1   0.15375 251793.120000
   5517   5520     1   0.15375 251793.120000
   5520   5529     1   0.15375 251793.120000
   5523   5535     1   0.15375 251793.120000
   5526   5532     1   0.15375 251793.120000
   5529   5538     1   0.14316 258236.480000
   5532  10320     1   0.14316 258236.480000
   5535  10343     1   0.14316 258236.480000
   5539   5540     1   0.14647 272713.120000
   5539   5543     1   0.14647 272713.120000
   5539   5546     1   0.14647 272713.120000
   5540   5552     1   0.15375 251793.120000
   5543   5555     1   0.15375 251793.120000
   5546   5549     1   0.15375 251793.120000
   5549   5558     1   0.15375 251793.120000
   5552   5564     1   0.15375 251793.120000
   5555   5561     1   0.15375 251793.120000
   5558   5567     1   0.14316 258236.480000
   5561  10366     1   0.14316 258236.480000
   5564  10389     1   0.14316 258236.480000
   5568   5569     1   0.14647 272713.120000
   5568   5572     1   0.14647 272713.120000
   5568   5575     1   0.14647 272713.120000
   5569   5581     1   0.15375 251793.120000
   5572   5584     1   0.15375 251793.120000
   5575   5578     1   0.15375 251793.120000
   5578   5587     1   0.15375 251793.120000
   5581   5593     1   0.15375 251793.120000
   5584   5590     1   0.15375 251793.120000
   5587   5596     1   0.14316 258236.480000
   5590  10412     1   0.14316 258236.480000
   5593  10435     1   0.14316 258236.480000
   5597   5598     1   0.14647 272713.120000
   5597   5601     1   0.14647 272713.120000
   5597   5604     1   0.14647 272713.120000
   5598   5610     1   0.15375 251793.120000
   5601   5613     1   0.15375 251793.120000
   5604   5607     1   0.15375 251793.120000
   5607   5616     1   0.15375 251793.120000
   5610   5622     1   0.15375 251793.120000
   5613   5619     1   0.15375 251793.120000
   5616   5625     1   0.14316 258236.480000
   5619  10458     1   0.14316 258236.480000
   5622  10481     1   0.14316 258236.480000
   5626   5627     1   0.14647 272713.120000
   5626   5630     1   0.14647 272713.120000
   5626   5633     1   0.14647 272713.120000
   5627   5639     1   0.15375 251793.120000
   5630   5642     1   0.15375 251793.120000
   5633   5636     1   0.15375 251793.120000
   5636   5645     1   0.15375 251793.120000
   5639   5651     1   0.15375 251793.120000
   5642   5648     1   0.15375 251793.120000
   5645   5654     1   0.14316 258236.480000
   5648  10504     1   0.14316 258236.480000
   5651  10527     1   0.14316 258236.480000
   5655   5656     1   0.14647 272713.120000
   5655   5659     1   0.14647 272713.120000
   5655   5662     1   0.14647 272713.120000
   5656   5668     1   0.15375 251793.120000
   5659   5671     1   0.15375 251793.120000
   5662   5665     1   0.15375 251793.120000
   5665   5674     1   0.15375 251793.120000
   5668   5680     1   0.15375 251793.120000
   5671   5677     1   0.15375 251793.120000
   5674   5683     1   0.14316 258236.480000
   5677  10550     1   0.14316 258236.480000
   5680  10573     1   0.14316 258236.480000
   5684   5685     1   0.14647 272713.120000
   5684   5688     1   0.14647 272713.120000
   5684   5691     1   0.14647 272713.120000
   5685   5697     1   0.15375 251793.120000
   5688   5700     1   0.15375 251793.120000
   5691   5694     1   0.15375 251793.120000
   5694   5703     1   0.15375 251793.120000
   5697   5709     1   0.15375 251793.120000
   5700   5706     1   0.15375 251793.120000
   5703   5712     1   0.14316 258236.480000
   5706  10596     1   0.14316 258236.480000
   5709  10619     1   0.14316 258236.480000
   5713   5714     1   0.14647 272713.120000
   5713   5717     1   0.14647 272713.120000
   5713   5720     1   0.14647 272713.120000
   5714   5726     1   0.15375 251793.120000
   5717   5729     1   0.15375 251793.120000
   5720   5723     1   0.15375 251793.120000
   5723   5732     1   0.15375 251793.120000
   5726   5738     1   0.15375 251793.120000
   5729   5735     1   0.15375 251793.120000
   5732   5741     1   0.14316 258236.480000
   5735  10642     1   0.14316 258236.480000
   5738  10665     1   0.14316 258236.480000
   5742   5743     1   0.14647 272713.120000
   5742   5746     1   0.14647 272713.120000
   5742   5749     1   0.14647 272713.120000
   5743   5755     1   0.15375 251793.120000
   5746   5758     1   0.15375 251793.120000
   5749   5752     1   0.15375 251793.120000
   5752   5761     1   0.15375 251793.120000
   5755   5767     1   0.15375 251793.120000
   5758   5764     1   0.15375 251793.120000
   5761   5770     1   0.14316 258236.480000
   5764  10688     1   0.14316 258236.480000
   5767  10711     1   0.14316 258236.480000
   5771   5772     1   0.14647 272713.120000
   5771   5775     1   0.14647 272713.120000
   5771   5778     1   0.14647 272713.120000
   5772   5784     1   0.15375 251793.120000
   5775   5787     1   0.15375 251793.120000
   5778   5781     1   0.15375 251793.120000
   5781   5790     1   0.15375 251793.120000
   5784   5796     1   0.15375 251793.120000
   5787   5793     1   0.15375 251793.120000
   5790   5799     1   0.14316 258236.480000
   5793  10734     1   0.14316 258236.480000
   5796  10757     1   0.14316 258236.480000
   5800   5801     1   0.14647 272713.120000
   5800   5804     1   0.14647 272713.120000
   5800   5807     1   0.14647 272713.120000
   5801   5813     1   0.15375 251793.120000
   5804   5816     1   0.15375 251793.120000
   5807   5810     1   0.15375 251793.120000
   5810   5819     1   0.15375 251793.120000
   5813   5825     1   0.15375 251793.120000
   5816   5822     1   0.15375 251793.120000
   5819   5828     1   0.14316 258236.480000
   5822  10780     1   0.14316 258236.480000
   5825  10803     1   0.14316 258236.480000
   5829   5830     1   0.14647 272713.120000
   5829   5833     1   0.14647 272713.120000
   5829   5836     1   0.14647 272713.120000
   5830   5842     1   0.15375 251793.120000
   5833   5845     1   0.15375 251793.120000
   5836   5839     1   0.15375 251793.120000
   5839   5848     1   0.15375 251793.120000
   5842   5854     1   0.15375 251793.120000
   5845   5851     1   0.15375 251793.120000
   5848   5857     1   0.14316 258236.480000
   5851  10826     1   0.14316 258236.480000
   5854  10849     1   0.14316 258236.480000
   5858   5859     1   0.14647 272713.120000
   5858   5862     1   0.14647 272713.120000
   5858   5865     1   0.14647 272713.120000
   5859   5871     1   0.15375 251793.120000
   5862   5874     1   0.15375 251793.120000
   5865   5868     1   0.15375 251793.120000
   5868   5877     1   0.15375 251793.120000
   5871   5883     1   0.15375 251793.120000
   5874   5880     1   0.15375 251793.120000
   5877   5886     1   0.14316 258236.480000
   5880  10872     1   0.14316 258236.480000
   5883  10895     1   0.14316 258236.480000
   5887   5888     1   0.14647 272713.120000
   5887   5891     1   0.14647 272713.120000
   5887   5894     1   0.14647 272713.120000
   5888   5900     1   0.15375 251793.120000
   5891   5903     1   0.15375 251793.120000
   5894   5897     1   0.15375 251793.120000
   5897   5906     1   0.15375 251793.120000
   5900   5912     1   0.15375 251793.120000
   5903   5909     1   0.15375 251793.120000
   5906   5915     1   0.14316 258236.480000
   5909  10918     1   0.14316 258236.480000
   5912  10941     1   0.14316 258236.480000
   5916   5917     1   0.14647 272713.120000
   5916   5920     1   0.14647 272713.120000
   5916   5923     1   0.14647 272713.120000
   5917   5929     1   0.15375 251793.120000
   5920   5932     1   0.15375 251793.120000
   5923   5926     1   0.15375 251793.120000
   5926   5935     1   0.15375 251793.120000
   5929   5941     1   0.15375 251793.120000
   5932   5938     1   0.15375 251793.120000
   5935   5944     1   0.14316 258236.480000
   5938  10964     1   0.14316 258236.480000
   5941  10987     1   0.14316 258236.480000
   5945   5946     1   0.14647 272713.120000
   5945   5949     1   0.14647 272713.120000
   5945   5952     1   0.14647 272713.120000
   5946   5958     1   0.15375 251793.120000
   5949   5961     1   0.15375 251793.120000
   5952   5955     1   0.15375 251793.120000
   5955   5964     1   0.15375 251793.120000
   5958   5970     1   0.15375 251793.120000
   5961   5967     1   0.15375 251793.120000
   5964   5973     1   0.14316 258236.480000
   5967  11010     1   0.14316 258236.480000
   5970  11033     1   0.14316 258236.480000
   5974   5975     1   0.14647 272713.120000
   5974   5978     1   0.14647 272713.120000
   5974   5981     1   0.14647 272713.120000
   5975   5987     1   0.15375 251793.120000
   5978   5990     1   0.15375 251793.120000
   5981   5984     1   0.15375 251793.120000
   5984   5993     1   0.15375 251793.120000
   5987   5999     1   0.15375 251793.120000
   5990   5996     1   0.15375 251793.120000
   5993   6002     1   0.14316 258236.480000
   5996  11056     1   0.14316 258236.480000
   5999  11079     1   0.14316 258236.480000
   6003   6004     1   0.14647 272713.120000
   6003   6007     1   0.14647 272713.120000
   6003   6010     1   0.14647 272713.120000
   6004   6016     1   0.15375 251793.120000
   6007   6019     1   0.15375 251793.120000
   6010   6013     1   0.15375 251793.120000
   6013   6022     1   0.15375 251793.120000
   6016   6028     1   0.15375 251793.120000
   6019   6025     1   0.15375 251793.120000
   6022   6031     1   0.14316 258236.480000
   6025  11102     1   0.14316 258236.480000
   6028  11125     1   0.14316 258236.480000
   6032   6033     1   0.14647 272713.120000
   6032   6036     1   0.14647 272713.120000
   6032   6039     1   0.14647 272713.120000
   6033   6045     1   0.15375 251793.120000
   6036   6048     1   0.15375 251793.120000
   6039   6042     1   0.15375 251793.120000
   6042   6051     1   0.15375 251793.120000
   6045   6057     1   0.15375 251793.120000
   6048   6054     1   0.15375 251793.120000
   6051   6060     1   0.14316 258236.480000
   6054  11148     1   0.14316 258236.480000
   6057  11171     1   0.14316 258236.480000
   6061   6062     1   0.14647 272713.120000
   6061   6065     1   0.14647 272713.120000
   6061   6068     1   0.14647 272713.120000
   6062   6074     1   0.15375 251793.120000
   6065   6077     1   0.15375 251793.120000
   6068   6071     1   0.15375 251793.120000
   6071   6080     1   0.15375 251793.120000
   6074   6086     1   0.15375 251793.120000
   6077   6083     1   0.15375 251793.120000
   6080   6089     1   0.14316 258236.480000
   6083  11194     1   0.14316 258236.480000
   6086  11217     1   0.14316 258236.480000
   6090   6091     1   0.14647 272713.120000
   6090   6094     1   0.14647 272713.120000
   6090   6097     1   0.14647 272713.120000
   6091   6103     1   0.15375 251793.120000
   6094   6106     1   0.15375 251793.120000
   6097   6100     1   0.15375 251793.120000
   6100   6109     1   0.15375 251793.120000
   6103   6115     1   0.15375 251793.120000
   6106   6112     1   0.15375 251793.120000
   6109   6118     1   0.14316 258236.480000
   6112  11240     1   0.14316 258236.480000
   6115  11263     1   0.14316 258236.480000
   6119   6120     1   0.14647 272713.120000
   6119   6123     1   0.14647 272713.120000
   6119   6126     1   0.14647 272713.120000
   6120   6132     1   0.15375 251793.120000
   6123   6135     1   0.15375 251793.120000
   6126   6129     1   0.15375 251793.120000
   6129   6138     1   0.15375 251793.120000
   6132   6144     1   0.15375 251793.120000
   6135   6141     1   0.15375 251793.120000
   6138   6147     1   0.14316 258236.480000
   6141  11286     1   0.14316 258236.480000
   6144  11309     1   0.14316 258236.480000
   6148   6149     1   0.14647 272713.120000
   6148   6152     1   0.14647 272713.120000
   6148   6155     1   0.14647 272713.120000
   6149   6161     1   0.15375 251793.120000
   6152   6164     1   0.15375 251793.120000
   6155   6158     1   0.15375 251793.120000
   6158   6167     1   0.15375 251793.120000
   6161   6173     1   0.15375 251793.120000
   6164   6170     1   0.15375 251793.120000
   6167   6176     1   0.14316 258236.480000
   6170  11332     1   0.14316 258236.480000
   6173  11355     1   0.14316 258236.480000
   6177   6178     1   0.14647 272713.120000
   6177   6181     1   0.14647 272713.120000
   6177   6184     1   0.14647 272713.120000
   6178   6190     1   0.15375 251793.120000
   6181   6193     1   0.15375 251793.120000
   6184   6187     1   0.15375 251793.120000
   6187   6196     1   0.15375 251793.120000
   6190   6202     1   0.15375 251793.120000
   6193   6199     1   0.15375 251793.120000
   6196   6205     1   0.14316 258236.480000
   6199  11378     1   0.14316 258236.480000
   6202  11401     1   0.14316 258236.480000
   6206   6207     1   0.14647 272713.120000
   6206   6210     1   0.14647 272713.120000
   6206   6213     1   0.14647 272713.120000
   6207   6219     1   0.15375 251793.120000
   6210   6222     1   0.15375 251793.120000
   6213   6216     1   0.15375 251793.120000
   6216   6225     1   0.15375 251793.120000
   6219   6231     1   0.15375 251793.120000
   6222   6228     1   0.15375 251793.120000
   6225   6234     1   0.14316 258236.480000
   6228  11424     1   0.14316 258236.480000
   6231  11447     1   0.14316 258236.480000
   6235   6236     1   0.14647 272713.120000
   6235   6239     1   0.14647 272713.120000
   6235   6242     1   0.14647 272713.120000
   6236   6248     1   0.15375 251793.120000
   6239   6251     1   0.15375 251793.120000
   6242   6245     1   0.15375 251793.120000
   6245   6254     1   0.15375 251793.120000
   6248   6260     1   0.15375 251793.120000
   6251   6257     1   0.15375 251793.120000
   6254   6263     1   0.14316 258236.480000
   6257  11470     1   0.14316 258236.480000
   6260  11493     1   0.14316 258236.480000
   6264   6265     1   0.14647 272713.120000
   6264   6268     1   0.14647 272713.120000
   6264   6271     1   0.14647 272713.120000
   6265   6277     1   0.15375 251793.120000
   6268   6280     1   0.15375 251793.120000
   6271   6274     1   0.15375 251793.120000
   6274   6283     1   0.15375 251793.120000
   6277   6289     1   0.15375 251793.120000
   6280   6286     1   0.15375 251793.120000
   6283   6292     1   0.14316 258236.480000
   6286  11516     1   0.14316 258236.480000
   6289  11539     1   0.14316 258236.480000
   6293   6294     1   0.14647 272713.120000
   6293   6297     1   0.14647 272713.120000
   6293   6300     1   0.14647 272713.120000
   6294   6306     1   0.15375 251793.120000
   6297   6309     1   0.15375 251793.120000
   6300   6303     1   0.15375 251793.120000
   6303   6312     1   0.15375 251793.120000
   6306   6318     1   0.15375 251793.120000
   6309   6315     1   0.15375 251793.120000
   6312   6321     1   0.14316 258236.480000
   6315  11562     1   0.14316 258236.480000
   6318  11585     1   0.14316 258236.480000
   6322   6323     1   0.14647 272713.120000
   6322   6326     1   0.14647 272713.120000
   6322   6329     1   0.14647 272713.120000
   6323   6335     1   0.15375 251793.120000
   6326   6338     1   0.15375 251793.120000
   6329   6332     1   0.15375 251793.120000
   6332   6341     1   0.15375 251793.120000
   6335   6347     1   0.15375 251793.120000
   6338   6344     1   0.15375 251793.120000
   6341   6350     1   0.14316 258236.480000
   6344  11608     1   0.14316 258236.480000
   6347  11631     1   0.14316 258236.480000
   6351   6352     1   0.14647 272713.120000
   6351   6355     1   0.14647 272713.120000
   6351   6358     1   0.14647 272713.120000
   6352   6364     1   0.15375 251793.120000
   6355   6367     1   0.15375 251793.120000
   6358   6361     1   0.15375 251793.120000
   6361   6370     1   0.15375 251793.120000
   6364   6376     1   0.15375 251793.120000
   6367   6373     1   0.15375 251793.120000
   6370   6379     1   0.14316 258236.480000
   6373  11654     1   0.14316 258236.480000
   6376  11677     1   0.14316 258236.480000
   6380   6381     1   0.14647 272713.120000
   6380   6384     1   0.14647 272713.120000
   6380   6387     1   0.14647 272713.120000
   6381   6393     1   0.15375 251793.120000
   6384   6396     1   0.15375 251793.120000
   6387   6390     1   0.15375 251793.120000
   6390   6399     1   0.15375 251793.120000
   6393   6405     1   0.15375 251793.120000
   6396   6402     1   0.15375 251793.120000
   6399   6408     1   0.14316 258236.480000
   6402  11700     1   0.14316 258236.480000
   6405  11723     1   0.14316 258236.480000
   6409   6410     1   0.14647 272713.120000
   6409   6413     1   0.14647 272713.120000
   6409   6416     1   0.14647 272713.120000
   6410   6422     1   0.15375 251793.120000
   6413   6425     1   0.15375 251793.120000
   6416   6419     1   0.15375 251793.120000
   6419   6428     1   0.15375 251793.120000
   6422   6434     1   0.15375 251793.120000
   6425   6431     1   0.15375 251793.120000
   6428   6437     1   0.14316 258236.480000
   6431  11746     1   0.14316 258236.480000
   6434  11769     1   0.14316 258236.480000
   6438   6439     1   0.14647 272713.120000
   6438   6442     1   0.14647 272713.120000
   6438   6445     1   0.14647 272713.120000
   6439   6451     1   0.15375 251793.120000
   6442   6454     1   0.15375 251793.120000
   6445   6448     1   0.15375 251793.120000
   6448   6457     1   0.15375 251793.120000
   6451   6463     1   0.15375 251793.120000
   6454   6460     1   0.15375 251793.120000
   6457   6466     1   0.14316 258236.480000
   6460  11792     1   0.14316 258236.480000
   6463  11815     1   0.14316 258236.480000
   6467   6468     1   0.14647 272713.120000
   6467   6471     1   0.14647 272713.120000
   6467   6474     1   0.14647 272713.120000
   6468   6480     1   0.15375 251793.120000
   6471   6483     1   0.15375 251793.120000
   6474   6477     1   0.15375 251793.120000
   6477   6486     1   0.15375 251793.120000
   6480   6492     1   0.15375 251793.120000
   6483   6489     1   0.15375 251793.120000
   6486   6495     1   0.14316 258236.480000
   6489  11838     1   0.14316 258236.480000
   6492  11861     1   0.14316 258236.480000
   6496   6497     1   0.14647 272713.120000
   6496   6500     1   0.14647 272713.120000
   6496   6503     1   0.14647 272713.120000
   6497   6509     1   0.15375 251793.120000
   6500   6512     1   0.15375 251793.120000
   6503   6506     1   0.15375 251793.120000
   6506   6515     1   0.15375 251793.120000
   6509   6521     1   0.15375 251793.120000
   6512   6518     1   0.15375 251793.120000
   6515   6524     1   0.14316 258236.480000
   6518  11884     1   0.14316 258236.480000
   6521  11907     1   0.14316 258236.480000
   6525   6526     1   0.14647 272713.120000
   6525   6529     1   0.14647 272713.120000
   6525   6532     1   0.14647 272713.120000
   6526   6538     1   0.15375 251793.120000
   6529   6541     1   0.15375 251793.120000
   6532   6535     1   0.15375 251793.120000
   6535   6544     1   0.15375 251793.120000
   6538   6550     1   0.15375 251793.120000
   6541   6547     1   0.15375 251793.120000
   6544   6553     1   0.14316 258236.480000
   6547  11930     1   0.14316 258236.480000
   6550  11953     1   0.14316 258236.480000
   6554   6555     1   0.14647 272713.120000
   6554   6558     1   0.14647 272713.120000
   6554   6561     1   0.14647 272713.120000
   6555   6567     1   0.15375 251793.120000
   6558   6570     1   0.15375 251793.120000
   6561   6564     1   0.15375 251793.120000
   6564   6573     1   0.15375 251793.120000
   6567   6579     1   0.15375 251793.120000
   6570   6576     1   0.15375 251793.120000
   6573   6582     1   0.14316 258236.480000
   6576  11976     1   0.14316 258236.480000
   6579  11999     1   0.14316 258236.480000
   6583   6584     1   0.14647 272713.120000
   6583   6587     1   0.14647 272713.120000
   6583   6590     1   0.14647 272713.120000
   6584   6596     1   0.15375 251793.120000
   6587   6599     1   0.15375 251793.120000
   6590   6593     1   0.15375 251793.120000
   6593   6602     1   0.15375 251793.120000
   6596   6608     1   0.15375 251793.120000
   6599   6605     1   0.15375 251793.120000
   6602   6611     1   0.14316 258236.480000
   6605  12022     1   0.14316 258236.480000
   6608  12045     1   0.14316 258236.480000
   6612   6613     1   0.14647 272713.120000
   6612   6616     1   0.14647 272713.120000
   6612   6619     1   0.14647 272713.120000
   6613   6625     1   0.15375 251793.120000
   6616   6628     1   0.15375 251793.120000
   6619   6622     1   0.15375 251793.120000
   6622   6631     1   0.15375 251793.120000
   6625   6637     1   0.15375 251793.120000
   6628   6634     1   0.15375 251793.120000
   6631   6640     1   0.14316 258236.480000
   6634  12068     1   0.14316 258236.480000
   6637  12091     1   0.14316 258236.480000
   6641   6642     1   0.14647 272713.120000
   6641   6645     1   0.14647 272713.120000
   6641   6648     1   0.14647 272713.120000
   6642   6654     1   0.15375 251793.120000
   6645   6657     1   0.15375 251793.120000
   6648   6651     1   0.15375 251793.120000
   6651   6660     1   0.15375 251793.120000
   6654   6666     1   0.15375 251793.120000
   6657   6663     1   0.15375 251793.120000
   6660   6669     1   0.14316 258236.480000
   6663  12114     1   0.14316 258236.480000
   6666  12137     1   0.14316 258236.480000
   6670   6671     1   0.14647 272713.120000
   6670   6674     1   0.14647 272713.120000
   6670   6677     1   0.14647 272713.120000
   6671   6683     1   0.15375 251793.120000
   6674   6686     1   0.15375 251793.120000
   6677   6680     1   0.15375 251793.120000
   6680   6689     1   0.15375 251793.120000
   6683   6695     1   0.15375 251793.120000
   6686   6692     1   0.15375 251793.120000
   6689   6698     1   0.14316 258236.480000
   6692  12160     1   0.14316 258236.480000
   6695  12183     1   0.14316 258236.480000
   6699   6700     1   0.14647 272713.120000
   6699   6703     1   0.14647 272713.120000
   6699   6706     1   0.14647 272713.120000
   6700   6712     1   0.15375 251793.120000
   6703   6715     1   0.15375 251793.120000
   6706   6709     1   0.15375 251793.120000
   6709   6718     1   0.15375 251793.120000
   6712   6724     1   0.15375 251793.120000
   6715   6721     1   0.15375 251793.120000
   6718   6727     1   0.14316 258236.480000
   6721  12206     1   0.14316 258236.480000
   6724  12229     1   0.14316 258236.480000
   6728   6729     1   0.14647 272713.120000
   6728   6732     1   0.14647 272713.120000
   6728   6735     1   0.14647 272713.120000
   6729   6741     1   0.15375 251793.120000
   6732   6744     1   0.15375 251793.120000
   6735   6738     1   0.15375 251793.120000
   6738   6747     1   0.15375 251793.120000
   6741   6753     1   0.15375 251793.120000
   6744   6750     1   0.15375 251793.120000
   6747   6756     1   0.14316 258236.480000
   6750  12252     1   0.14316 258236.480000
   6753  12275     1   0.14316 258236.480000
   6757   6758     1   0.14647 272713.120000
   6757   6761     1   0.14647 272713.120000
   6757   6764     1   0.14647 272713.120000
   6758   6770     1   0.15375 251793.120000
   6761   6773     1   0.15375 251793.120000
   6764   6767     1   0.15375 251793.120000
   6767   6776     1   0.15375 251793.120000
   6770   6782     1   0.15375 251793.120000
   6773   6779     1   0.15375 251793.120000
   6776   6785     1   0.14316 258236.480000
   6779  12298     1   0.14316 258236.480000
   6782  12321     1   0.14316 258236.480000
   6786   6787     1   0.14647 272713.120000
   6786   6790     1   0.14647 272713.120000
   6786   6793     1   0.14647 272713.120000
   6787   6799     1   0.15375 251793.120000
   6790   6802     1   0.15375 251793.120000
   6793   6796     1   0.15375 251793.120000
   6796   6805     1   0.15375 251793.120000
   6799   6811     1   0.15375 251793.120000
   6802   6808     1   0.15375 251793.120000
   6805   6814     1   0.14316 258236.480000
   6808  12344     1   0.14316 258236.480000
   6811  12367     1   0.14316 258236.480000
   6815   6816     1   0.14647 272713.120000
   6815   6819     1   0.14647 272713.120000
   6815   6822     1   0.14647 272713.120000
   6816   6828     1   0.15375 251793.120000
   6819   6831     1   0.15375 251793.120000
   6822   6825     1   0.15375 251793.120000
   6825   6834     1   0.15375 251793.120000
   6828   6840     1   0.15375 251793.120000
   6831   6837     1   0.15375 251793.120000
   6834   6843     1   0.14316 258236.480000
   6837  12390     1   0.14316 258236.480000
   6840  12413     1   0.14316 258236.480000
   6844   6845     1   0.14647 272713.120000
   6844   6848     1   0.14647 272713.120000
   6844   6851     1   0.14647 272713.120000
   6845   6857     1   0.15375 251793.120000
   6848   6860     1   0.15375 251793.120000
   6851   6854     1   0.15375 251793.120000
   6854   6863     1   0.15375 251793.120000
   6857   6869     1   0.15375 251793.120000
   6860   6866     1   0.15375 251793.120000
   6863   6872     1   0.14316 258236.480000
   6866  12436     1   0.14316 258236.480000
   6869  12459     1   0.14316 258236.480000
   6873   6874     1   0.14647 272713.120000
   6873   6877     1   0.14647 272713.120000
   6873   6880     1   0.14647 272713.120000
   6874   6886     1   0.15375 251793.120000
   6877   6889     1   0.15375 251793.120000
   6880   6883     1   0.15375 251793.120000
   6883   6892     1   0.15375 251793.120000
   6886   6898     1   0.15375 251793.120000
   6889   6895     1   0.15375 251793.120000
   6892   6901     1   0.14316 258236.480000
   6895  12482     1   0.14316 258236.480000
   6898  12505     1   0.14316 258236.480000
   6902   6903     1   0.14647 272713.120000
   6902   6906     1   0.14647 272713.120000
   6902   6909     1   0.14647 272713.120000
   6903   6915     1   0.15375 251793.120000
   6906   6918     1   0.15375 251793.120000
   6909   6912     1   0.15375 251793.120000
   6912   6921     1   0.15375 251793.120000
   6915   6927     1   0.15375 251793.120000
   6918   6924     1   0.15375 251793.120000
   6921   6930     1   0.14316 258236.480000
   6924  12528     1   0.14316 258236.480000
   6927  12551     1   0.14316 258236.480000
   6931   6932     1   0.14647 272713.120000
   6931   6935     1   0.14647 272713.120000
   6931   6938     1   0.14647 272713.120000
   6932   6944     1   0.15375 251793.120000
   6935   6947     1   0.15375 251793.120000
   6938   6941     1   0.15375 251793.120000
   6941   6950     1   0.15375 251793.120000
   6944   6956     1   0.15375 251793.120000
   6947   6953     1   0.15375 251793.120000
   6950   6959     1   0.14316 258236.480000
   6953  12574     1   0.14316 258236.480000
   6956  12597     1   0.14316 258236.480000
   6960   6961     1   0.14647 272713.120000
   6960   6964     1   0.14647 272713.120000
   6960   6967     1   0.14647 272713.120000
   6961   6973     1   0.15375 251793.120000
   6964   6976     1   0.15375 251793.120000
   6967   6970     1   0.15375 251793.120000
   6970   6979     1   0.15375 251793.120000
   6973   6985     1   0.15375 251793.120000
   6976   6982     1   0.15375 251793.120000
   6979   6988     1   0.14316 258236.480000
   6982  12620     1   0.14316 258236.480000
   6985  12643     1   0.14316 258236.480000
   6989   6990     1   0.14647 272713.120000
   6989   6993     1   0.14647 272713.120000
   6989   6996     1   0.14647 272713.120000
   6990   7002     1   0.15375 251793.120000
   6993   7005     1   0.15375 251793.120000
   6996   6999     1   0.15375 251793.120000
   6999   7008     1   0.15375 251793.120000
   7002   7014     1   0.15375 251793.120000
   7005   7011     1   0.15375 251793.120000
   7008   7017     1   0.14316 258236.480000
   7011  12666     1   0.14316 258236.480000
   7014  12689     1   0.14316 258236.480000
   7018   7019     1   0.14647 272713.120000
   7018   7022     1   0.14647 272713.120000
   7018   7025     1   0.14647 272713.120000
   7019   7031     1   0.15375 251793.120000
   7022   7034     1   0.15375 251793.120000
   7025   7028     1   0.15375 251793.120000
   7028   7037     1   0.15375 251793.120000
   7031   7043     1   0.15375 251793.120000
   7034   7040     1   0.15375 251793.120000
   7037   7046     1   0.14316 258236.480000
   7040  12712     1   0.14316 258236.480000
   7043  12735     1   0.14316 258236.480000
   7047   7048     1   0.14647 272713.120000
   7047   7051     1   0.14647 272713.120000
   7047   7054     1   0.14647 272713.120000
   7048   7060     1   0.15375 251793.120000
   7051   7063     1   0.15375 251793.120000
   7054   7057     1   0.15375 251793.120000
   7057   7066     1   0.15375 251793.120000
   7060   7072     1   0.15375 251793.120000
   7063   7069     1   0.15375 251793.120000
   7066   7075     1   0.14316 258236.480000
   7069  12758     1   0.14316 258236.480000
   7072  12781     1   0.14316 258236.480000
   7076   7077     1   0.14647 272713.120000
   7076   7080     1   0.14647 272713.120000
   7076   7083     1   0.14647 272713.120000
   7077   7089     1   0.15375 251793.120000
   7080   7092     1   0.15375 251793.120000
   7083   7086     1   0.15375 251793.120000
   7086   7095     1   0.15375 251793.120000
   7089   7101     1   0.15375 251793.120000
   7092   7098     1   0.15375 251793.120000
   7095   7104     1   0.14316 258236.480000
   7098  12804     1   0.14316 258236.480000
   7101  12827     1   0.14316 258236.480000
   7105   7106     1   0.14647 272713.120000
   7105   7109     1   0.14647 272713.120000
   7105   7112     1   0.14647 272713.120000
   7106   7118     1   0.15375 251793.120000
   7109   7121     1   0.15375 251793.120000
   7112   7115     1   0.15375 251793.120000
   7115   7124     1   0.15375 251793.120000
   7118   7130     1   0.15375 251793.120000
   7121   7127     1   0.15375 251793.120000
   7124   7133     1   0.14316 258236.480000
   7127  12850     1   0.14316 258236.480000
   7130  12873     1   0.14316 258236.480000
   7134   7135     1   0.14647 272713.120000
   7134   7138     1   0.14647 272713.120000
   7134   7141     1   0.14647 272713.120000
   7135   7147     1   0.15375 251793.120000
   7138   7150     1   0.15375 251793.120000
   7141   7144     1   0.15375 251793.120000
   7144   7153     1   0.15375 251793.120000
   7147   7159     1   0.15375 251793.120000
   7150   7156     1   0.15375 251793.120000
   7153   7162     1   0.14316 258236.480000
   7156  12896     1   0.14316 258236.480000
   7159  12919     1   0.14316 258236.480000
   7163   7164     1   0.14647 272713.120000
   7163   7167     1   0.14647 272713.120000
   7163   7170     1   0.14647 272713.120000
   7164   7176     1   0.15375 251793.120000
   7167   7179     1   0.15375 251793.120000
   7170   7173     1   0.15375 251793.120000
   7173   7182     1   0.15375 251793.120000
   7176   7188     1   0.15375 251793.120000
   7179   7185     1   0.15375 251793.120000
   7182   7191     1   0.14316 258236.480000
   7185  12942     1   0.14316 258236.480000
   7188  12965     1   0.14316 258236.480000
   7192   7193     1   0.14647 272713.120000
   7192   7196     1   0.14647 272713.120000
   7192   7199     1   0.14647 272713.120000
   7193   7205     1   0.15375 251793.120000
   7196   7208     1   0.15375 251793.120000
   7199   7202     1   0.15375 251793.120000
   7202   7211     1   0.15375 251793.120000
   7205   7217     1   0.15375 251793.120000
   7208   7214     1   0.15375 251793.120000
   7211   7220     1   0.14316 258236.480000
   7214  12988     1   0.14316 258236.480000
   7217  13011     1   0.14316 258236.480000
   7221   7222     1   0.14647 272713.120000
   7221   7225     1   0.14647 272713.120000
   7221   7228     1   0.14647 272713.120000
   7222   7234     1   0.15375 251793.120000
   7225   7237     1   0.15375 251793.120000
   7228   7231     1   0.15375 251793.120000
   7231   7240     1   0.15375 251793.120000
   7234   7246     1   0.15375 251793.120000
   7237   7243     1   0.15375 251793.120000
   7240   7249     1   0.14316 258236.480000
   7243  13034     1   0.14316 258236.480000
   7246  13057     1   0.14316 258236.480000
   7250   7251     1   0.14647 272713.120000
   7250   7254     1   0.14647 272713.120000
   7250   7257     1   0.14647 272713.120000
   7251   7263     1   0.15375 251793.120000
   7254   7266     1   0.15375 251793.120000
   7257   7260     1   0.15375 251793.120000
   7260   7269     1   0.15375 251793.120000
   7263   7275     1   0.15375 251793.120000
   7266   7272     1   0.15375 251793.120000
   7269   7278     1   0.14316 258236.480000
   7272  13080     1   0.14316 258236.480000
   7275  13103     1   0.14316 258236.480000
   7279   7280     1   0.14647 272713.120000
   7279   7283     1   0.14647 272713.120000
   7279   7286     1   0.14647 272713.120000
   7280   7292     1   0.15375 251793.120000
   7283   7295     1   0.15375 251793.120000
   7286   7289     1   0.15375 251793.120000
   7289   7298     1   0.15375 251793.120000
   7292   7304     1   0.15375 251793.120000
   7295   7301     1   0.15375 251793.120000
   7298   7307     1   0.14316 258236.480000
   7301  13126     1   0.14316 258236.480000
   7304  13149     1   0.14316 258236.480000
   7308   7309     1   0.14647 272713.120000
   7308   7312     1   0.14647 272713.120000
   7308   7315     1   0.14647 272713.120000
   7309   7321     1   0.15375 251793.120000
   7312   7324     1   0.15375 251793.120000
   7315   7318     1   0.15375 251793.120000
   7318   7327     1   0.15375 251793.120000
   7321   7333     1   0.15375 251793.120000
   7324   7330     1   0.15375 251793.120000
   7327   7336     1   0.14316 258236.480000
   7330  13172     1   0.14316 258236.480000
   7333  13195     1   0.14316 258236.480000
   7337   7338     1   0.14647 272713.120000
   7337   7341     1   0.14647 272713.120000
   7337   7344     1   0.14647 272713.120000
   7338   7350     1   0.15375 251793.120000
   7341   7353     1   0.15375 251793.120000
   7344   7347     1   0.15375 251793.120000
   7347   7356     1   0.15375 251793.120000
   7350   7362     1   0.15375 251793.120000
   7353   7359     1   0.15375 251793.120000
   7356   7365     1   0.14316 258236.480000
   7359  13218     1   0.14316 258236.480000
   7362  13241     1   0.14316 258236.480000
   7366   7367     1   0.15375 251793.120000
   7366   7380     1   0.15375 251793.120000
   7366   7388     1   0.14316 258236.480000
   7367   7370     1   0.15375 251793.120000
   7367   7379     1   0.14233 265014.560000
   7370   7371     1   0.15375 251793.120000
   7370   7378     1   0.14233 265014.560000
   7371   7372     1   0.15375 251793.120000
   7371   7377     1   0.14233 265014.560000
   7372   7376     1   0.14316 258236.480000
   7372   7388     1   0.14316 258236.480000
   7380   7386     1   0.14233 265014.560000
   7389   7390     1   0.15375 251793.120000
   7389   7403     1   0.15375 251793.120000
   7389   7411     1   0.14316 258236.480000
   7390   7393     1   0.15375 251793.120000
   7390   7402     1   0.14233 265014.560000
   7393   7394     1   0.15375 251793.120000
   7393   7401     1   0.14233 265014.560000
   7394   7395     1   0.15375 251793.120000
   7394   7400     1   0.14233 265014.560000
   7395   7399     1   0.14316 258236.480000
   7395   7411     1   0.14316 258236.480000
   7403   7409     1   0.14233 265014.560000
   7412   7413     1   0.15375 251793.120000
   7412   7426     1   0.15375 251793.120000
   7412   7434     1   0.14316 258236.480000
   7413   7416     1   0.15375 251793.120000
   7413   7425     1   0.14233 265014.560000
   7416   7417     1   0.15375 251793.120000
   7416   7424     1   0.14233 265014.560000
   7417   7418     1   0.15375 251793.120000
   7417   7423     1   0.14233 265014.560000
   7418   7422     1   0.14316 258236.480000
   7418   7434     1   0.14316 258236.480000
   7426   7432     1   0.14233 265014.560000
   7435   7436     1   0.15375 251793.120000
   7435   7449     1   0.15375 251793.120000
   7435   7457     1   0.14316 258236.480000
   7436   7439     1   0.15375 251793.120000
   7436   7448     1   0.14233 265014.560000
   7439   7440     1   0.15375 251793.120000
   7439   7447     1   0.14233 265014.560000
   7440   7441     1   0.15375 251793.120000
   7440   7446     1   0.14233 265014.560000
   7441   7445     1   0.14316 258236.480000
   7441   7457     1   0.14316 258236.480000
   7449   7455     1   0.14233 265014.560000
   7458   7459     1   0.15375 251793.120000
   7458   7472     1   0.15375 251793.120000
   7458   7480     1   0.14316 258236.480000
   7459   7462     1   0.15375 251793.120000
   7459   7471     1   0.14233 265014.560000
   7462   7463     1   0.15375 251793.120000
   7462   7470     1   0.14233 265014.560000
   7463   7464     1   0.15375 251793.120000
   7463   7469     1   0.14233 265014.560000
   7464   7468     1   0.14316 258236.480000
   7464   7480     1   0.14316 258236.480000
   7472   7478     1   0.14233 265014.560000
   7481   7482     1   0.15375 251793.120000
   7481   7495     1   0.15375 251793.120000
   7481   7503     1   0.14316 258236.480000
   7482   7485     1   0.15375 251793.120000
   7482   7494     1   0.14233 265014.560000
   7485   7486     1   0.15375 251793.120000
   7485   7493     1   0.14233 265014.560000
   7486   7487     1   0.15375 251793.120000
   7486   7492     1   0.14233 265014.560000
   7487   7491     1   0.14316 258236.480000
   7487   7503     1   0.14316 258236.480000
   7495   7501     1   0.14233 265014.560000
   7504   7505     1   0.15375 251793.120000
   7504   7518     1   0.15375 251793.120000
   7504   7526     1   0.14316 258236.480000
   7505   7508     1   0.15375 251793.120000
   7505   7517     1   0.14233 265014.560000
   7508   7509     1   0.15375 251793.120000
   7508   7516     1   0.14233 265014.560000
   7509   7510     1   0.15375 251793.120000
   7509   7515     1   0.14233 265014.560000
   7510   7514     1   0.14316 258236.480000
   7510   7526     1   0.14316 258236.480000
   7518   7524     1   0.14233 265014.560000
   7527   7528     1   0.15375 251793.120000
   7527   7541     1   0.15375 251793.120000
   7527   7549     1   0.14316 258236.480000
   7528   7531     1   0.15375 251793.120000
   7528   7540     1   0.14233 265014.560000
   7531   7532     1   0.15375 251793.120000
   7531   7539     1   0.14233 265014.560000
   7532   7533     1   0.15375 251793.120000
   7532   7538     1   0.14233 265014.560000
   7533   7537     1   0.14316 258236.480000
   7533   7549     1   0.14316 258236.480000
   7541   7547     1   0.14233 265014.560000
   7550   7551     1   0.15375 251793.120000
   7550   7564     1   0.15375 251793.120000
   7550   7572     1   0.14316 258236.480000
   7551   7554     1   0.15375 251793.120000
   7551   7563     1   0.14233 265014.560000
   7554   7555     1   0.15375 251793.120000
   7554   7562     1   0.14233 265014.560000
   7555   7556     1   0.15375 251793.120000
   7555   7561     1   0.14233 265014.560000
   7556   7560     1   0.14316 258236.480000
   7556   7572     1   0.14316 258236.480000
   7564   7570     1   0.14233 265014.560000
   7573   7574     1   0.15375 251793.120000
   7573   7587     1   0.15375 251793.120000
   7573   7595     1   0.14316 258236.480000
   7574   7577     1   0.15375 251793.120000
   7574   7586     1   0.14233 265014.560000
   7577   7578     1   0.15375 251793.120000
   7577   7585     1   0.14233 265014.560000
   7578   7579     1   0.15375 251793.120000
   7578   7584     1   0.14233 265014.560000
   7579   7583     1   0.14316 258236.480000
   7579   7595     1   0.14316 258236.480000
   7587   7593     1   0.14233 265014.560000
   7596   7597     1   0.15375 251793.120000
   7596   7610     1   0.15375 251793.120000
   7596   7618     1   0.14316 258236.480000
   7597   7600     1   0.15375 251793.120000
   7597   7609     1   0.14233 265014.560000
   7600   7601     1   0.15375 251793.120000
   7600   7608     1   0.14233 265014.560000
   7601   7602     1   0.15375 251793.120000
   7601   7607     1   0.14233 265014.560000
   7602   7606     1   0.14316 258236.480000
   7602   7618     1   0.14316 258236.480000
   7610   7616     1   0.14233 265014.560000
   7619   7620     1   0.15375 251793.120000
   7619   7633     1   0.15375 251793.120000
   7619   7641     1   0.14316 258236.480000
   7620   7623     1   0.15375 251793.120000
   7620   7632     1   0.14233 265014.560000
   7623   7624     1   0.15375 251793.120000
   7623   7631     1   0.14233 265014.560000
   7624   7625     1   0.15375 251793.120000
   7624   7630     1   0.14233 265014.560000
   7625   7629     1   0.14316 258236.480000
   7625   7641     1   0.14316 258236.480000
   7633   7639     1   0.14233 265014.560000
   7642   7643     1   0.15375 251793.120000
   7642   7656     1   0.15375 251793.120000
   7642   7664     1   0.14316 258236.480000
   7643   7646     1   0.15375 251793.120000
   7643   7655     1   0.14233 265014.560000
   7646   7647     1   0.15375 251793.120000
   7646   7654     1   0.14233 265014.560000
   7647   7648     1   0.15375 251793.120000
   7647   7653     1   0.14233 265014.560000
   7648   7652     1   0.14316 258236.480000
   7648   7664     1   0.14316 258236.480000
   7656   7662     1   0.14233 265014.560000
   7665   7666     1   0.15375 251793.120000
   7665   7679     1   0.15375 251793.120000
   7665   7687     1   0.14316 258236.480000
   7666   7669     1   0.15375 251793.120000
   7666   7678     1   0.14233 265014.560000
   7669   7670     1   0.15375 251793.120000
   7669   7677     1   0.14233 265014.560000
   7670   7671     1   0.15375 251793.120000
   7670   7676     1   0.14233 265014.560000
   7671   7675     1   0.14316 258236.480000
   7671   7687     1   0.14316 258236.480000
   7679   7685     1   0.14233 265014.560000
   7688   7689     1   0.15375 251793.120000
   7688   7702     1   0.15375 251793.120000
   7688   7710     1   0.14316 258236.480000
   7689   7692     1   0.15375 251793.120000
   7689   7701     1   0.14233 265014.560000
   7692   7693     1   0.15375 251793.120000
   7692   7700     1   0.14233 265014.560000
   7693   7694     1   0.15375 251793.120000
   7693   7699     1   0.14233 265014.560000
   7694   7698     1   0.14316 258236.480000
   7694   7710     1   0.14316 258236.480000
   7702   7708     1   0.14233 265014.560000
   7711   7712     1   0.15375 251793.120000
   7711   7725     1   0.15375 251793.120000
   7711   7733     1   0.14316 258236.480000
   7712   7715     1   0.15375 251793.120000
   7712   7724     1   0.14233 265014.560000
   7715   7716     1   0.15375 251793.120000
   7715   7723     1   0.14233 265014.560000
   7716   7717     1   0.15375 251793.120000
   7716   7722     1   0.14233 265014.560000
   7717   7721     1   0.14316 258236.480000
   7717   7733     1   0.14316 258236.480000
   7725   7731     1   0.14233 265014.560000
   7734   7735     1   0.15375 251793.120000
   7734   7748     1   0.15375 251793.120000
   7734   7756     1   0.14316 258236.480000
   7735   7738     1   0.15375 251793.120000
   7735   7747     1   0.14233 265014.560000
   7738   7739     1   0.15375 251793.120000
   7738   7746     1   0.14233 265014.560000
   7739   7740     1   0.15375 251793.120000
   7739   7745     1   0.14233 265014.560000
   7740   7744     1   0.14316 258236.480000
   7740   7756     1   0.14316 258236.480000
   7748   7754     1   0.14233 265014.560000
   7757   7758     1   0.15375 251793.120000
   7757   7771     1   0.15375 251793.120000
   7757   7779     1   0.14316 258236.480000
   7758   7761     1   0.15375 251793.120000
   7758   7770     1   0.14233 265014.560000
   7761   7762     1   0.15375 251793.120000
   7761   7769     1   0.14233 265014.560000
   7762   7763     1   0.15375 251793.120000
   7762   7768     1   0.14233 265014.560000
   7763   7767     1   0.14316 258236.480000
   7763   7779     1   0.14316 258236.480000
   7771   7777     1   0.14233 265014.560000
   7780   7781     1   0.15375 251793.120000
   7780   7794     1   0.15375 251793.120000
   7780   7802     1   0.14316 258236.480000
   7781   7784     1   0.15375 251793.120000
   7781   7793     1   0.14233 265014.560000
   7784   7785     1   0.15375 251793.120000
   7784   7792     1   0.14233 265014.560000
   7785   7786     1   0.15375 251793.120000
   7785   7791     1   0.14233 265014.560000
   7786   7790     1   0.14316 258236.480000
   7786   7802     1   0.14316 258236.480000
   7794   7800     1   0.14233 265014.560000
   7803   7804     1   0.15375 251793.120000
   7803   7817     1   0.15375 251793.120000
   7803   7825     1   0.14316 258236.480000
   7804   7807     1   0.15375 251793.120000
   7804   7816     1   0.14233 265014.560000
   7807   7808     1   0.15375 251793.120000
   7807   7815     1   0.14233 265014.560000
   7808   7809     1   0.15375 251793.120000
   7808   7814     1   0.14233 265014.560000
   7809   7813     1   0.14316 258236.480000
   7809   7825     1   0.14316 258236.480000
   7817   7823     1   0.14233 265014.560000
   7826   7827     1   0.15375 251793.120000
   7826   7840     1   0.15375 251793.120000
   7826   7848     1   0.14316 258236.480000
   7827   7830     1   0.15375 251793.120000
   7827   7839     1   0.14233 265014.560000
   7830   7831     1   0.15375 251793.120000
   7830   7838     1   0.14233 265014.560000
   7831   7832     1   0.15375 251793.120000
   7831   7837     1   0.14233 265014.560000
   7832   7836     1   0.14316 258236.480000
   7832   7848     1   0.14316 258236.480000
   7840   7846     1   0.14233 265014.560000
   7849   7850     1   0.15375 251793.120000
   7849   7863     1   0.15375 251793.120000
   7849   7871     1   0.14316 258236.480000
   7850   7853     1   0.15375 251793.120000
   7850   7862     1   0.14233 265014.560000
   7853   7854     1   0.15375 251793.120000
   7853   7861     1   0.14233 265014.560000
   7854   7855     1   0.15375 251793.120000
   7854   7860     1   0.14233 265014.560000
   7855   7859     1   0.14316 258236.480000
   7855   7871     1   0.14316 258236.480000
   7863   7869     1   0.14233 265014.560000
   7872   7873     1   0.15375 251793.120000
   7872   7886     1   0.15375 251793.120000
   7872   7894     1   0.14316 258236.480000
   7873   7876     1   0.15375 251793.120000
   7873   7885     1   0.14233 265014.560000
   7876   7877     1   0.15375 251793.120000
   7876   7884     1   0.14233 265014.560000
   7877   7878     1   0.15375 251793.120000
   7877   7883     1   0.14233 265014.560000
   7878   7882     1   0.14316 258236.480000
   7878   7894     1   0.14316 258236.480000
   7886   7892     1   0.14233 265014.560000
   7895   7896     1   0.15375 251793.120000
   7895   7909     1   0.15375 251793.120000
   7895   7917     1   0.14316 258236.480000
   7896   7899     1   0.15375 251793.120000
   7896   7908     1   0.14233 265014.560000
   7899   7900     1   0.15375 251793.120000
   7899   7907     1   0.14233 265014.560000
   7900   7901     1   0.15375 251793.120000
   7900   7906     1   0.14233 265014.560000
   7901   7905     1   0.14316 258236.480000
   7901   7917     1   0.14316 258236.480000
   7909   7915     1   0.14233 265014.560000
   7918   7919     1   0.15375 251793.120000
   7918   7932     1   0.15375 251793.120000
   7918   7940     1   0.14316 258236.480000
   7919   7922     1   0.15375 251793.120000
   7919   7931     1   0.14233 265014.560000
   7922   7923     1   0.15375 251793.120000
   7922   7930     1   0.14233 265014.560000
   7923   7924     1   0.15375 251793.120000
   7923   7929     1   0.14233 265014.560000
   7924   7928     1   0.14316 258236.480000
   7924   7940     1   0.14316 258236.480000
   7932   7938     1   0.14233 265014.560000
   7941   7942     1   0.15375 251793.120000
   7941   7955     1   0.15375 251793.120000
   7941   7963     1   0.14316 258236.480000
   7942   7945     1   0.15375 251793.120000
   7942   7954     1   0.14233 265014.560000
   7945   7946     1   0.15375 251793.120000
   7945   7953     1   0.14233 265014.560000
   7946   7947     1   0.15375 251793.120000
   7946   7952     1   0.14233 265014.560000
   7947   7951     1   0.14316 258236.480000
   7947   7963     1   0.14316 258236.480000
   7955   7961     1   0.14233 265014.560000
   7964   7965     1   0.15375 251793.120000
   7964   7978     1   0.15375 251793.120000
   7964   7986     1   0.14316 258236.480000
   7965   7968     1   0.15375 251793.120000
   7965   7977     1   0.14233 265014.560000
   7968   7969     1   0.15375 251793.120000
   7968   7976     1   0.14233 265014.560000
   7969   7970     1   0.15375 251793.120000
   7969   7975     1   0.14233 265014.560000
   7970   7974     1   0.14316 258236.480000
   7970   7986     1   0.14316 258236.480000
   7978   7984     1   0.14233 265014.560000
   7987   7988     1   0.15375 251793.120000
   7987   8001     1   0.15375 251793.120000
   7987   8009     1   0.14316 258236.480000
   7988   7991     1   0.15375 251793.120000
   7988   8000     1   0.14233 265014.560000
   7991   7992     1   0.15375 251793.120000
   7991   7999     1   0.14233 265014.560000
   7992   7993     1   0.15375 251793.120000
   7992   7998     1   0.14233 265014.560000
   7993   7997     1   0.14316 258236.480000
   7993   8009     1   0.14316 258236.480000
   8001   8007     1   0.14233 265014.560000
   8010   8011     1   0.15375 251793.120000
   8010   8024     1   0.15375 251793.120000
   8010   8032     1   0.14316 258236.480000
   8011   8014     1   0.15375 251793.120000
   8011   8023     1   0.14233 265014.560000
   8014   8015     1   0.15375 251793.120000
   8014   8022     1   0.14233 265014.560000
   8015   8016     1   0.15375 251793.120000
   8015   8021     1   0.14233 265014.560000
   8016   8020     1   0.14316 258236.480000
   8016   8032     1   0.14316 258236.480000
   8024   8030     1   0.14233 265014.560000
   8033   8034     1   0.15375 251793.120000
   8033   8047     1   0.15375 251793.120000
   8033   8055     1   0.14316 258236.480000
   8034   8037     1   0.15375 251793.120000
   8034   8046     1   0.14233 265014.560000
   8037   8038     1   0.15375 251793.120000
   8037   8045     1   0.14233 265014.560000
   8038   8039     1   0.15375 251793.120000
   8038   8044     1   0.14233 265014.560000
   8039   8043     1   0.14316 258236.480000
   8039   8055     1   0.14316 258236.480000
   8047   8053     1   0.14233 265014.560000
   8056   8057     1   0.15375 251793.120000
   8056   8070     1   0.15375 251793.120000
   8056   8078     1   0.14316 258236.480000
   8057   8060     1   0.15375 251793.120000
   8057   8069     1   0.14233 265014.560000
   8060   8061     1   0.15375 251793.120000
   8060   8068     1   0.14233 265014.560000
   8061   8062     1   0.15375 251793.120000
   8061   8067     1   0.14233 265014.560000
   8062   8066     1   0.14316 258236.480000
   8062   8078     1   0.14316 258236.480000
   8070   8076     1   0.14233 265014.560000
   8079   8080     1   0.15375 251793.120000
   8079   8093     1   0.15375 251793.120000
   8079   8101     1   0.14316 258236.480000
   8080   8083     1   0.15375 251793.120000
   8080   8092     1   0.14233 265014.560000
   8083   8084     1   0.15375 251793.120000
   8083   8091     1   0.14233 265014.560000
   8084   8085     1   0.15375 251793.120000
   8084   8090     1   0.14233 265014.560000
   8085   8089     1   0.14316 258236.480000
   8085   8101     1   0.14316 258236.480000
   8093   8099     1   0.14233 265014.560000
   8102   8103     1   0.15375 251793.120000
   8102   8116     1   0.15375 251793.120000
   8102   8124     1   0.14316 258236.480000
   8103   8106     1   0.15375 251793.120000
   8103   8115     1   0.14233 265014.560000
   8106   8107     1   0.15375 251793.120000
   8106   8114     1   0.14233 265014.560000
   8107   8108     1   0.15375 251793.120000
   8107   8113     1   0.14233 265014.560000
   8108   8112     1   0.14316 258236.480000
   8108   8124     1   0.14316 258236.480000
   8116   8122     1   0.14233 265014.560000
   8125   8126     1   0.15375 251793.120000
   8125   8139     1   0.15375 251793.120000
   8125   8147     1   0.14316 258236.480000
   8126   8129     1   0.15375 251793.120000
   8126   8138     1   0.14233 265014.560000
   8129   8130     1   0.15375 251793.120000
   8129   8137     1   0.14233 265014.560000
   8130   8131     1   0.15375 251793.120000
   8130   8136     1   0.14233 265014.560000
   8131   8135     1   0.14316 258236.480000
   8131   8147     1   0.14316 258236.480000
   8139   8145     1   0.14233 265014.560000
   8148   8149     1   0.15375 251793.120000
   8148   8162     1   0.15375 251793.120000
   8148   8170     1   0.14316 258236.480000
   8149   8152     1   0.15375 251793.120000
   8149   8161     1   0.14233 265014.560000
   8152   8153     1   0.15375 251793.120000
   8152   8160     1   0.14233 265014.560000
   8153   8154     1   0.15375 251793.120000
   8153   8159     1   0.14233 265014.560000
   8154   8158     1   0.14316 258236.480000
   8154   8170     1   0.14316 258236.480000
   8162   8168     1   0.14233 265014.560000
   8171   8172     1   0.15375 251793.120000
   8171   8185     1   0.15375 251793.120000
   8171   8193     1   0.14316 258236.480000
   8172   8175     1   0.15375 251793.120000
   8172   8184     1   0.14233 265014.560000
   8175   8176     1   0.15375 251793.120000
   8175   8183     1   0.14233 265014.560000
   8176   8177     1   0.15375 251793.120000
   8176   8182     1   0.14233 265014.560000
   8177   8181     1   0.14316 258236.480000
   8177   8193     1   0.14316 258236.480000
   8185   8191     1   0.14233 265014.560000
   8194   8195     1   0.15375 251793.120000
   8194   8208     1   0.15375 251793.120000
   8194   8216     1   0.14316 258236.480000
   8195   8198     1   0.15375 251793.120000
   8195   8207     1   0.14233 265014.560000
   8198   8199     1   0.15375 251793.120000
   8198   8206     1   0.14233 265014.560000
   8199   8200     1   0.15375 251793.120000
   8199   8205     1   0.14233 265014.560000
   8200   8204     1   0.14316 258236.480000
   8200   8216     1   0.14316 258236.480000
   8208   8214     1   0.14233 265014.560000
   8217   8218     1   0.15375 251793.120000
   8217   8231     1   0.15375 251793.120000
   8217   8239     1   0.14316 258236.480000
   8218   8221     1   0.15375 251793.120000
   8218   8230     1   0.14233 265014.560000
   8221   8222     1   0.15375 251793.120000
   8221   8229     1   0.14233 265014.560000
   8222   8223     1   0.15375 251793.120000
   8222   8228     1   0.14233 265014.560000
   8223   8227     1   0.14316 258236.480000
   8223   8239     1   0.14316 258236.480000
   8231   8237     1   0.14233 265014.560000
   8240   8241     1   0.15375 251793.120000
   8240   8254     1   0.15375 251793.120000
   8240   8262     1   0.14316 258236.480000
   8241   8244     1   0.15375 251793.120000
   8241   8253     1   0.14233 265014.560000
   8244   8245     1   0.15375 251793.120000
   8244   8252     1   0.14233 265014.560000
   8245   8246     1   0.15375 251793.120000
   8245   8251     1   0.14233 265014.560000
   8246   8250     1   0.14316 258236.480000
   8246   8262     1   0.14316 258236.480000
   8254   8260     1   0.14233 265014.560000
   8263   8264     1   0.15375 251793.120000
   8263   8277     1   0.15375 251793.120000
   8263   8285     1   0.14316 258236.480000
   8264   8267     1   0.15375 251793.120000
   8264   8276     1   0.14233 265014.560000
   8267   8268     1   0.15375 251793.120000
   8267   8275     1   0.14233 265014.560000
   8268   8269     1   0.15375 251793.120000
   8268   8274     1   0.14233 265014.560000
   8269   8273     1   0.14316 258236.480000
   8269   8285     1   0.14316 258236.480000
   8277   8283     1   0.14233 265014.560000
   8286   8287     1   0.15375 251793.120000
   8286   8300     1   0.15375 251793.120000
   8286   8308     1   0.14316 258236.480000
   8287   8290     1   0.15375 251793.120000
   8287   8299     1   0.14233 265014.560000
   8290   8291     1   0.15375 251793.120000
   8290   8298     1   0.14233 265014.560000
   8291   8292     1   0.15375 251793.120000
   8291   8297     1   0.14233 265014.560000
   8292   8296     1   0.14316 258236.480000
   8292   8308     1   0.14316 258236.480000
   8300   8306     1   0.14233 265014.560000
   8309   8310     1   0.15375 251793.120000
   8309   8323     1   0.15375 251793.120000
   8309   8331     1   0.14316 258236.480000
   8310   8313     1   0.15375 251793.120000
   8310   8322     1   0.14233 265014.560000
   8313   8314     1   0.15375 251793.120000
   8313   8321     1   0.14233 265014.560000
   8314   8315     1   0.15375 251793.120000
   8314   8320     1   0.14233 265014.560000
   8315   8319     1   0.14316 258236.480000
   8315   8331     1   0.14316 258236.480000
   8323   8329     1   0.14233 265014.560000
   8332   8333     1   0.15375 251793.120000
   8332   8346     1   0.15375 251793.120000
   8332   8354     1   0.14316 258236.480000
   8333   8336     1   0.15375 251793.120000
   8333   8345     1   0.14233 265014.560000
   8336   8337     1   0.15375 251793.120000
   8336   8344     1   0.14233 265014.560000
   8337   8338     1   0.15375 251793.120000
   8337   8343     1   0.14233 265014.560000
   8338   8342     1   0.14316 258236.480000
   8338   8354     1   0.14316 258236.480000
   8346   8352     1   0.14233 265014.560000
   8355   8356     1   0.15375 251793.120000
   8355   8369     1   0.15375 251793.120000
   8355   8377     1   0.14316 258236.480000
   8356   8359     1   0.15375 251793.120000
   8356   8368     1   0.14233 265014.560000
   8359   8360     1   0.15375 251793.120000
   8359   8367     1   0.14233 265014.560000
   8360   8361     1   0.15375 251793.120000
   8360   8366     1   0.14233 265014.560000
   8361   8365     1   0.14316 258236.480000
   8361   8377     1   0.14316 258236.480000
   8369   8375     1   0.14233 265014.560000
   8378   8379     1   0.15375 251793.120000
   8378   8392     1   0.15375 251793.120000
   8378   8400     1   0.14316 258236.480000
   8379   8382     1   0.15375 251793.120000
   8379   8391     1   0.14233 265014.560000
   8382   8383     1   0.15375 251793.120000
   8382   8390     1   0.14233 265014.560000
   8383   8384     1   0.15375 251793.120000
   8383   8389     1   0.14233 265014.560000
   8384   8388     1   0.14316 258236.480000
   8384   8400     1   0.14316 258236.480000
   8392   8398     1   0.14233 265014.560000
   8401   8402     1   0.15375 251793.120000
   8401   8415     1   0.15375 251793.120000
   8401   8423     1   0.14316 258236.480000
   8402   8405     1   0.15375 251793.120000
   8402   8414     1   0.14233 265014.560000
   8405   8406     1   0.15375 251793.120000
   8405   8413     1   0.14233 265014.560000
   8406   8407     1   0.15375 251793.120000
   8406   8412     1   0.14233 265014.560000
   8407   8411     1   0.14316 258236.480000
   8407   8423     1   0.14316 258236.480000
   8415   8421     1   0.14233 265014.560000
   8424   8425     1   0.15375 251793.120000
   8424   8438     1   0.15375 251793.120000
   8424   8446     1   0.14316 258236.480000
   8425   8428     1   0.15375 251793.120000
   8425   8437     1   0.14233 265014.560000
   8428   8429     1   0.15375 251793.120000
   8428   8436     1   0.14233 265014.560000
   8429   8430     1   0.15375 251793.120000
   8429   8435     1   0.14233 265014.560000
   8430   8434     1   0.14316 258236.480000
   8430   8446     1   0.14316 258236.480000
   8438   8444     1   0.14233 265014.560000
   8447   8448     1   0.15375 251793.120000
   8447   8461     1   0.15375 251793.120000
   8447   8469     1   0.14316 258236.480000
   8448   8451     1   0.15375 251793.120000
   8448   8460     1   0.14233 265014.560000
   8451   8452     1   0.15375 251793.120000
   8451   8459     1   0.14233 265014.560000
   8452   8453     1   0.15375 251793.120000
   8452   8458     1   0.14233 265014.560000
   8453   8457     1   0.14316 258236.480000
   8453   8469     1   0.14316 258236.480000
   8461   8467     1   0.14233 265014.560000
   8470   8471     1   0.15375 251793.120000
   8470   8484     1   0.15375 251793.120000
   8470   8492     1   0.14316 258236.480000
   8471   8474     1   0.15375 251793.120000
   8471   8483     1   0.14233 265014.560000
   8474   8475     1   0.15375 251793.120000
   8474   8482     1   0.14233 265014.560000
   8475   8476     1   0.15375 251793.120000
   8475   8481     1   0.14233 265014.560000
   8476   8480     1   0.14316 258236.480000
   8476   8492     1   0.14316 258236.480000
   8484   8490     1   0.14233 265014.560000
   8493   8494     1   0.15375 251793.120000
   8493   8507     1   0.15375 251793.120000
   8493   8515     1   0.14316 258236.480000
   8494   8497     1   0.15375 251793.120000
   8494   8506     1   0.14233 265014.560000
   8497   8498     1   0.15375 251793.120000
   8497   8505     1   0.14233 265014.560000
   8498   8499     1   0.15375 251793.120000
   8498   8504     1   0.14233 265014.560000
   8499   8503     1   0.14316 258236.480000
   8499   8515     1   0.14316 258236.480000
   8507   8513     1   0.14233 265014.560000
   8516   8517     1   0.15375 251793.120000
   8516   8530     1   0.15375 251793.120000
   8516   8538     1   0.14316 258236.480000
   8517   8520     1   0.15375 251793.120000
   8517   8529     1   0.14233 265014.560000
   8520   8521     1   0.15375 251793.120000
   8520   8528     1   0.14233 265014.560000
   8521   8522     1   0.15375 251793.120000
   8521   8527     1   0.14233 265014.560000
   8522   8526     1   0.14316 258236.480000
   8522   8538     1   0.14316 258236.480000
   8530   8536     1   0.14233 265014.560000
   8539   8540     1   0.15375 251793.120000
   8539   8553     1   0.15375 251793.120000
   8539   8561     1   0.14316 258236.480000
   8540   8543     1   0.15375 251793.120000
   8540   8552     1   0.14233 265014.560000
   8543   8544     1   0.15375 251793.120000
   8543   8551     1   0.14233 265014.560000
   8544   8545     1   0.15375 251793.120000
   8544   8550     1   0.14233 265014.560000
   8545   8549     1   0.14316 258236.480000
   8545   8561     1   0.14316 258236.480000
   8553   8559     1   0.14233 265014.560000
   8562   8563     1   0.15375 251793.120000
   8562   8576     1   0.15375 251793.120000
   8562   8584     1   0.14316 258236.480000
   8563   8566     1   0.15375 251793.120000
   8563   8575     1   0.14233 265014.560000
   8566   8567     1   0.15375 251793.120000
   8566   8574     1   0.14233 265014.560000
   8567   8568     1   0.15375 251793.120000
   8567   8573     1   0.14233 265014.560000
   8568   8572     1   0.14316 258236.480000
   8568   8584     1   0.14316 258236.480000
   8576   8582     1   0.14233 265014.560000
   8585   8586     1   0.15375 251793.120000
   8585   8599     1   0.15375 251793.120000
   8585   8607     1   0.14316 258236.480000
   8586   8589     1   0.15375 251793.120000
   8586   8598     1   0.14233 265014.560000
   8589   8590     1   0.15375 251793.120000
   8589   8597     1   0.14233 265014.560000
   8590   8591     1   0.15375 251793.120000
   8590   8596     1   0.14233 265014.560000
   8591   8595     1   0.14316 258236.480000
   8591   8607     1   0.14316 258236.480000
   8599   8605     1   0.14233 265014.560000
   8608   8609     1   0.15375 251793.120000
   8608   8622     1   0.15375 251793.120000
   8608   8630     1   0.14316 258236.480000
   8609   8612     1   0.15375 251793.120000
   8609   8621     1   0.14233 265014.560000
   8612   8613     1   0.15375 251793.120000
   8612   8620     1   0.14233 265014.560000
   8613   8614     1   0.15375 251793.120000
   8613   8619     1   0.14233 265014.560000
   8614   8618     1   0.14316 258236.480000
   8614   8630     1   0.14316 258236.480000
   8622   8628     1   0.14233 265014.560000
   8631   8632     1   0.15375 251793.120000
   8631   8645     1   0.15375 251793.120000
   8631   8653     1   0.14316 258236.480000
   8632   8635     1   0.15375 251793.120000
   8632   8644     1   0.14233 265014.560000
   8635   8636     1   0.15375 251793.120000
   8635   8643     1   0.14233 265014.560000
   8636   8637     1   0.15375 251793.120000
   8636   8642     1   0.14233 265014.560000
   8637   8641     1   0.14316 258236.480000
   8637   8653     1   0.14316 258236.480000
   8645   8651     1   0.14233 265014.560000
   8654   8655     1   0.15375 251793.120000
   8654   8668     1   0.15375 251793.120000
   8654   8676     1   0.14316 258236.480000
   8655   8658     1   0.15375 251793.120000
   8655   8667     1   0.14233 265014.560000
   8658   8659     1   0.15375 251793.120000
   8658   8666     1   0.14233 265014.560000
   8659   8660     1   0.15375 251793.120000
   8659   8665     1   0.14233 265014.560000
   8660   8664     1   0.14316 258236.480000
   8660   8676     1   0.14316 258236.480000
   8668   8674     1   0.14233 265014.560000
   8677   8678     1   0.15375 251793.120000
   8677   8691     1   0.15375 251793.120000
   8677   8699     1   0.14316 258236.480000
   8678   8681     1   0.15375 251793.120000
   8678   8690     1   0.14233 265014.560000
   8681   8682     1   0.15375 251793.120000
   8681   8689     1   0.14233 265014.560000
   8682   8683     1   0.15375 251793.120000
   8682   8688     1   0.14233 265014.560000
   8683   8687     1   0.14316 258236.480000
   8683   8699     1   0.14316 258236.480000
   8691   8697     1   0.14233 265014.560000
   8700   8701     1   0.15375 251793.120000
   8700   8714     1   0.15375 251793.120000
   8700   8722     1   0.14316 258236.480000
   8701   8704     1   0.15375 251793.120000
   8701   8713     1   0.14233 265014.560000
   8704   8705     1   0.15375 251793.120000
   8704   8712     1   0.14233 265014.560000
   8705   8706     1   0.15375 251793.120000
   8705   8711     1   0.14233 265014.560000
   8706   8710     1   0.14316 258236.480000
   8706   8722     1   0.14316 258236.480000
   8714   8720     1   0.14233 265014.560000
   8723   8724     1   0.15375 251793.120000
   8723   8737     1   0.15375 251793.120000
   8723   8745     1   0.14316 258236.480000
   8724   8727     1   0.15375 251793.120000
   8724   8736     1   0.14233 265014.560000
   8727   8728     1   0.15375 251793.120000
   8727   8735     1   0.14233 265014.560000
   8728   8729     1   0.15375 251793.120000
   8728   8734     1   0.14233 265014.560000
   8729   8733     1   0.14316 258236.480000
   8729   8745     1   0.14316 258236.480000
   8737   8743     1   0.14233 265014.560000
   8746   8747     1   0.15375 251793.120000
   8746   8760     1   0.15375 251793.120000
   8746   8768     1   0.14316 258236.480000
   8747   8750     1   0.15375 251793.120000
   8747   8759     1   0.14233 265014.560000
   8750   8751     1   0.15375 251793.120000
   8750   8758     1   0.14233 265014.560000
   8751   8752     1   0.15375 251793.120000
   8751   8757     1   0.14233 265014.560000
   8752   8756     1   0.14316 258236.480000
   8752   8768     1   0.14316 258236.480000
   8760   8766     1   0.14233 265014.560000
   8769   8770     1   0.15375 251793.120000
   8769   8783     1   0.15375 251793.120000
   8769   8791     1   0.14316 258236.480000
   8770   8773     1   0.15375 251793.120000
   8770   8782     1   0.14233 265014.560000
   8773   8774     1   0.15375 251793.120000
   8773   8781     1   0.14233 265014.560000
   8774   8775     1   0.15375 251793.120000
   8774   8780     1   0.14233 265014.560000
   8775   8779     1   0.14316 258236.480000
   8775   8791     1   0.14316 258236.480000
   8783   8789     1   0.14233 265014.560000
   8792   8793     1   0.15375 251793.120000
   8792   8806     1   0.15375 251793.120000
   8792   8814     1   0.14316 258236.480000
   8793   8796     1   0.15375 251793.120000
   8793   8805     1   0.14233 265014.560000
   8796   8797     1   0.15375 251793.120000
   8796   8804     1   0.14233 265014.560000
   8797   8798     1   0.15375 251793.120000
   8797   8803     1   0.14233 265014.560000
   8798   8802     1   0.14316 258236.480000
   8798   8814     1   0.14316 258236.480000
   8806   8812     1   0.14233 265014.560000
   8815   8816     1   0.15375 251793.120000
   8815   8829     1   0.15375 251793.120000
   8815   8837     1   0.14316 258236.480000
   8816   8819     1   0.15375 251793.120000
   8816   8828     1   0.14233 265014.560000
   8819   8820     1   0.15375 251793.120000
   8819   8827     1   0.14233 265014.560000
   8820   8821     1   0.15375 251793.120000
   8820   8826     1   0.14233 265014.560000
   8821   8825     1   0.14316 258236.480000
   8821   8837     1   0.14316 258236.480000
   8829   8835     1   0.14233 265014.560000
   8838   8839     1   0.15375 251793.120000
   8838   8852     1   0.15375 251793.120000
   8838   8860     1   0.14316 258236.480000
   8839   8842     1   0.15375 251793.120000
   8839   8851     1   0.14233 265014.560000
   8842   8843     1   0.15375 251793.120000
   8842   8850     1   0.14233 265014.560000
   8843   8844     1   0.15375 251793.120000
   8843   8849     1   0.14233 265014.560000
   8844   8848     1   0.14316 258236.480000
   8844   8860     1   0.14316 258236.480000
   8852   8858     1   0.14233 265014.560000
   8861   8862     1   0.15375 251793.120000
   8861   8875     1   0.15375 251793.120000
   8861   8883     1   0.14316 258236.480000
   8862   8865     1   0.15375 251793.120000
   8862   8874     1   0.14233 265014.560000
   8865   8866     1   0.15375 251793.120000
   8865   8873     1   0.14233 265014.560000
   8866   8867     1   0.15375 251793.120000
   8866   8872     1   0.14233 265014.560000
   8867   8871     1   0.14316 258236.480000
   8867   8883     1   0.14316 258236.480000
   8875   8881     1   0.14233 265014.560000
   8884   8885     1   0.15375 251793.120000
   8884   8898     1   0.15375 251793.120000
   8884   8906     1   0.14316 258236.480000
   8885   8888     1   0.15375 251793.120000
   8885   8897     1   0.14233 265014.560000
   8888   8889     1   0.15375 251793.120000
   8888   8896     1   0.14233 265014.560000
   8889   8890     1   0.15375 251793.120000
   8889   8895     1   0.14233 265014.560000
   8890   8894     1   0.14316 258236.480000
   8890   8906     1   0.14316 258236.480000
   8898   8904     1   0.14233 265014.560000
   8907   8908     1   0.15375 251793.120000
   8907   8921     1   0.15375 251793.120000
   8907   8929     1   0.14316 258236.480000
   8908   8911     1   0.15375 251793.120000
   8908   8920     1   0.14233 265014.560000
   8911   8912     1   0.15375 251793.120000
   8911   8919     1   0.14233 265014.560000
   8912   8913     1   0.15375 251793.120000
   8912   8918     1   0.14233 265014.560000
   8913   8917     1   0.14316 258236.480000
   8913   8929     1   0.14316 258236.480000
   8921   8927     1   0.14233 265014.560000
   8930   8931     1   0.15375 251793.120000
   8930   8944     1   0.15375 251793.120000
   8930   8952     1   0.14316 258236.480000
   8931   8934     1   0.15375 251793.120000
   8931   8943     1   0.14233 265014.560000
   8934   8935     1   0.15375 251793.120000
   8934   8942     1   0.14233 265014.560000
   8935   8936     1   0.15375 251793.120000
   8935   8941     1   0.14233 265014.560000
   8936   8940     1   0.14316 258236.480000
   8936   8952     1   0.14316 258236.480000
   8944   8950     1   0.14233 265014.560000
   8953   8954     1   0.15375 251793.120000
   8953   8967     1   0.15375 251793.120000
   8953   8975     1   0.14316 258236.480000
   8954   8957     1   0.15375 251793.120000
   8954   8966     1   0.14233 265014.560000
   8957   8958     1   0.15375 251793.120000
   8957   8965     1   0.14233 265014.560000
   8958   8959     1   0.15375 251793.120000
   8958   8964     1   0.14233 265014.560000
   8959   8963     1   0.14316 258236.480000
   8959   8975     1   0.14316 258236.480000
   8967   8973     1   0.14233 265014.560000
   8976   8977     1   0.15375 251793.120000
   8976   8990     1   0.15375 251793.120000
   8976   8998     1   0.14316 258236.480000
   8977   8980     1   0.15375 251793.120000
   8977   8989     1   0.14233 265014.560000
   8980   8981     1   0.15375 251793.120000
   8980   8988     1   0.14233 265014.560000
   8981   8982     1   0.15375 251793.120000
   8981   8987     1   0.14233 265014.560000
   8982   8986     1   0.14316 258236.480000
   8982   8998     1   0.14316 258236.480000
   8990   8996     1   0.14233 265014.560000
   8999   9000     1   0.15375 251793.120000
   8999   9013     1   0.15375 251793.120000
   8999   9021     1   0.14316 258236.480000
   9000   9003     1   0.15375 251793.120000
   9000   9012     1   0.14233 265014.560000
   9003   9004     1   0.15375 251793.120000
   9003   9011     1   0.14233 265014.560000
   9004   9005     1   0.15375 251793.120000
   9004   9010     1   0.14233 265014.560000
   9005   9009     1   0.14316 258236.480000
   9005   9021     1   0.14316 258236.480000
   9013   9019     1   0.14233 265014.560000
   9022   9023     1   0.15375 251793.120000
   9022   9036     1   0.15375 251793.120000
   9022   9044     1   0.14316 258236.480000
   9023   9026     1   0.15375 251793.120000
   9023   9035     1   0.14233 265014.560000
   9026   9027     1   0.15375 251793.120000
   9026   9034     1   0.14233 265014.560000
   9027   9028     1   0.15375 251793.120000
   9027   9033     1   0.14233 265014.560000
   9028   9032     1   0.14316 258236.480000
   9028   9044     1   0.14316 258236.480000
   9036   9042     1   0.14233 265014.560000
   9045   9046     1   0.15375 251793.120000
   9045   9059     1   0.15375 251793.120000
   9045   9067     1   0.14316 258236.480000
   9046   9049     1   0.15375 251793.120000
   9046   9058     1   0.14233 265014.560000
   9049   9050     1   0.15375 251793.120000
   9049   9057     1   0.14233 265014.560000
   9050   9051     1   0.15375 251793.120000
   9050   9056     1   0.14233 265014.560000
   9051   9055     1   0.14316 258236.480000
   9051   9067     1   0.14316 258236.480000
   9059   9065     1   0.14233 265014.560000
   9068   9069     1   0.15375 251793.120000
   9068   9082     1   0.15375 251793.120000
   9068   9090     1   0.14316 258236.480000
   9069   9072     1   0.15375 251793.120000
   9069   9081     1   0.14233 265014.560000
   9072   9073     1   0.15375 251793.120000
   9072   9080     1   0.14233 265014.560000
   9073   9074     1   0.15375 251793.120000
   9073   9079     1   0.14233 265014.560000
   9074   9078     1   0.14316 258236.480000
   9074   9090     1   0.14316 258236.480000
   9082   9088     1   0.14233 265014.560000
   9091   9092     1   0.15375 251793.120000
   9091   9105     1   0.15375 251793.120000
   9091   9113     1   0.14316 258236.480000
   9092   9095     1   0.15375 251793.120000
   9092   9104     1   0.14233 265014.560000
   9095   9096     1   0.15375 251793.120000
   9095   9103     1   0.14233 265014.560000
   9096   9097     1   0.15375 251793.120000
   9096   9102     1   0.14233 265014.560000
   9097   9101     1   0.14316 258236.480000
   9097   9113     1   0.14316 258236.480000
   9105   9111     1   0.14233 265014.560000
   9114   9115     1   0.15375 251793.120000
   9114   9128     1   0.15375 251793.120000
   9114   9136     1   0.14316 258236.480000
   9115   9118     1   0.15375 251793.120000
   9115   9127     1   0.14233 265014.560000
   9118   9119     1   0.15375 251793.120000
   9118   9126     1   0.14233 265014.560000
   9119   9120     1   0.15375 251793.120000
   9119   9125     1   0.14233 265014.560000
   9120   9124     1   0.14316 258236.480000
   9120   9136     1   0.14316 258236.480000
   9128   9134     1   0.14233 265014.560000
   9137   9138     1   0.15375 251793.120000
   9137   9151     1   0.15375 251793.120000
   9137   9159     1   0.14316 258236.480000
   9138   9141     1   0.15375 251793.120000
   9138   9150     1   0.14233 265014.560000
   9141   9142     1   0.15375 251793.120000
   9141   9149     1   0.14233 265014.560000
   9142   9143     1   0.15375 251793.120000
   9142   9148     1   0.14233 265014.560000
   9143   9147     1   0.14316 258236.480000
   9143   9159     1   0.14316 258236.480000
   9151   9157     1   0.14233 265014.560000
   9160   9161     1   0.15375 251793.120000
   9160   9174     1   0.15375 251793.120000
   9160   9182     1   0.14316 258236.480000
   9161   9164     1   0.15375 251793.120000
   9161   9173     1   0.14233 265014.560000
   9164   9165     1   0.15375 251793.120000
   9164   9172     1   0.14233 265014.560000
   9165   9166     1   0.15375 251793.120000
   9165   9171     1   0.14233 265014.560000
   9166   9170     1   0.14316 258236.480000
   9166   9182     1   0.14316 258236.480000
   9174   9180     1   0.14233 265014.560000
   9183   9184     1   0.15375 251793.120000
   9183   9197     1   0.15375 251793.120000
   9183   9205     1   0.14316 258236.480000
   9184   9187     1   0.15375 251793.120000
   9184   9196     1   0.14233 265014.560000
   9187   9188     1   0.15375 251793.120000
   9187   9195     1   0.14233 265014.560000
   9188   9189     1   0.15375 251793.120000
   9188   9194     1   0.14233 265014.560000
   9189   9193     1   0.14316 258236.480000
   9189   9205     1   0.14316 258236.480000
   9197   9203     1   0.14233 265014.560000
   9206   9207     1   0.15375 251793.120000
   9206   9220     1   0.15375 251793.120000
   9206   9228     1   0.14316 258236.480000
   9207   9210     1   0.15375 251793.120000
   9207   9219     1   0.14233 265014.560000
   9210   9211     1   0.15375 251793.120000
   9210   9218     1   0.14233 265014.560000
   9211   9212     1   0.15375 251793.120000
   9211   9217     1   0.14233 265014.560000
   9212   9216     1   0.14316 258236.480000
   9212   9228     1   0.14316 258236.480000
   9220   9226     1   0.14233 265014.560000
   9229   9230     1   0.15375 251793.120000
   9229   9243     1   0.15375 251793.120000
   9229   9251     1   0.14316 258236.480000
   9230   9233     1   0.15375 251793.120000
   9230   9242     1   0.14233 265014.560000
   9233   9234     1   0.15375 251793.120000
   9233   9241     1   0.14233 265014.560000
   9234   9235     1   0.15375 251793.120000
   9234   9240     1   0.14233 265014.560000
   9235   9239     1   0.14316 258236.480000
   9235   9251     1   0.14316 258236.480000
   9243   9249     1   0.14233 265014.560000
   9252   9253     1   0.15375 251793.120000
   9252   9266     1   0.15375 251793.120000
   9252   9274     1   0.14316 258236.480000
   9253   9256     1   0.15375 251793.120000
   9253   9265     1   0.14233 265014.560000
   9256   9257     1   0.15375 251793.120000
   9256   9264     1   0.14233 265014.560000
   9257   9258     1   0.15375 251793.120000
   9257   9263     1   0.14233 265014.560000
   9258   9262     1   0.14316 258236.480000
   9258   9274     1   0.14316 258236.480000
   9266   9272     1   0.14233 265014.560000
   9275   9276     1   0.15375 251793.120000
   9275   9289     1   0.15375 251793.120000
   9275   9297     1   0.14316 258236.480000
   9276   9279     1   0.15375 251793.120000
   9276   9288     1   0.14233 265014.560000
   9279   9280     1   0.15375 251793.120000
   9279   9287     1   0.14233 265014.560000
   9280   9281     1   0.15375 251793.120000
   9280   9286     1   0.14233 265014.560000
   9281   9285     1   0.14316 258236.480000
   9281   9297     1   0.14316 258236.480000
   9289   9295     1   0.14233 265014.560000
   9298   9299     1   0.15375 251793.120000
   9298   9312     1   0.15375 251793.120000
   9298   9320     1   0.14316 258236.480000
   9299   9302     1   0.15375 251793.120000
   9299   9311     1   0.14233 265014.560000
   9302   9303     1   0.15375 251793.120000
   9302   9310     1   0.14233 265014.560000
   9303   9304     1   0.15375 251793.120000
   9303   9309     1   0.14233 265014.560000
   9304   9308     1   0.14316 258236.480000
   9304   9320     1   0.14316 258236.480000
   9312   9318     1   0.14233 265014.560000
   9321   9322     1   0.15375 251793.120000
   9321   9335     1   0.15375 251793.120000
   9321   9343     1   0.14316 258236.480000
   9322   9325     1   0.15375 251793.120000
   9322   9334     1   0.14233 265014.560000
   9325   9326     1   0.15375 251793.120000
   9325   9333     1   0.14233 265014.560000
   9326   9327     1   0.15375 251793.120000
   9326   9332     1   0.14233 265014.560000
   9327   9331     1   0.14316 258236.480000
   9327   9343     1   0.14316 258236.480000
   9335   9341     1   0.14233 265014.560000
   9344   9345     1   0.15375 251793.120000
   9344   9358     1   0.15375 251793.120000
   9344   9366     1   0.14316 258236.480000
   9345   9348     1   0.15375 251793.120000
   9345   9357     1   0.14233 265014.560000
   9348   9349     1   0.15375 251793.120000
   9348   9356     1   0.14233 265014.560000
   9349   9350     1   0.15375 251793.120000
   9349   9355     1   0.14233 265014.560000
   9350   9354     1   0.14316 258236.480000
   9350   9366     1   0.14316 258236.480000
   9358   9364     1   0.14233 265014.560000
   9367   9368     1   0.15375 251793.120000
   9367   9381     1   0.15375 251793.120000
   9367   9389     1   0.14316 258236.480000
   9368   9371     1   0.15375 251793.120000
   9368   9380     1   0.14233 265014.560000
   9371   9372     1   0.15375 251793.120000
   9371   9379     1   0.14233 265014.560000
   9372   9373     1   0.15375 251793.120000
   9372   9378     1   0.14233 265014.560000
   9373   9377     1   0.14316 258236.480000
   9373   9389     1   0.14316 258236.480000
   9381   9387     1   0.14233 265014.560000
   9390   9391     1   0.15375 251793.120000
   9390   9404     1   0.15375 251793.120000
   9390   9412     1   0.14316 258236.480000
   9391   9394     1   0.15375 251793.120000
   9391   9403     1   0.14233 265014.560000
   9394   9395     1   0.15375 251793.120000
   9394   9402     1   0.14233 265014.560000
   9395   9396     1   0.15375 251793.120000
   9395   9401     1   0.14233 265014.560000
   9396   9400     1   0.14316 258236.480000
   9396   9412     1   0.14316 258236.480000
   9404   9410     1   0.14233 265014.560000
   9413   9414     1   0.15375 251793.120000
   9413   9427     1   0.15375 251793.120000
   9413   9435     1   0.14316 258236.480000
   9414   9417     1   0.15375 251793.120000
   9414   9426     1   0.14233 265014.560000
   9417   9418     1   0.15375 251793.120000
   9417   9425     1   0.14233 265014.560000
   9418   9419     1   0.15375 251793.120000
   9418   9424     1   0.14233 265014.560000
   9419   9423     1   0.14316 258236.480000
   9419   9435     1   0.14316 258236.480000
   9427   9433     1   0.14233 265014.560000
   9436   9437     1   0.15375 251793.120000
   9436   9450     1   0.15375 251793.120000
   9436   9458     1   0.14316 258236.480000
   9437   9440     1   0.15375 251793.120000
   9437   9449     1   0.14233 265014.560000
   9440   9441     1   0.15375 251793.120000
   9440   9448     1   0.14233 265014.560000
   9441   9442     1   0.15375 251793.120000
   9441   9447     1   0.14233 265014.560000
   9442   9446     1   0.14316 258236.480000
   9442   9458     1   0.14316 258236.480000
   9450   9456     1   0.14233 265014.560000
   9459   9460     1   0.15375 251793.120000
   9459   9473     1   0.15375 251793.120000
   9459   9481     1   0.14316 258236.480000
   9460   9463     1   0.15375 251793.120000
   9460   9472     1   0.14233 265014.560000
   9463   9464     1   0.15375 251793.120000
   9463   9471     1   0.14233 265014.560000
   9464   9465     1   0.15375 251793.120000
   9464   9470     1   0.14233 265014.560000
   9465   9469     1   0.14316 258236.480000
   9465   9481     1   0.14316 258236.480000
   9473   9479     1   0.14233 265014.560000
   9482   9483     1   0.15375 251793.120000
   9482   9496     1   0.15375 251793.120000
   9482   9504     1   0.14316 258236.480000
   9483   9486     1   0.15375 251793.120000
   9483   9495     1   0.14233 265014.560000
   9486   9487     1   0.15375 251793.120000
   9486   9494     1   0.14233 265014.560000
   9487   9488     1   0.15375 251793.120000
   9487   9493     1   0.14233 265014.560000
   9488   9492     1   0.14316 258236.480000
   9488   9504     1   0.14316 258236.480000
   9496   9502     1   0.14233 265014.560000
   9505   9506     1   0.15375 251793.120000
   9505   9519     1   0.15375 251793.120000
   9505   9527     1   0.14316 258236.480000
   9506   9509     1   0.15375 251793.120000
   9506   9518     1   0.14233 265014.560000
   9509   9510     1   0.15375 251793.120000
   9509   9517     1   0.14233 265014.560000
   9510   9511     1   0.15375 251793.120000
   9510   9516     1   0.14233 265014.560000
   9511   9515     1   0.14316 258236.480000
   9511   9527     1   0.14316 258236.480000
   9519   9525     1   0.14233 265014.560000
   9528   9529     1   0.15375 251793.120000
   9528   9542     1   0.15375 251793.120000
   9528   9550     1   0.14316 258236.480000
   9529   9532     1   0.15375 251793.120000
   9529   9541     1   0.14233 265014.560000
   9532   9533     1   0.15375 251793.120000
   9532   9540     1   0.14233 265014.560000
   9533   9534     1   0.15375 251793.120000
   9533   9539     1   0.14233 265014.560000
   9534   9538     1   0.14316 258236.480000
   9534   9550     1   0.14316 258236.480000
   9542   9548     1   0.14233 265014.560000
   9551   9552     1   0.15375 251793.120000
   9551   9565     1   0.15375 251793.120000
   9551   9573     1   0.14316 258236.480000
   9552   9555     1   0.15375 251793.120000
   9552   9564     1   0.14233 265014.560000
   9555   9556     1   0.15375 251793.120000
   9555   9563     1   0.14233 265014.560000
   9556   9557     1   0.15375 251793.120000
   9556   9562     1   0.14233 265014.560000
   9557   9561     1   0.14316 258236.480000
   9557   9573     1   0.14316 258236.480000
   9565   9571     1   0.14233 265014.560000
   9574   9575     1   0.15375 251793.120000
   9574   9588     1   0.15375 251793.120000
   9574   9596     1   0.14316 258236.480000
   9575   9578     1   0.15375 251793.120000
   9575   9587     1   0.14233 265014.560000
   9578   9579     1   0.15375 251793.120000
   9578   9586     1   0.14233 265014.560000
   9579   9580     1   0.15375 251793.120000
   9579   9585     1   0.14233 265014.560000
   9580   9584     1   0.14316 258236.480000
   9580   9596     1   0.14316 258236.480000
   9588   9594     1   0.14233 265014.560000
   9597   9598     1   0.15375 251793.120000
   9597   9611     1   0.15375 251793.120000
   9597   9619     1   0.14316 258236.480000
   9598   9601     1   0.15375 251793.120000
   9598   9610     1   0.14233 265014.560000
   9601   9602     1   0.15375 251793.120000
   9601   9609     1   0.14233 265014.560000
   9602   9603     1   0.15375 251793.120000
   9602   9608     1   0.14233 265014.560000
   9603   9607     1   0.14316 258236.480000
   9603   9619     1   0.14316 258236.480000
   9611   9617     1   0.14233 265014.560000
   9620   9621     1   0.15375 251793.120000
   9620   9634     1   0.15375 251793.120000
   9620   9642     1   0.14316 258236.480000
   9621   9624     1   0.15375 251793.120000
   9621   9633     1   0.14233 265014.560000
   9624   9625     1   0.15375 251793.120000
   9624   9632     1   0.14233 265014.560000
   9625   9626     1   0.15375 251793.120000
   9625   9631     1   0.14233 265014.560000
   9626   9630     1   0.14316 258236.480000
   9626   9642     1   0.14316 258236.480000
   9634   9640     1   0.14233 265014.560000
   9643   9644     1   0.15375 251793.120000
   9643   9657     1   0.15375 251793.120000
   9643   9665     1   0.14316 258236.480000
   9644   9647     1   0.15375 251793.120000
   9644   9656     1   0.14233 265014.560000
   9647   9648     1   0.15375 251793.120000
   9647   9655     1   0.14233 265014.560000
   9648   9649     1   0.15375 251793.120000
   9648   9654     1   0.14233 265014.560000
   9649   9653     1   0.14316 258236.480000
   9649   9665     1   0.14316 258236.480000
   9657   9663     1   0.14233 265014.560000
   9666   9667     1   0.15375 251793.120000
   9666   9680     1   0.15375 251793.120000
   9666   9688     1   0.14316 258236.480000
   9667   9670     1   0.15375 251793.120000
   9667   9679     1   0.14233 265014.560000
   9670   9671     1   0.15375 251793.120000
   9670   9678     1   0.14233 265014.560000
   9671   9672     1   0.15375 251793.120000
   9671   9677     1   0.14233 265014.560000
   9672   9676     1   0.14316 258236.480000
   9672   9688     1   0.14316 258236.480000
   9680   9686     1   0.14233 265014.560000
   9689   9690     1   0.15375 251793.120000
   9689   9703     1   0.15375 251793.120000
   9689   9711     1   0.14316 258236.480000
   9690   9693     1   0.15375 251793.120000
   9690   9702     1   0.14233 265014.560000
   9693   9694     1   0.15375 251793.120000
   9693   9701     1   0.14233 265014.560000
   9694   9695     1   0.15375 251793.120000
   9694   9700     1   0.14233 265014.560000
   9695   9699     1   0.14316 258236.480000
   9695   9711     1   0.14316 258236.480000
   9703   9709     1   0.14233 265014.560000
   9712   9713     1   0.15375 251793.120000
   9712   9726     1   0.15375 251793.120000
   9712   9734     1   0.14316 258236.480000
   9713   9716     1   0.15375 251793.120000
   9713   9725     1   0.14233 265014.560000
   9716   9717     1   0.15375 251793.120000
   9716   9724     1   0.14233 265014.560000
   9717   9718     1   0.15375 251793.120000
   9717   9723     1   0.14233 265014.560000
   9718   9722     1   0.14316 258236.480000
   9718   9734     1   0.14316 258236.480000
   9726   9732     1   0.14233 265014.560000
   9735   9736     1   0.15375 251793.120000
   9735   9749     1   0.15375 251793.120000
   9735   9757     1   0.14316 258236.480000
   9736   9739     1   0.15375 251793.120000
   9736   9748     1   0.14233 265014.560000
   9739   9740     1   0.15375 251793.120000
   9739   9747     1   0.14233 265014.560000
   9740   9741     1   0.15375 251793.120000
   9740   9746     1   0.14233 265014.560000
   9741   9745     1   0.14316 258236.480000
   9741   9757     1   0.14316 258236.480000
   9749   9755     1   0.14233 265014.560000
   9758   9759     1   0.15375 251793.120000
   9758   9772     1   0.15375 251793.120000
   9758   9780     1   0.14316 258236.480000
   9759   9762     1   0.15375 251793.120000
   9759   9771     1   0.14233 265014.560000
   9762   9763     1   0.15375 251793.120000
   9762   9770     1   0.14233 265014.560000
   9763   9764     1   0.15375 251793.120000
   9763   9769     1   0.14233 265014.560000
   9764   9768     1   0.14316 258236.480000
   9764   9780     1   0.14316 258236.480000
   9772   9778     1   0.14233 265014.560000
   9781   9782     1   0.15375 251793.120000
   9781   9795     1   0.15375 251793.120000
   9781   9803     1   0.14316 258236.480000
   9782   9785     1   0.15375 251793.120000
   9782   9794     1   0.14233 265014.560000
   9785   9786     1   0.15375 251793.120000
   9785   9793     1   0.14233 265014.560000
   9786   9787     1   0.15375 251793.120000
   9786   9792     1   0.14233 265014.560000
   9787   9791     1   0.14316 258236.480000
   9787   9803     1   0.14316 258236.480000
   9795   9801     1   0.14233 265014.560000
   9804   9805     1   0.15375 251793.120000
   9804   9818     1   0.15375 251793.120000
   9804   9826     1   0.14316 258236.480000
   9805   9808     1   0.15375 251793.120000
   9805   9817     1   0.14233 265014.560000
   9808   9809     1   0.15375 251793.120000
   9808   9816     1   0.14233 265014.560000
   9809   9810     1   0.15375 251793.120000
   9809   9815     1   0.14233 265014.560000
   9810   9814     1   0.14316 258236.480000
   9810   9826     1   0.14316 258236.480000
   9818   9824     1   0.14233 265014.560000
   9827   9828     1   0.15375 251793.120000
   9827   9841     1   0.15375 251793.120000
   9827   9849     1   0.14316 258236.480000
   9828   9831     1   0.15375 251793.120000
   9828   9840     1   0.14233 265014.560000
   9831   9832     1   0.15375 251793.120000
   9831   9839     1   0.14233 265014.560000
   9832   9833     1   0.15375 251793.120000
   9832   9838     1   0.14233 265014.560000
   9833   9837     1   0.14316 258236.480000
   9833   9849     1   0.14316 258236.480000
   9841   9847     1   0.14233 265014.560000
   9850   9851     1   0.15375 251793.120000
   9850   9864     1   0.15375 251793.120000
   9850   9872     1   0.14316 258236.480000
   9851   9854     1   0.15375 251793.120000
   9851   9863     1   0.14233 265014.560000
   9854   9855     1   0.15375 251793.120000
   9854   9862     1   0.14233 265014.560000
   9855   9856     1   0.15375 251793.120000
   9855   9861     1   0.14233 265014.560000
   9856   9860     1   0.14316 258236.480000
   9856   9872     1   0.14316 258236.480000
   9864   9870     1   0.14233 265014.560000
   9873   9874     1   0.15375 251793.120000
   9873   9887     1   0.15375 251793.120000
   9873   9895     1   0.14316 258236.480000
   9874   9877     1   0.15375 251793.120000
   9874   9886     1   0.14233 265014.560000
   9877   9878     1   0.15375 251793.120000
   9877   9885     1   0.14233 265014.560000
   9878   9879     1   0.15375 251793.120000
   9878   9884     1   0.14233 265014.560000
   9879   9883     1   0.14316 258236.480000
   9879   9895     1   0.14316 258236.480000
   9887   9893     1   0.14233 265014.560000
   9896   9897     1   0.15375 251793.120000
   9896   9910     1   0.15375 251793.120000
   9896   9918     1   0.14316 258236.480000
   9897   9900     1   0.15375 251793.120000
   9897   9909     1   0.14233 265014.560000
   9900   9901     1   0.15375 251793.120000
   9900   9908     1   0.14233 265014.560000
   9901   9902     1   0.15375 251793.120000
   9901   9907     1   0.14233 265014.560000
   9902   9906     1   0.14316 258236.480000
   9902   9918     1   0.14316 258236.480000
   9910   9916     1   0.14233 265014.560000
   9919   9920     1   0.15375 251793.120000
   9919   9933     1   0.15375 251793.120000
   9919   9941     1   0.14316 258236.480000
   9920   9923     1   0.15375 251793.120000
   9920   9932     1   0.14233 265014.560000
   9923   9924     1   0.15375 251793.120000
   9923   9931     1   0.14233 265014.560000
   9924   9925     1   0.15375 251793.120000
   9924   9930     1   0.14233 265014.560000
   9925   9929     1   0.14316 258236.480000
   9925   9941     1   0.14316 258236.480000
   9933   9939     1   0.14233 265014.560000
   9942   9943     1   0.15375 251793.120000
   9942   9956     1   0.15375 251793.120000
   9942   9964     1   0.14316 258236.480000
   9943   9946     1   0.15375 251793.120000
   9943   9955     1   0.14233 265014.560000
   9946   9947     1   0.15375 251793.120000
   9946   9954     1   0.14233 265014.560000
   9947   9948     1   0.15375 251793.120000
   9947   9953     1   0.14233 265014.560000
   9948   9952     1   0.14316 258236.480000
   9948   9964     1   0.14316 258236.480000
   9956   9962     1   0.14233 265014.560000
   9965   9966     1   0.15375 251793.120000
   9965   9979     1   0.15375 251793.120000
   9965   9987     1   0.14316 258236.480000
   9966   9969     1   0.15375 251793.120000
   9966   9978     1   0.14233 265014.560000
   9969   9970     1   0.15375 251793.120000
   9969   9977     1   0.14233 265014.560000
   9970   9971     1   0.15375 251793.120000
   9970   9976     1   0.14233 265014.560000
   9971   9975     1   0.14316 258236.480000
   9971   9987     1   0.14316 258236.480000
   9979   9985     1   0.14233 265014.560000
   9988   9989     1   0.15375 251793.120000
   9988  10002     1   0.15375 251793.120000
   9988  10010     1   0.14316 258236.480000
   9989   9992     1   0.15375 251793.120000
   9989  10001     1   0.14233 265014.560000
   9992   9993     1   0.15375 251793.120000
   9992  10000     1   0.14233 265014.560000
   9993   9994     1   0.15375 251793.120000
   9993   9999     1   0.14233 265014.560000
   9994   9998     1   0.14316 258236.480000
   9994  10010     1   0.14316 258236.480000
  10002  10008     1   0.14233 265014.560000
  10011  10012     1   0.15375 251793.120000
  10011  10025     1   0.15375 251793.120000
  10011  10033     1   0.14316 258236.480000
  10012  10015     1   0.15375 251793.120000
  10012  10024     1   0.14233 265014.560000
  10015  10016     1   0.15375 251793.120000
  10015  10023     1   0.14233 265014.560000
  10016  10017     1   0.15375 251793.120000
  10016  10022     1   0.14233 265014.560000
  10017  10021     1   0.14316 258236.480000
  10017  10033     1   0.14316 258236.480000
  10025  10031     1   0.14233 265014.560000
  10034  10035     1   0.15375 251793.120000
  10034  10048     1   0.15375 251793.120000
  10034  10056     1   0.14316 258236.480000
  10035  10038     1   0.15375 251793.120000
  10035  10047     1   0.14233 265014.560000
  10038  10039     1   0.15375 251793.120000
  10038  10046     1   0.14233 265014.560000
  10039  10040     1   0.15375 251793.120000
  10039  10045     1   0.14233 265014.560000
  10040  10044     1   0.14316 258236.480000
  10040  10056     1   0.14316 258236.480000
  10048  10054     1   0.14233 265014.560000
  10057  10058     1   0.15375 251793.120000
  10057  10071     1   0.15375 251793.120000
  10057  10079     1   0.14316 258236.480000
  10058  10061     1   0.15375 251793.120000
  10058  10070     1   0.14233 265014.560000
  10061  10062     1   0.15375 251793.120000
  10061  10069     1   0.14233 265014.560000
  10062  10063     1   0.15375 251793.120000
  10062  10068     1   0.14233 265014.560000
  10063  10067     1   0.14316 258236.480000
  10063  10079     1   0.14316 258236.480000
  10071  10077     1   0.14233 265014.560000
  10080  10081     1   0.15375 251793.120000
  10080  10094     1   0.15375 251793.120000
  10080  10102     1   0.14316 258236.480000
  10081  10084     1   0.15375 251793.120000
  10081  10093     1   0.14233 265014.560000
  10084  10085     1   0.15375 251793.120000
  10084  10092     1   0.14233 265014.560000
  10085  10086     1   0.15375 251793.120000
  10085  10091     1   0.14233 265014.560000
  10086  10090     1   0.14316 258236.480000
  10086  10102     1   0.14316 258236.480000
  10094  10100     1   0.14233 265014.560000
  10103  10104     1   0.15375 251793.120000
  10103  10117     1   0.15375 251793.120000
  10103  10125     1   0.14316 258236.480000
  10104  10107     1   0.15375 251793.120000
  10104  10116     1   0.14233 265014.560000
  10107  10108     1   0.15375 251793.120000
  10107  10115     1   0.14233 265014.560000
  10108  10109     1   0.15375 251793.120000
  10108  10114     1   0.14233 265014.560000
  10109  10113     1   0.14316 258236.480000
  10109  10125     1   0.14316 258236.480000
  10117  10123     1   0.14233 265014.560000
  10126  10127     1   0.15375 251793.120000
  10126  10140     1   0.15375 251793.120000
  10126  10148     1   0.14316 258236.480000
  10127  10130     1   0.15375 251793.120000
  10127  10139     1   0.14233 265014.560000
  10130  10131     1   0.15375 251793.120000
  10130  10138     1   0.14233 265014.560000
  10131  10132     1   0.15375 251793.120000
  10131  10137     1   0.14233 265014.560000
  10132  10136     1   0.14316 258236.480000
  10132  10148     1   0.14316 258236.480000
  10140  10146     1   0.14233 265014.560000
  10149  10150     1   0.15375 251793.120000
  10149  10163     1   0.15375 251793.120000
  10149  10171     1   0.14316 258236.480000
  10150  10153     1   0.15375 251793.120000
  10150  10162     1   0.14233 265014.560000
  10153  10154     1   0.15375 251793.120000
  10153  10161     1   0.14233 265014.560000
  10154  10155     1   0.15375 251793.120000
  10154  10160     1   0.14233 265014.560000
  10155  10159     1   0.14316 258236.480000
  10155  10171     1   0.14316 258236.480000
  10163  10169     1   0.14233 265014.560000
  10172  10173     1   0.15375 251793.120000
  10172  10186     1   0.15375 251793.120000
  10172  10194     1   0.14316 258236.480000
  10173  10176     1   0.15375 251793.120000
  10173  10185     1   0.14233 265014.560000
  10176  10177     1   0.15375 251793.120000
  10176  10184     1   0.14233 265014.560000
  10177  10178     1   0.15375 251793.120000
  10177  10183     1   0.14233 265014.560000
  10178  10182     1   0.14316 258236.480000
  10178  10194     1   0.14316 258236.480000
  10186  10192     1   0.14233 265014.560000
  10195  10196     1   0.15375 251793.120000
  10195  10209     1   0.15375 251793.120000
  10195  10217     1   0.14316 258236.480000
  10196  10199     1   0.15375 251793.120000
  10196  10208     1   0.14233 265014.560000
  10199  10200     1   0.15375 251793.120000
  10199  10207     1   0.14233 265014.560000
  10200  10201     1   0.15375 251793.120000
  10200  10206     1   0.14233 265014.560000
  10201  10205     1   0.14316 258236.480000
  10201  10217     1   0.14316 258236.480000
  10209  10215     1   0.14233 265014.560000
  10218  10219     1   0.15375 251793.120000
  10218  10232     1   0.15375 251793.120000
  10218  10240     1   0.14316 258236.480000
  10219  10222     1   0.15375 251793.120000
  10219  10231     1   0.14233 265014.560000
  10222  10223     1   0.15375 251793.120000
  10222  10230     1   0.14233 265014.560000
  10223  10224     1   0.15375 251793.120000
  10223  10229     1   0.14233 265014.560000
  10224  10228     1   0.14316 258236.480000
  10224  10240     1   0.14316 258236.480000
  10232  10238     1   0.14233 265014.560000
  10241  10242     1   0.15375 251793.120000
  10241  10255     1   0.15375 251793.120000
  10241  10263     1   0.14316 258236.480000
  10242  10245     1   0.15375 251793.120000
  10242  10254     1   0.14233 265014.560000
  10245  10246     1   0.15375 251793.120000
  10245  10253     1   0.14233 265014.560000
  10246  10247     1   0.15375 251793.120000
  10246  10252     1   0.14233 265014.560000
  10247  10251     1   0.14316 258236.480000
  10247  10263     1   0.14316 258236.480000
  10255  10261     1   0.14233 265014.560000
  10264  10265     1   0.15375 251793.120000
  10264  10278     1   0.15375 251793.120000
  10264  10286     1   0.14316 258236.480000
  10265  10268     1   0.15375 251793.120000
  10265  10277     1   0.14233 265014.560000
  10268  10269     1   0.15375 251793.120000
  10268  10276     1   0.14233 265014.560000
  10269  10270     1   0.15375 251793.120000
  10269  10275     1   0.14233 265014.560000
  10270  10274     1   0.14316 258236.480000
  10270  10286     1   0.14316 258236.480000
  10278  10284     1   0.14233 265014.560000
  10287  10288     1   0.15375 251793.120000
  10287  10301     1   0.15375 251793.120000
  10287  10309     1   0.14316 258236.480000
  10288  10291     1   0.15375 251793.120000
  10288  10300     1   0.14233 265014.560000
  10291  10292     1   0.15375 251793.120000
  10291  10299     1   0.14233 265014.560000
  10292  10293     1   0.15375 251793.120000
  10292  10298     1   0.14233 265014.560000
  10293  10297     1   0.14316 258236.480000
  10293  10309     1   0.14316 258236.480000
  10301  10307     1   0.14233 265014.560000
  10310  10311     1   0.15375 251793.120000
  10310  10324     1   0.15375 251793.120000
  10310  10332     1   0.14316 258236.480000
  10311  10314     1   0.15375 251793.120000
  10311  10323     1   0.14233 265014.560000
  10314  10315     1   0.15375 251793.120000
  10314  10322     1   0.14233 265014.560000
  10315  10316     1   0.15375 251793.120000
  10315  10321     1   0.14233 265014.560000
  10316  10320     1   0.14316 258236.480000
  10316  10332     1   0.14316 258236.480000
  10324  10330     1   0.14233 265014.560000
  10333  10334     1   0.15375 251793.120000
  10333  10347     1   0.15375 251793.120000
  10333  10355     1   0.14316 258236.480000
  10334  10337     1   0.15375 251793.120000
  10334  10346     1   0.14233 265014.560000
  10337  10338     1   0.15375 251793.120000
  10337  10345     1   0.14233 265014.560000
  10338  10339     1   0.15375 251793.120000
  10338  10344     1   0.14233 265014.560000
  10339  10343     1   0.14316 258236.480000
  10339  10355     1   0.14316 258236.480000
  10347  10353     1   0.14233 265014.560000
  10356  10357     1   0.15375 251793.120000
  10356  10370     1   0.15375 251793.120000
  10356  10378     1   0.14316 258236.480000
  10357  10360     1   0.15375 251793.120000
  10357  10369     1   0.14233 265014.560000
  10360  10361     1   0.15375 251793.120000
  10360  10368     1   0.14233 265014.560000
  10361  10362     1   0.15375 251793.120000
  10361  10367     1   0.14233 265014.560000
  10362  10366     1   0.14316 258236.480000
  10362  10378     1   0.14316 258236.480000
  10370  10376     1   0.14233 265014.560000
  10379  10380     1   0.15375 251793.120000
  10379  10393     1   0.15375 251793.120000
  10379  10401     1   0.14316 258236.480000
  10380  10383     1   0.15375 251793.120000
  10380  10392     1   0.14233 265014.560000
  10383  10384     1   0.15375 251793.120000
  10383  10391     1   0.14233 265014.560000
  10384  10385     1   0.15375 251793.120000
  10384  10390     1   0.14233 265014.560000
  10385  10389     1   0.14316 258236.480000
  10385  10401     1   0.14316 258236.480000
  10393  10399     1   0.14233 265014.560000
  10402  10403     1   0.15375 251793.120000
  10402  10416     1   0.15375 251793.120000
  10402  10424     1   0.14316 258236.480000
  10403  10406     1   0.15375 251793.120000
  10403  10415     1   0.14233 265014.560000
  10406  10407     1   0.15375 251793.120000
  10406  10414     1   0.14233 265014.560000
  10407  10408     1   0.15375 251793.120000
  10407  10413     1   0.14233 265014.560000
  10408  10412     1   0.14316 258236.480000
  10408  10424     1   0.14316 258236.480000
  10416  10422     1   0.14233 265014.560000
  10425  10426     1   0.15375 251793.120000
  10425  10439     1   0.15375 251793.120000
  10425  10447     1   0.14316 258236.480000
  10426  10429     1   0.15375 251793.120000
  10426  10438     1   0.14233 265014.560000
  10429  10430     1   0.15375 251793.120000
  10429  10437     1   0.14233 265014.560000
  10430  10431     1   0.15375 251793.120000
  10430  10436     1   0.14233 265014.560000
  10431  10435     1   0.14316 258236.480000
  10431  10447     1   0.14316 258236.480000
  10439  10445     1   0.14233 265014.560000
  10448  10449     1   0.15375 251793.120000
  10448  10462     1   0.15375 251793.120000
  10448  10470     1   0.14316 258236.480000
  10449  10452     1   0.15375 251793.120000
  10449  10461     1   0.14233 265014.560000
  10452  10453     1   0.15375 251793.120000
  10452  10460     1   0.14233 265014.560000
  10453  10454     1   0.15375 251793.120000
  10453  10459     1   0.14233 265014.560000
  10454  10458     1   0.14316 258236.480000
  10454  10470     1   0.14316 258236.480000
  10462  10468     1   0.14233 265014.560000
  10471  10472     1   0.15375 251793.120000
  10471  10485     1   0.15375 251793.120000
  10471  10493     1   0.14316 258236.480000
  10472  10475     1   0.15375 251793.120000
  10472  10484     1   0.14233 265014.560000
  10475  10476     1   0.15375 251793.120000
  10475  10483     1   0.14233 265014.560000
  10476  10477     1   0.15375 251793.120000
  10476  10482     1   0.14233 265014.560000
  10477  10481     1   0.14316 258236.480000
  10477  10493     1   0.14316 258236.480000
  10485  10491     1   0.14233 265014.560000
  10494  10495     1   0.15375 251793.120000
  10494  10508     1   0.15375 251793.120000
  10494  10516     1   0.14316 258236.480000
  10495  10498     1   0.15375 251793.120000
  10495  10507     1   0.14233 265014.560000
  10498  10499     1   0.15375 251793.120000
  10498  10506     1   0.14233 265014.560000
  10499  10500     1   0.15375 251793.120000
  10499  10505     1   0.14233 265014.560000
  10500  10504     1   0.14316 258236.480000
  10500  10516     1   0.14316 258236.480000
  10508  10514     1   0.14233 265014.560000
  10517  10518     1   0.15375 251793.120000
  10517  10531     1   0.15375 251793.120000
  10517  10539     1   0.14316 258236.480000
  10518  10521     1   0.15375 251793.120000
  10518  10530     1   0.14233 265014.560000
  10521  10522     1   0.15375 251793.120000
  10521  10529     1   0.14233 265014.560000
  10522  10523     1   0.15375 251793.120000
  10522  10528     1   0.14233 265014.560000
  10523  10527     1   0.14316 258236.480000
  10523  10539     1   0.14316 258236.480000
  10531  10537     1   0.14233 265014.560000
  10540  10541     1   0.15375 251793.120000
  10540  10554     1   0.15375 251793.120000
  10540  10562     1   0.14316 258236.480000
  10541  10544     1   0.15375 251793.120000
  10541  10553     1   0.14233 265014.560000
  10544  10545     1   0.15375 251793.120000
  10544  10552     1   0.14233 265014.560000
  10545  10546     1   0.15375 251793.120000
  10545  10551     1   0.14233 265014.560000
  10546  10550     1   0.14316 258236.480000
  10546  10562     1   0.14316 258236.480000
  10554  10560     1   0.14233 265014.560000
  10563  10564     1   0.15375 251793.120000
  10563  10577     1   0.15375 251793.120000
  10563  10585     1   0.14316 258236.480000
  10564  10567     1   0.15375 251793.120000
  10564  10576     1   0.14233 265014.560000
  10567  10568     1   0.15375 251793.120000
  10567  10575     1   0.14233 265014.560000
  10568  10569     1   0.15375 251793.120000
  10568  10574     1   0.14233 265014.560000
  10569  10573     1   0.14316 258236.480000
  10569  10585     1   0.14316 258236.480000
  10577  10583     1   0.14233 265014.560000
  10586  10587     1   0.15375 251793.120000
  10586  10600     1   0.15375 251793.120000
  10586  10608     1   0.14316 258236.480000
  10587  10590     1   0.15375 251793.120000
  10587  10599     1   0.14233 265014.560000
  10590  10591     1   0.15375 251793.120000
  10590  10598     1   0.14233 265014.560000
  10591  10592     1   0.15375 251793.120000
  10591  10597     1   0.14233 265014.560000
  10592  10596     1   0.14316 258236.480000
  10592  10608     1   0.14316 258236.480000
  10600  10606     1   0.14233 265014.560000
  10609  10610     1   0.15375 251793.120000
  10609  10623     1   0.15375 251793.120000
  10609  10631     1   0.14316 258236.480000
  10610  10613     1   0.15375 251793.120000
  10610  10622     1   0.14233 265014.560000
  10613  10614     1   0.15375 251793.120000
  10613  10621     1   0.14233 265014.560000
  10614  10615     1   0.15375 251793.120000
  10614  10620     1   0.14233 265014.560000
  10615  10619     1   0.14316 258236.480000
  10615  10631     1   0.14316 258236.480000
  10623  10629     1   0.14233 265014.560000
  10632  10633     1   0.15375 251793.120000
  10632  10646     1   0.15375 251793.120000
  10632  10654     1   0.14316 258236.480000
  10633  10636     1   0.15375 251793.120000
  10633  10645     1   0.14233 265014.560000
  10636  10637     1   0.15375 251793.120000
  10636  10644     1   0.14233 265014.560000
  10637  10638     1   0.15375 251793.120000
  10637  10643     1   0.14233 265014.560000
  10638  10642     1   0.14316 258236.480000
  10638  10654     1   0.14316 258236.480000
  10646  10652     1   0.14233 265014.560000
  10655  10656     1   0.15375 251793.120000
  10655  10669     1   0.15375 251793.120000
  10655  10677     1   0.14316 258236.480000
  10656  10659     1   0.15375 251793.120000
  10656  10668     1   0.14233 265014.560000
  10659  10660     1   0.15375 251793.120000
  10659  10667     1   0.14233 265014.560000
  10660  10661     1   0.15375 251793.120000
  10660  10666     1   0.14233 265014.560000
  10661  10665     1   0.14316 258236.480000
  10661  10677     1   0.14316 258236.480000
  10669  10675     1   0.14233 265014.560000
  10678  10679     1   0.15375 251793.120000
  10678  10692     1   0.15375 251793.120000
  10678  10700     1   0.14316 258236.480000
  10679  10682     1   0.15375 251793.120000
  10679  10691     1   0.14233 265014.560000
  10682  10683     1   0.15375 251793.120000
  10682  10690     1   0.14233 265014.560000
  10683  10684     1   0.15375 251793.120000
  10683  10689     1   0.14233 265014.560000
  10684  10688     1   0.14316 258236.480000
  10684  10700     1   0.14316 258236.480000
  10692  10698     1   0.14233 265014.560000
  10701  10702     1   0.15375 251793.120000
  10701  10715     1   0.15375 251793.120000
  10701  10723     1   0.14316 258236.480000
  10702  10705     1   0.15375 251793.120000
  10702  10714     1   0.14233 265014.560000
  10705  10706     1   0.15375 251793.120000
  10705  10713     1   0.14233 265014.560000
  10706  10707     1   0.15375 251793.120000
  10706  10712     1   0.14233 265014.560000
  10707  10711     1   0.14316 258236.480000
  10707  10723     1   0.14316 258236.480000
  10715  10721     1   0.14233 265014.560000
  10724  10725     1   0.15375 251793.120000
  10724  10738     1   0.15375 251793.120000
  10724  10746     1   0.14316 258236.480000
  10725  10728     1   0.15375 251793.120000
  10725  10737     1   0.14233 265014.560000
  10728  10729     1   0.15375 251793.120000
  10728  10736     1   0.14233 265014.560000
  10729  10730     1   0.15375 251793.120000
  10729  10735     1   0.14233 265014.560000
  10730  10734     1   0.14316 258236.480000
  10730  10746     1   0.14316 258236.480000
  10738  10744     1   0.14233 265014.560000
  10747  10748     1   0.15375 251793.120000
  10747  10761     1   0.15375 251793.120000
  10747  10769     1   0.14316 258236.480000
  10748  10751     1   0.15375 251793.120000
  10748  10760     1   0.14233 265014.560000
  10751  10752     1   0.15375 251793.120000
  10751  10759     1   0.14233 265014.560000
  10752  10753     1   0.15375 251793.120000
  10752  10758     1   0.14233 265014.560000
  10753  10757     1   0.14316 258236.480000
  10753  10769     1   0.14316 258236.480000
  10761  10767     1   0.14233 265014.560000
  10770  10771     1   0.15375 251793.120000
  10770  10784     1   0.15375 251793.120000
  10770  10792     1   0.14316 258236.480000
  10771  10774     1   0.15375 251793.120000
  10771  10783     1   0.14233 265014.560000
  10774  10775     1   0.15375 251793.120000
  10774  10782     1   0.14233 265014.560000
  10775  10776     1   0.15375 251793.120000
  10775  10781     1   0.14233 265014.560000
  10776  10780     1   0.14316 258236.480000
  10776  10792     1   0.14316 258236.480000
  10784  10790     1   0.14233 265014.560000
  10793  10794     1   0.15375 251793.120000
  10793  10807     1   0.15375 251793.120000
  10793  10815     1   0.14316 258236.480000
  10794  10797     1   0.15375 251793.120000
  10794  10806     1   0.14233 265014.560000
  10797  10798     1   0.15375 251793.120000
  10797  10805     1   0.14233 265014.560000
  10798  10799     1   0.15375 251793.120000
  10798  10804     1   0.14233 265014.560000
  10799  10803     1   0.14316 258236.480000
  10799  10815     1   0.14316 258236.480000
  10807  10813     1   0.14233 265014.560000
  10816  10817     1   0.15375 251793.120000
  10816  10830     1   0.15375 251793.120000
  10816  10838     1   0.14316 258236.480000
  10817  10820     1   0.15375 251793.120000
  10817  10829     1   0.14233 265014.560000
  10820  10821     1   0.15375 251793.120000
  10820  10828     1   0.14233 265014.560000
  10821  10822     1   0.15375 251793.120000
  10821  10827     1   0.14233 265014.560000
  10822  10826     1   0.14316 258236.480000
  10822  10838     1   0.14316 258236.480000
  10830  10836     1   0.14233 265014.560000
  10839  10840     1   0.15375 251793.120000
  10839  10853     1   0.15375 251793.120000
  10839  10861     1   0.14316 258236.480000
  10840  10843     1   0.15375 251793.120000
  10840  10852     1   0.14233 265014.560000
  10843  10844     1   0.15375 251793.120000
  10843  10851     1   0.14233 265014.560000
  10844  10845     1   0.15375 251793.120000
  10844  10850     1   0.14233 265014.560000
  10845  10849     1   0.14316 258236.480000
  10845  10861     1   0.14316 258236.480000
  10853  10859     1   0.14233 265014.560000
  10862  10863     1   0.15375 251793.120000
  10862  10876     1   0.15375 251793.120000
  10862  10884     1   0.14316 258236.480000
  10863  10866     1   0.15375 251793.120000
  10863  10875     1   0.14233 265014.560000
  10866  10867     1   0.15375 251793.120000
  10866  10874     1   0.14233 265014.560000
  10867  10868     1   0.15375 251793.120000
  10867  10873     1   0.14233 265014.560000
  10868  10872     1   0.14316 258236.480000
  10868  10884     1   0.14316 258236.480000
  10876  10882     1   0.14233 265014.560000
  10885  10886     1   0.15375 251793.120000
  10885  10899     1   0.15375 251793.120000
  10885  10907     1   0.14316 258236.480000
  10886  10889     1   0.15375 251793.120000
  10886  10898     1   0.14233 265014.560000
  10889  10890     1   0.15375 251793.120000
  10889  10897     1   0.14233 265014.560000
  10890  10891     1   0.15375 251793.120000
  10890  10896     1   0.14233 265014.560000
  10891  10895     1   0.14316 258236.480000
  10891  10907     1   0.14316 258236.480000
  10899  10905     1   0.14233 265014.560000
  10908  10909     1   0.15375 251793.120000
  10908  10922     1   0.15375 251793.120000
  10908  10930     1   0.14316 258236.480000
  10909  10912     1   0.15375 251793.120000
  10909  10921     1   0.14233 265014.560000
  10912  10913     1   0.15375 251793.120000
  10912  10920     1   0.14233 265014.560000
  10913  10914     1   0.15375 251793.120000
  10913  10919     1   0.14233 265014.560000
  10914  10918     1   0.14316 258236.480000
  10914  10930     1   0.14316 258236.480000
  10922  10928     1   0.14233 265014.560000
  10931  10932     1   0.15375 251793.120000
  10931  10945     1   0.15375 251793.120000
  10931  10953     1   0.14316 258236.480000
  10932  10935     1   0.15375 251793.120000
  10932  10944     1   0.14233 265014.560000
  10935  10936     1   0.15375 251793.120000
  10935  10943     1   0.14233 265014.560000
  10936  10937     1   0.15375 251793.120000
  10936  10942     1   0.14233 265014.560000
  10937  10941     1   0.14316 258236.480000
  10937  10953     1   0.14316 258236.480000
  10945  10951     1   0.14233 265014.560000
  10954  10955     1   0.15375 251793.120000
  10954  10968     1   0.15375 251793.120000
  10954  10976     1   0.14316 258236.480000
  10955  10958     1   0.15375 251793.120000
  10955  10967     1   0.14233 265014.560000
  10958  10959     1   0.15375 251793.120000
  10958  10966     1   0.14233 265014.560000
  10959  10960     1   0.15375 251793.120000
  10959  10965     1   0.14233 265014.560000
  10960  10964     1   0.14316 258236.480000
  10960  10976     1   0.14316 258236.480000
  10968  10974     1   0.14233 265014.560000
  10977  10978     1   0.15375 251793.120000
  10977  10991     1   0.15375 251793.120000
  10977  10999     1   0.14316 258236.480000
  10978  10981     1   0.15375 251793.120000
  10978  10990     1   0.14233 265014.560000
  10981  10982     1   0.15375 251793.120000
  10981  10989     1   0.14233 265014.560000
  10982  10983     1   0.15375 251793.120000
  10982  10988     1   0.14233 265014.560000
  10983  10987     1   0.14316 258236.480000
  10983  10999     1   0.14316 258236.480000
  10991  10997     1   0.14233 265014.560000
  11000  11001     1   0.15375 251793.120000
  11000  11014     1   0.15375 251793.120000
  11000  11022     1   0.14316 258236.480000
  11001  11004     1   0.15375 251793.120000
  11001  11013     1   0.14233 265014.560000
  11004  11005     1   0.15375 251793.120000
  11004  11012     1   0.14233 265014.560000
  11005  11006     1   0.15375 251793.120000
  11005  11011     1   0.14233 265014.560000
  11006  11010     1   0.14316 258236.480000
  11006  11022     1   0.14316 258236.480000
  11014  11020     1   0.14233 265014.560000
  11023  11024     1   0.15375 251793.120000
  11023  11037     1   0.15375 251793.120000
  11023  11045     1   0.14316 258236.480000
  11024  11027     1   0.15375 251793.120000
  11024  11036     1   0.14233 265014.560000
  11027  11028     1   0.15375 251793.120000
  11027  11035     1   0.14233 265014.560000
  11028  11029     1   0.15375 251793.120000
  11028  11034     1   0.14233 265014.560000
  11029  11033     1   0.14316 258236.480000
  11029  11045     1   0.14316 258236.480000
  11037  11043     1   0.14233 265014.560000
  11046  11047     1   0.15375 251793.120000
  11046  11060     1   0.15375 251793.120000
  11046  11068     1   0.14316 258236.480000
  11047  11050     1   0.15375 251793.120000
  11047  11059     1   0.14233 265014.560000
  11050  11051     1   0.15375 251793.120000
  11050  11058     1   0.14233 265014.560000
  11051  11052     1   0.15375 251793.120000
  11051  11057     1   0.14233 265014.560000
  11052  11056     1   0.14316 258236.480000
  11052  11068     1   0.14316 258236.480000
  11060  11066     1   0.14233 265014.560000
  11069  11070     1   0.15375 251793.120000
  11069  11083     1   0.15375 251793.120000
  11069  11091     1   0.14316 258236.480000
  11070  11073     1   0.15375 251793.120000
  11070  11082     1   0.14233 265014.560000
  11073  11074     1   0.15375 251793.120000
  11073  11081     1   0.14233 265014.560000
  11074  11075     1   0.15375 251793.120000
  11074  11080     1   0.14233 265014.560000
  11075  11079     1   0.14316 258236.480000
  11075  11091     1   0.14316 258236.480000
  11083  11089     1   0.14233 265014.560000
  11092  11093     1   0.15375 251793.120000
  11092  11106     1   0.15375 251793.120000
  11092  11114     1   0.14316 258236.480000
  11093  11096     1   0.15375 251793.120000
  11093  11105     1   0.14233 265014.560000
  11096  11097     1   0.15375 251793.120000
  11096  11104     1   0.14233 265014.560000
  11097  11098     1   0.15375 251793.120000
  11097  11103     1   0.14233 265014.560000
  11098  11102     1   0.14316 258236.480000
  11098  11114     1   0.14316 258236.480000
  11106  11112     1   0.14233 265014.560000
  11115  11116     1   0.15375 251793.120000
  11115  11129     1   0.15375 251793.120000
  11115  11137     1   0.14316 258236.480000
  11116  11119     1   0.15375 251793.120000
  11116  11128     1   0.14233 265014.560000
  11119  11120     1   0.15375 251793.120000
  11119  11127     1   0.14233 265014.560000
  11120  11121     1   0.15375 251793.120000
  11120  11126     1   0.14233 265014.560000
  11121  11125     1   0.14316 258236.480000
  11121  11137     1   0.14316 258236.480000
  11129  11135     1   0.14233 265014.560000
  11138  11139     1   0.15375 251793.120000
  11138  11152     1   0.15375 251793.120000
  11138  11160     1   0.14316 258236.480000
  11139  11142     1   0.15375 251793.120000
  11139  11151     1   0.14233 265014.560000
  11142  11143     1   0.15375 251793.120000
  11142  11150     1   0.14233 265014.560000
  11143  11144     1   0.15375 251793.120000
  11143  11149     1   0.14233 265014.560000
  11144  11148     1   0.14316 258236.480000
  11144  11160     1   0.14316 258236.480000
  11152  11158     1   0.14233 265014.560000
  11161  11162     1   0.15375 251793.120000
  11161  11175     1   0.15375 251793.120000
  11161  11183     1   0.14316 258236.480000
  11162  11165     1   0.15375 251793.120000
  11162  11174     1   0.14233 265014.560000
  11165  11166     1   0.15375 251793.120000
  11165  11173     1   0.14233 265014.560000
  11166  11167     1   0.15375 251793.120000
  11166  11172     1   0.14233 265014.560000
  11167  11171     1   0.14316 258236.480000
  11167  11183     1   0.14316 258236.480000
  11175  11181     1   0.14233 265014.560000
  11184  11185     1   0.15375 251793.120000
  11184  11198     1   0.15375 251793.120000
  11184  11206     1   0.14316 258236.480000
  11185  11188     1   0.15375 251793.120000
  11185  11197     1   0.14233 265014.560000
  11188  11189     1   0.15375 251793.120000
  11188  11196     1   0.14233 265014.560000
  11189  11190     1   0.15375 251793.120000
  11189  11195     1   0.14233 265014.560000
  11190  11194     1   0.14316 258236.480000
  11190  11206     1   0.14316 258236.480000
  11198  11204     1   0.14233 265014.560000
  11207  11208     1   0.15375 251793.120000
  11207  11221     1   0.15375 251793.120000
  11207  11229     1   0.14316 258236.480000
  11208  11211     1   0.15375 251793.120000
  11208  11220     1   0.14233 265014.560000
  11211  11212     1   0.15375 251793.120000
  11211  11219     1   0.14233 265014.560000
  11212  11213     1   0.15375 251793.120000
  11212  11218     1   0.14233 265014.560000
  11213  11217     1   0.14316 258236.480000
  11213  11229     1   0.14316 258236.480000
  11221  11227     1   0.14233 265014.560000
  11230  11231     1   0.15375 251793.120000
  11230  11244     1   0.15375 251793.120000
  11230  11252     1   0.14316 258236.480000
  11231  11234     1   0.15375 251793.120000
  11231  11243     1   0.14233 265014.560000
  11234  11235     1   0.15375 251793.120000
  11234  11242     1   0.14233 265014.560000
  11235  11236     1   0.15375 251793.120000
  11235  11241     1   0.14233 265014.560000
  11236  11240     1   0.14316 258236.480000
  11236  11252     1   0.14316 258236.480000
  11244  11250     1   0.14233 265014.560000
  11253  11254     1   0.15375 251793.120000
  11253  11267     1   0.15375 251793.120000
  11253  11275     1   0.14316 258236.480000
  11254  11257     1   0.15375 251793.120000
  11254  11266     1   0.14233 265014.560000
  11257  11258     1   0.15375 251793.120000
  11257  11265     1   0.14233 265014.560000
  11258  11259     1   0.15375 251793.120000
  11258  11264     1   0.14233 265014.560000
  11259  11263     1   0.14316 258236.480000
  11259  11275     1   0.14316 258236.480000
  11267  11273     1   0.14233 265014.560000
  11276  11277     1   0.15375 251793.120000
  11276  11290     1   0.15375 251793.120000
  11276  11298     1   0.14316 258236.480000
  11277  11280     1   0.15375 251793.120000
  11277  11289     1   0.14233 265014.560000
  11280  11281     1   0.15375 251793.120000
  11280  11288     1   0.14233 265014.560000
  11281  11282     1   0.15375 251793.120000
  11281  11287     1   0.14233 265014.560000
  11282  11286     1   0.14316 258236.480000
  11282  11298     1   0.14316 258236.480000
  11290  11296     1   0.14233 265014.560000
  11299  11300     1   0.15375 251793.120000
  11299  11313     1   0.15375 251793.120000
  11299  11321     1   0.14316 258236.480000
  11300  11303     1   0.15375 251793.120000
  11300  11312     1   0.14233 265014.560000
  11303  11304     1   0.15375 251793.120000
  11303  11311     1   0.14233 265014.560000
  11304  11305     1   0.15375 251793.120000
  11304  11310     1   0.14233 265014.560000
  11305  11309     1   0.14316 258236.480000
  11305  11321     1   0.14316 258236.480000
  11313  11319     1   0.14233 265014.560000
  11322  11323     1   0.15375 251793.120000
  11322  11336     1   0.15375 251793.120000
  11322  11344     1   0.14316 258236.480000
  11323  11326     1   0.15375 251793.120000
  11323  11335     1   0.14233 265014.560000
  11326  11327     1   0.15375 251793.120000
  11326  11334     1   0.14233 265014.560000
  11327  11328     1   0.15375 251793.120000
  11327  11333     1   0.14233 265014.560000
  11328  11332     1   0.14316 258236.480000
  11328  11344     1   0.14316 258236.480000
  11336  11342     1   0.14233 265014.560000
  11345  11346     1   0.15375 251793.120000
  11345  11359     1   0.15375 251793.120000
  11345  11367     1   0.14316 258236.480000
  11346  11349     1   0.15375 251793.120000
  11346  11358     1   0.14233 265014.560000
  11349  11350     1   0.15375 251793.120000
  11349  11357     1   0.14233 265014.560000
  11350  11351     1   0.15375 251793.120000
  11350  11356     1   0.14233 265014.560000
  11351  11355     1   0.14316 258236.480000
  11351  11367     1   0.14316 258236.480000
  11359  11365     1   0.14233 265014.560000
  11368  11369     1   0.15375 251793.120000
  11368  11382     1   0.15375 251793.120000
  11368  11390     1   0.14316 258236.480000
  11369  11372     1   0.15375 251793.120000
  11369  11381     1   0.14233 265014.560000
  11372  11373     1   0.15375 251793.120000
  11372  11380     1   0.14233 265014.560000
  11373  11374     1   0.15375 251793.120000
  11373  11379     1   0.14233 265014.560000
  11374  11378     1   0.14316 258236.480000
  11374  11390     1   0.14316 258236.480000
  11382  11388     1   0.14233 265014.560000
  11391  11392     1   0.15375 251793.120000
  11391  11405     1   0.15375 251793.120000
  11391  11413     1   0.14316 258236.480000
  11392  11395     1   0.15375 251793.120000
  11392  11404     1   0.14233 265014.560000
  11395  11396     1   0.15375 251793.120000
  11395  11403     1   0.14233 265014.560000
  11396  11397     1   0.15375 251793.120000
  11396  11402     1   0.14233 265014.560000
  11397  11401     1   0.14316 258236.480000
  11397  11413     1   0.14316 258236.480000
  11405  11411     1   0.14233 265014.560000
  11414  11415     1   0.15375 251793.120000
  11414  11428     1   0.15375 251793.120000
  11414  11436     1   0.14316 258236.480000
  11415  11418     1   0.15375 251793.120000
  11415  11427     1   0.14233 265014.560000
  11418  11419     1   0.15375 251793.120000
  11418  11426     1   0.14233 265014.560000
  11419  11420     1   0.15375 251793.120000
  11419  11425     1   0.14233 265014.560000
  11420  11424     1   0.14316 258236.480000
  11420  11436     1   0.14316 258236.480000
  11428  11434     1   0.14233 265014.560000
  11437  11438     1   0.15375 251793.120000
  11437  11451     1   0.15375 251793.120000
  11437  11459     1   0.14316 258236.480000
  11438  11441     1   0.15375 251793.120000
  11438  11450     1   0.14233 265014.560000
  11441  11442     1   0.15375 251793.120000
  11441  11449     1   0.14233 265014.560000
  11442  11443     1   0.15375 251793.120000
  11442  11448     1   0.14233 265014.560000
  11443  11447     1   0.14316 258236.480000
  11443  11459     1   0.14316 258236.480000
  11451  11457     1   0.14233 265014.560000
  11460  11461     1   0.15375 251793.120000
  11460  11474     1   0.15375 251793.120000
  11460  11482     1   0.14316 258236.480000
  11461  11464     1   0.15375 251793.120000
  11461  11473     1   0.14233 265014.560000
  11464  11465     1   0.15375 251793.120000
  11464  11472     1   0.14233 265014.560000
  11465  11466     1   0.15375 251793.120000
  11465  11471     1   0.14233 265014.560000
  11466  11470     1   0.14316 258236.480000
  11466  11482     1   0.14316 258236.480000
  11474  11480     1   0.14233 265014.560000
  11483  11484     1   0.15375 251793.120000
  11483  11497     1   0.15375 251793.120000
  11483  11505     1   0.14316 258236.480000
  11484  11487     1   0.15375 251793.120000
  11484  11496     1   0.14233 265014.560000
  11487  11488     1   0.15375 251793.120000
  11487  11495     1   0.14233 265014.560000
  11488  11489     1   0.15375 251793.120000
  11488  11494     1   0.14233 265014.560000
  11489  11493     1   0.14316 258236.480000
  11489  11505     1   0.14316 258236.480000
  11497  11503     1   0.14233 265014.560000
  11506  11507     1   0.15375 251793.120000
  11506  11520     1   0.15375 251793.120000
  11506  11528     1   0.14316 258236.480000
  11507  11510     1   0.15375 251793.120000
  11507  11519     1   0.14233 265014.560000
  11510  11511     1   0.15375 251793.120000
  11510  11518     1   0.14233 265014.560000
  11511  11512     1   0.15375 251793.120000
  11511  11517     1   0.14233 265014.560000
  11512  11516     1   0.14316 258236.480000
  11512  11528     1   0.14316 258236.480000
  11520  11526     1   0.14233 265014.560000
  11529  11530     1   0.15375 251793.120000
  11529  11543     1   0.15375 251793.120000
  11529  11551     1   0.14316 258236.480000
  11530  11533     1   0.15375 251793.120000
  11530  11542     1   0.14233 265014.560000
  11533  11534     1   0.15375 251793.120000
  11533  11541     1   0.14233 265014.560000
  11534  11535     1   0.15375 251793.120000
  11534  11540     1   0.14233 265014.560000
  11535  11539     1   0.14316 258236.480000
  11535  11551     1   0.14316 258236.480000
  11543  11549     1   0.14233 265014.560000
  11552  11553     1   0.15375 251793.120000
  11552  11566     1   0.15375 251793.120000
  11552  11574     1   0.14316 258236.480000
  11553  11556     1   0.15375 251793.120000
  11553  11565     1   0.14233 265014.560000
  11556  11557     1   0.15375 251793.120000
  11556  11564     1   0.14233 265014.560000
  11557  11558     1   0.15375 251793.120000
  11557  11563     1   0.14233 265014.560000
  11558  11562     1   0.14316 258236.480000
  11558  11574     1   0.14316 258236.480000
  11566  11572     1   0.14233 265014.560000
  11575  11576     1   0.15375 251793.120000
  11575  11589     1   0.15375 251793.120000
  11575  11597     1   0.14316 258236.480000
  11576  11579     1   0.15375 251793.120000
  11576  11588     1   0.14233 265014.560000
  11579  11580     1   0.15375 251793.120000
  11579  11587     1   0.14233 265014.560000
  11580  11581     1   0.15375 251793.120000
  11580  11586     1   0.14233 265014.560000
  11581  11585     1   0.14316 258236.480000
  11581  11597     1   0.14316 258236.480000
  11589  11595     1   0.14233 265014.560000
  11598  11599     1   0.15375 251793.120000
  11598  11612     1   0.15375 251793.120000
  11598  11620     1   0.14316 258236.480000
  11599  11602     1   0.15375 251793.120000
  11599  11611     1   0.14233 265014.560000
  11602  11603     1   0.15375 251793.120000
  11602  11610     1   0.14233 265014.560000
  11603  11604     1   0.15375 251793.120000
  11603  11609     1   0.14233 265014.560000
  11604  11608     1   0.14316 258236.480000
  11604  11620     1   0.14316 258236.480000
  11612  11618     1   0.14233 265014.560000
  11621  11622     1   0.15375 251793.120000
  11621  11635     1   0.15375 251793.120000
  11621  11643     1   0.14316 258236.480000
  11622  11625     1   0.15375 251793.120000
  11622  11634     1   0.14233 265014.560000
  11625  11626     1   0.15375 251793.120000
  11625  11633     1   0.14233 265014.560000
  11626  11627     1   0.15375 251793.120000
  11626  11632     1   0.14233 265014.560000
  11627  11631     1   0.14316 258236.480000
  11627  11643     1   0.14316 258236.480000
  11635  11641     1   0.14233 265014.560000
  11644  11645     1   0.15375 251793.120000
  11644  11658     1   0.15375 251793.120000
  11644  11666     1   0.14316 258236.480000
  11645  11648     1   0.15375 251793.120000
  11645  11657     1   0.14233 265014.560000
  11648  11649     1   0.15375 251793.120000
  11648  11656     1   0.14233 265014.560000
  11649  11650     1   0.15375 251793.120000
  11649  11655     1   0.14233 265014.560000
  11650  11654     1   0.14316 258236.480000
  11650  11666     1   0.14316 258236.480000
  11658  11664     1   0.14233 265014.560000
  11667  11668     1   0.15375 251793.120000
  11667  11681     1   0.15375 251793.120000
  11667  11689     1   0.14316 258236.480000
  11668  11671     1   0.15375 251793.120000
  11668  11680     1   0.14233 265014.560000
  11671  11672     1   0.15375 251793.120000
  11671  11679     1   0.14233 265014.560000
  11672  11673     1   0.15375 251793.120000
  11672  11678     1   0.14233 265014.560000
  11673  11677     1   0.14316 258236.480000
  11673  11689     1   0.14316 258236.480000
  11681  11687     1   0.14233 265014.560000
  11690  11691     1   0.15375 251793.120000
  11690  11704     1   0.15375 251793.120000
  11690  11712     1   0.14316 258236.480000
  11691  11694     1   0.15375 251793.120000
  11691  11703     1   0.14233 265014.560000
  11694  11695     1   0.15375 251793.120000
  11694  11702     1   0.14233 265014.560000
  11695  11696     1   0.15375 251793.120000
  11695  11701     1   0.14233 265014.560000
  11696  11700     1   0.14316 258236.480000
  11696  11712     1   0.14316 258236.480000
  11704  11710     1   0.14233 265014.560000
  11713  11714     1   0.15375 251793.120000
  11713  11727     1   0.15375 251793.120000
  11713  11735     1   0.14316 258236.480000
  11714  11717     1   0.15375 251793.120000
  11714  11726     1   0.14233 265014.560000
  11717  11718     1   0.15375 251793.120000
  11717  11725     1   0.14233 265014.560000
  11718  11719     1   0.15375 251793.120000
  11718  11724     1   0.14233 265014.560000
  11719  11723     1   0.14316 258236.480000
  11719  11735     1   0.14316 258236.480000
  11727  11733     1   0.14233 265014.560000
  11736  11737     1   0.15375 251793.120000
  11736  11750     1   0.15375 251793.120000
  11736  11758     1   0.14316 258236.480000
  11737  11740     1   0.15375 251793.120000
  11737  11749     1   0.14233 265014.560000
  11740  11741     1   0.15375 251793.120000
  11740  11748     1   0.14233 265014.560000
  11741  11742     1   0.15375 251793.120000
  11741  11747     1   0.14233 265014.560000
  11742  11746     1   0.14316 258236.480000
  11742  11758     1   0.14316 258236.480000
  11750  11756     1   0.14233 265014.560000
  11759  11760     1   0.15375 251793.120000
  11759  11773     1   0.15375 251793.120000
  11759  11781     1   0.14316 258236.480000
  11760  11763     1   0.15375 251793.120000
  11760  11772     1   0.14233 265014.560000
  11763  11764     1   0.15375 251793.120000
  11763  11771     1   0.14233 265014.560000
  11764  11765     1   0.15375 251793.120000
  11764  11770     1   0.14233 265014.560000
  11765  11769     1   0.14316 258236.480000
  11765  11781     1   0.14316 258236.480000
  11773  11779     1   0.14233 265014.560000
  11782  11783     1   0.15375 251793.120000
  11782  11796     1   0.15375 251793.120000
  11782  11804     1   0.14316 258236.480000
  11783  11786     1   0.15375 251793.120000
  11783  11795     1   0.14233 265014.560000
  11786  11787     1   0.15375 251793.120000
  11786  11794     1   0.14233 265014.560000
  11787  11788     1   0.15375 251793.120000
  11787  11793     1   0.14233 265014.560000
  11788  11792     1   0.14316 258236.480000
  11788  11804     1   0.14316 258236.480000
  11796  11802     1   0.14233 265014.560000
  11805  11806     1   0.15375 251793.120000
  11805  11819     1   0.15375 251793.120000
  11805  11827     1   0.14316 258236.480000
  11806  11809     1   0.15375 251793.120000
  11806  11818     1   0.14233 265014.560000
  11809  11810     1   0.15375 251793.120000
  11809  11817     1   0.14233 265014.560000
  11810  11811     1   0.15375 251793.120000
  11810  11816     1   0.14233 265014.560000
  11811  11815     1   0.14316 258236.480000
  11811  11827     1   0.14316 258236.480000
  11819  11825     1   0.14233 265014.560000
  11828  11829     1   0.15375 251793.120000
  11828  11842     1   0.15375 251793.120000
  11828  11850     1   0.14316 258236.480000
  11829  11832     1   0.15375 251793.120000
  11829  11841     1   0.14233 265014.560000
  11832  11833     1   0.15375 251793.120000
  11832  11840     1   0.14233 265014.560000
  11833  11834     1   0.15375 251793.120000
  11833  11839     1   0.14233 265014.560000
  11834  11838     1   0.14316 258236.480000
  11834  11850     1   0.14316 258236.480000
  11842  11848     1   0.14233 265014.560000
  11851  11852     1   0.15375 251793.120000
  11851  11865     1   0.15375 251793.120000
  11851  11873     1   0.14316 258236.480000
  11852  11855     1   0.15375 251793.120000
  11852  11864     1   0.14233 265014.560000
  11855  11856     1   0.15375 251793.120000
  11855  11863     1   0.14233 265014.560000
  11856  11857     1   0.15375 251793.120000
  11856  11862     1   0.14233 265014.560000
  11857  11861     1   0.14316 258236.480000
  11857  11873     1   0.14316 258236.480000
  11865  11871     1   0.14233 265014.560000
  11874  11875     1   0.15375 251793.120000
  11874  11888     1   0.15375 251793.120000
  11874  11896     1   0.14316 258236.480000
  11875  11878     1   0.15375 251793.120000
  11875  11887     1   0.14233 265014.560000
  11878  11879     1   0.15375 251793.120000
  11878  11886     1   0.14233 265014.560000
  11879  11880     1   0.15375 251793.120000
  11879  11885     1   0.14233 265014.560000
  11880  11884     1   0.14316 258236.480000
  11880  11896     1   0.14316 258236.480000
  11888  11894     1   0.14233 265014.560000
  11897  11898     1   0.15375 251793.120000
  11897  11911     1   0.15375 251793.120000
  11897  11919     1   0.14316 258236.480000
  11898  11901     1   0.15375 251793.120000
  11898  11910     1   0.14233 265014.560000
  11901  11902     1   0.15375 251793.120000
  11901  11909     1   0.14233 265014.560000
  11902  11903     1   0.15375 251793.120000
  11902  11908     1   0.14233 265014.560000
  11903  11907     1   0.14316 258236.480000
  11903  11919     1   0.14316 258236.480000
  11911  11917     1   0.14233 265014.560000
  11920  11921     1   0.15375 251793.120000
  11920  11934     1   0.15375 251793.120000
  11920  11942     1   0.14316 258236.480000
  11921  11924     1   0.15375 251793.120000
  11921  11933     1   0.14233 265014.560000
  11924  11925     1   0.15375 251793.120000
  11924  11932     1   0.14233 265014.560000
  11925  11926     1   0.15375 251793.120000
  11925  11931     1   0.14233 265014.560000
  11926  11930     1   0.14316 258236.480000
  11926  11942     1   0.14316 258236.480000
  11934  11940     1   0.14233 265014.560000
  11943  11944     1   0.15375 251793.120000
  11943  11957     1   0.15375 251793.120000
  11943  11965     1   0.14316 258236.480000
  11944  11947     1   0.15375 251793.120000
  11944  11956     1   0.14233 265014.560000
  11947  11948     1   0.15375 251793.120000
  11947  11955     1   0.14233 265014.560000
  11948  11949     1   0.15375 251793.120000
  11948  11954     1   0.14233 265014.560000
  11949  11953     1   0.14316 258236.480000
  11949  11965     1   0.14316 258236.480000
  11957  11963     1   0.14233 265014.560000
  11966  11967     1   0.15375 251793.120000
  11966  11980     1   0.15375 251793.120000
  11966  11988     1   0.14316 258236.480000
  11967  11970     1   0.15375 251793.120000
  11967  11979     1   0.14233 265014.560000
  11970  11971     1   0.15375 251793.120000
  11970  11978     1   0.14233 265014.560000
  11971  11972     1   0.15375 251793.120000
  11971  11977     1   0.14233 265014.560000
  11972  11976     1   0.14316 258236.480000
  11972  11988     1   0.14316 258236.480000
  11980  11986     1   0.14233 265014.560000
  11989  11990     1   0.15375 251793.120000
  11989  12003     1   0.15375 251793.120000
  11989  12011     1   0.14316 258236.480000
  11990  11993     1   0.15375 251793.120000
  11990  12002     1   0.14233 265014.560000
  11993  11994     1   0.15375 251793.120000
  11993  12001     1   0.14233 265014.560000
  11994  11995     1   0.15375 251793.120000
  11994  12000     1   0.14233 265014.560000
  11995  11999     1   0.14316 258236.480000
  11995  12011     1   0.14316 258236.480000
  12003  12009     1   0.14233 265014.560000
  12012  12013     1   0.15375 251793.120000
  12012  12026     1   0.15375 251793.120000
  12012  12034     1   0.14316 258236.480000
  12013  12016     1   0.15375 251793.120000
  12013  12025     1   0.14233 265014.560000
  12016  12017     1   0.15375 251793.120000
  12016  12024     1   0.14233 265014.560000
  12017  12018     1   0.15375 251793.120000
  12017  12023     1   0.14233 265014.560000
  12018  12022     1   0.14316 258236.480000
  12018  12034     1   0.14316 258236.480000
  12026  12032     1   0.14233 265014.560000
  12035  12036     1   0.15375 251793.120000
  12035  12049     1   0.15375 251793.120000
  12035  12057     1   0.14316 258236.480000
  12036  12039     1   0.15375 251793.120000
  12036  12048     1   0.14233 265014.560000
  12039  12040     1   0.15375 251793.120000
  12039  12047     1   0.14233 265014.560000
  12040  12041     1   0.15375 251793.120000
  12040  12046     1   0.14233 265014.560000
  12041  12045     1   0.14316 258236.480000
  12041  12057     1   0.14316 258236.480000
  12049  12055     1   0.14233 265014.560000
  12058  12059     1   0.15375 251793.120000
  12058  12072     1   0.15375 251793.120000
  12058  12080     1   0.14316 258236.480000
  12059  12062     1   0.15375 251793.120000
  12059  12071     1   0.14233 265014.560000
  12062  12063     1   0.15375 251793.120000
  12062  12070     1   0.14233 265014.560000
  12063  12064     1   0.15375 251793.120000
  12063  12069     1   0.14233 265014.560000
  12064  12068     1   0.14316 258236.480000
  12064  12080     1   0.14316 258236.480000
  12072  12078     1   0.14233 265014.560000
  12081  12082     1   0.15375 251793.120000
  12081  12095     1   0.15375 251793.120000
  12081  12103     1   0.14316 258236.480000
  12082  12085     1   0.15375 251793.120000
  12082  12094     1   0.14233 265014.560000
  12085  12086     1   0.15375 251793.120000
  12085  12093     1   0.14233 265014.560000
  12086  12087     1   0.15375 251793.120000
  12086  12092     1   0.14233 265014.560000
  12087  12091     1   0.14316 258236.480000
  12087  12103     1   0.14316 258236.480000
  12095  12101     1   0.14233 265014.560000
  12104  12105     1   0.15375 251793.120000
  12104  12118     1   0.15375 251793.120000
  12104  12126     1   0.14316 258236.480000
  12105  12108     1   0.15375 251793.120000
  12105  12117     1   0.14233 265014.560000
  12108  12109     1   0.15375 251793.120000
  12108  12116     1   0.14233 265014.560000
  12109  12110     1   0.15375 251793.120000
  12109  12115     1   0.14233 265014.560000
  12110  12114     1   0.14316 258236.480000
  12110  12126     1   0.14316 258236.480000
  12118  12124     1   0.14233 265014.560000
  12127  12128     1   0.15375 251793.120000
  12127  12141     1   0.15375 251793.120000
  12127  12149     1   0.14316 258236.480000
  12128  12131     1   0.15375 251793.120000
  12128  12140     1   0.14233 265014.560000
  12131  12132     1   0.15375 251793.120000
  12131  12139     1   0.14233 265014.560000
  12132  12133     1   0.15375 251793.120000
  12132  12138     1   0.14233 265014.560000
  12133  12137     1   0.14316 258236.480000
  12133  12149     1   0.14316 258236.480000
  12141  12147     1   0.14233 265014.560000
  12150  12151     1   0.15375 251793.120000
  12150  12164     1   0.15375 251793.120000
  12150  12172     1   0.14316 258236.480000
  12151  12154     1   0.15375 251793.120000
  12151  12163     1   0.14233 265014.560000
  12154  12155     1   0.15375 251793.120000
  12154  12162     1   0.14233 265014.560000
  12155  12156     1   0.15375 251793.120000
  12155  12161     1   0.14233 265014.560000
  12156  12160     1   0.14316 258236.480000
  12156  12172     1   0.14316 258236.480000
  12164  12170     1   0.14233 265014.560000
  12173  12174     1   0.15375 251793.120000
  12173  12187     1   0.15375 251793.120000
  12173  12195     1   0.14316 258236.480000
  12174  12177     1   0.15375 251793.120000
  12174  12186     1   0.14233 265014.560000
  12177  12178     1   0.15375 251793.120000
  12177  12185     1   0.14233 265014.560000
  12178  12179     1   0.15375 251793.120000
  12178  12184     1   0.14233 265014.560000
  12179  12183     1   0.14316 258236.480000
  12179  12195     1   0.14316 258236.480000
  12187  12193     1   0.14233 265014.560000
  12196  12197     1   0.15375 251793.120000
  12196  12210     1   0.15375 251793.120000
  12196  12218     1   0.14316 258236.480000
  12197  12200     1   0.15375 251793.120000
  12197  12209     1   0.14233 265014.560000
  12200  12201     1   0.15375 251793.120000
  12200  12208     1   0.14233 265014.560000
  12201  12202     1   0.15375 251793.120000
  12201  12207     1   0.14233 265014.560000
  12202  12206     1   0.14316 258236.480000
  12202  12218     1   0.14316 258236.480000
  12210  12216     1   0.14233 265014.560000
  12219  12220     1   0.15375 251793.120000
  12219  12233     1   0.15375 251793.120000
  12219  12241     1   0.14316 258236.480000
  12220  12223     1   0.15375 251793.120000
  12220  12232     1   0.14233 265014.560000
  12223  12224     1   0.15375 251793.120000
  12223  12231     1   0.14233 265014.560000
  12224  12225     1   0.15375 251793.120000
  12224  12230     1   0.14233 265014.560000
  12225  12229     1   0.14316 258236.480000
  12225  12241     1   0.14316 258236.480000
  12233  12239     1   0.14233 265014.560000
  12242  12243     1   0.15375 251793.120000
  12242  12256     1   0.15375 251793.120000
  12242  12264     1   0.14316 258236.480000
  12243  12246     1   0.15375 251793.120000
  12243  12255     1   0.14233 265014.560000
  12246  12247     1   0.15375 251793.120000
  12246  12254     1   0.14233 265014.560000
  12247  12248     1   0.15375 251793.120000
  12247  12253     1   0.14233 265014.560000
  12248  12252     1   0.14316 258236.480000
  12248  12264     1   0.14316 258236.480000
  12256  12262     1   0.14233 265014.560000
  12265  12266     1   0.15375 251793.120000
  12265  12279     1   0.15375 251793.120000
  12265  12287     1   0.14316 258236.480000
  12266  12269     1   0.15375 251793.120000
  12266  12278     1   0.14233 265014.560000
  12269  12270     1   0.15375 251793.120000
  12269  12277     1   0.14233 265014.560000
  12270  12271     1   0.15375 251793.120000
  12270  12276     1   0.14233 265014.560000
  12271  12275     1   0.14316 258236.480000
  12271  12287     1   0.14316 258236.480000
  12279  12285     1   0.14233 265014.560000
  12288  12289     1   0.15375 251793.120000
  12288  12302     1   0.15375 251793.120000
  12288  12310     1   0.14316 258236.480000
  12289  12292     1   0.15375 251793.120000
  12289  12301     1   0.14233 265014.560000
  12292  12293     1   0.15375 251793.120000
  12292  12300     1   0.14233 265014.560000
  12293  12294     1   0.15375 251793.120000
  12293  12299     1   0.14233 265014.560000
  12294  12298     1   0.14316 258236.480000
  12294  12310     1   0.14316 258236.480000
  12302  12308     1   0.14233 265014.560000
  12311  12312     1   0.15375 251793.120000
  12311  12325     1   0.15375 251793.120000
  12311  12333     1   0.14316 258236.480000
  12312  12315     1   0.15375 251793.120000
  12312  12324     1   0.14233 265014.560000
  12315  12316     1   0.15375 251793.120000
  12315  12323     1   0.14233 265014.560000
  12316  12317     1   0.15375 251793.120000
  12316  12322     1   0.14233 265014.560000
  12317  12321     1   0.14316 258236.480000
  12317  12333     1   0.14316 258236.480000
  12325  12331     1   0.14233 265014.560000
  12334  12335     1   0.15375 251793.120000
  12334  12348     1   0.15375 251793.120000
  12334  12356     1   0.14316 258236.480000
  12335  12338     1   0.15375 251793.120000
  12335  12347     1   0.14233 265014.560000
  12338  12339     1   0.15375 251793.120000
  12338  12346     1   0.14233 265014.560000
  12339  12340     1   0.15375 251793.120000
  12339  12345     1   0.14233 265014.560000
  12340  12344     1   0.14316 258236.480000
  12340  12356     1   0.14316 258236.480000
  12348  12354     1   0.14233 265014.560000
  12357  12358     1   0.15375 251793.120000
  12357  12371     1   0.15375 251793.120000
  12357  12379     1   0.14316 258236.480000
  12358  12361     1   0.15375 251793.120000
  12358  12370     1   0.14233 265014.560000
  12361  12362     1   0.15375 251793.120000
  12361  12369     1   0.14233 265014.560000
  12362  12363     1   0.15375 251793.120000
  12362  12368     1   0.14233 265014.560000
  12363  12367     1   0.14316 258236.480000
  12363  12379     1   0.14316 258236.480000
  12371  12377     1   0.14233 265014.560000
  12380  12381     1   0.15375 251793.120000
  12380  12394     1   0.15375 251793.120000
  12380  12402     1   0.14316 258236.480000
  12381  12384     1   0.15375 251793.120000
  12381  12393     1   0.14233 265014.560000
  12384  12385     1   0.15375 251793.120000
  12384  12392     1   0.14233 265014.560000
  12385  12386     1   0.15375 251793.120000
  12385  12391     1   0.14233 265014.560000
  12386  12390     1   0.14316 258236.480000
  12386  12402     1   0.14316 258236.480000
  12394  12400     1   0.14233 265014.560000
  12403  12404     1   0.15375 251793.120000
  12403  12417     1   0.15375 251793.120000
  12403  12425     1   0.14316 258236.480000
  12404  12407     1   0.15375 251793.120000
  12404  12416     1   0.14233 265014.560000
  12407  12408     1   0.15375 251793.120000
  12407  12415     1   0.14233 265014.560000
  12408  12409     1   0.15375 251793.120000
  12408  12414     1   0.14233 265014.560000
  12409  12413     1   0.14316 258236.480000
  12409  12425     1   0.14316 258236.480000
  12417  12423     1   0.14233 265014.560000
  12426  12427     1   0.15375 251793.120000
  12426  12440     1   0.15375 251793.120000
  12426  12448     1   0.14316 258236.480000
  12427  12430     1   0.15375 251793.120000
  12427  12439     1   0.14233 265014.560000
  12430  12431     1   0.15375 251793.120000
  12430  12438     1   0.14233 265014.560000
  12431  12432     1   0.15375 251793.120000
  12431  12437     1   0.14233 265014.560000
  12432  12436     1   0.14316 258236.480000
  12432  12448     1   0.14316 258236.480000
  12440  12446     1   0.14233 265014.560000
  12449  12450     1   0.15375 251793.120000
  12449  12463     1   0.15375 251793.120000
  12449  12471     1   0.14316 258236.480000
  12450  12453     1   0.15375 251793.120000
  12450  12462     1   0.14233 265014.560000
  12453  12454     1   0.15375 251793.120000
  12453  12461     1   0.14233 265014.560000
  12454  12455     1   0.15375 251793.120000
  12454  12460     1   0.14233 265014.560000
  12455  12459     1   0.14316 258236.480000
  12455  12471     1   0.14316 258236.480000
  12463  12469     1   0.14233 265014.560000
  12472  12473     1   0.15375 251793.120000
  12472  12486     1   0.15375 251793.120000
  12472  12494     1   0.14316 258236.480000
  12473  12476     1   0.15375 251793.120000
  12473  12485     1   0.14233 265014.560000
  12476  12477     1   0.15375 251793.120000
  12476  12484     1   0.14233 265014.560000
  12477  12478     1   0.15375 251793.120000
  12477  12483     1   0.14233 265014.560000
  12478  12482     1   0.14316 258236.480000
  12478  12494     1   0.14316 258236.480000
  12486  12492     1   0.14233 265014.560000
  12495  12496     1   0.15375 251793.120000
  12495  12509     1   0.15375 251793.120000
  12495  12517     1   0.14316 258236.480000
  12496  12499     1   0.15375 251793.120000
  12496  12508     1   0.14233 265014.560000
  12499  12500     1   0.15375 251793.120000
  12499  12507     1   0.14233 265014.560000
  12500  12501     1   0.15375 251793.120000
  12500  12506     1   0.14233 265014.560000
  12501  12505     1   0.14316 258236.480000
  12501  12517     1   0.14316 258236.480000
  12509  12515     1   0.14233 265014.560000
  12518  12519     1   0.15375 251793.120000
  12518  12532     1   0.15375 251793.120000
  12518  12540     1   0.14316 258236.480000
  12519  12522     1   0.15375 251793.120000
  12519  12531     1   0.14233 265014.560000
  12522  12523     1   0.15375 251793.120000
  12522  12530     1   0.14233 265014.560000
  12523  12524     1   0.15375 251793.120000
  12523  12529     1   0.14233 265014.560000
  12524  12528     1   0.14316 258236.480000
  12524  12540     1   0.14316 258236.480000
  12532  12538     1   0.14233 265014.560000
  12541  12542     1   0.15375 251793.120000
  12541  12555     1   0.15375 251793.120000
  12541  12563     1   0.14316 258236.480000
  12542  12545     1   0.15375 251793.120000
  12542  12554     1   0.14233 265014.560000
  12545  12546     1   0.15375 251793.120000
  12545  12553     1   0.14233 265014.560000
  12546  12547     1   0.15375 251793.120000
  12546  12552     1   0.14233 265014.560000
  12547  12551     1   0.14316 258236.480000
  12547  12563     1   0.14316 258236.480000
  12555  12561     1   0.14233 265014.560000
  12564  12565     1   0.15375 251793.120000
  12564  12578     1   0.15375 251793.120000
  12564  12586     1   0.14316 258236.480000
  12565  12568     1   0.15375 251793.120000
  12565  12577     1   0.14233 265014.560000
  12568  12569     1   0.15375 251793.120000
  12568  12576     1   0.14233 265014.560000
  12569  12570     1   0.15375 251793.120000
  12569  12575     1   0.14233 265014.560000
  12570  12574     1   0.14316 258236.480000
  12570  12586     1   0.14316 258236.480000
  12578  12584     1   0.14233 265014.560000
  12587  12588     1   0.15375 251793.120000
  12587  12601     1   0.15375 251793.120000
  12587  12609     1   0.14316 258236.480000
  12588  12591     1   0.15375 251793.120000
  12588  12600     1   0.14233 265014.560000
  12591  12592     1   0.15375 251793.120000
  12591  12599     1   0.14233 265014.560000
  12592  12593     1   0.15375 251793.120000
  12592  12598     1   0.14233 265014.560000
  12593  12597     1   0.14316 258236.480000
  12593  12609     1   0.14316 258236.480000
  12601  12607     1   0.14233 265014.560000
  12610  12611     1   0.15375 251793.120000
  12610  12624     1   0.15375 251793.120000
  12610  12632     1   0.14316 258236.480000
  12611  12614     1   0.15375 251793.120000
  12611  12623     1   0.14233 265014.560000
  12614  12615     1   0.15375 251793.120000
  12614  12622     1   0.14233 265014.560000
  12615  12616     1   0.15375 251793.120000
  12615  12621     1   0.14233 265014.560000
  12616  12620     1   0.14316 258236.480000
  12616  12632     1   0.14316 258236.480000
  12624  12630     1   0.14233 265014.560000
  12633  12634     1   0.15375 251793.120000
  12633  12647     1   0.15375 251793.120000
  12633  12655     1   0.14316 258236.480000
  12634  12637     1   0.15375 251793.120000
  12634  12646     1   0.14233 265014.560000
  12637  12638     1   0.15375 251793.120000
  12637  12645     1   0.14233 265014.560000
  12638  12639     1   0.15375 251793.120000
  12638  12644     1   0.14233 265014.560000
  12639  12643     1   0.14316 258236.480000
  12639  12655     1   0.14316 258236.480000
  12647  12653     1   0.14233 265014.560000
  12656  12657     1   0.15375 251793.120000
  12656  12670     1   0.15375 251793.120000
  12656  12678     1   0.14316 258236.480000
  12657  12660     1   0.15375 251793.120000
  12657  12669     1   0.14233 265014.560000
  12660  12661     1   0.15375 251793.120000
  12660  12668     1   0.14233 265014.560000
  12661  12662     1   0.15375 251793.120000
  12661  12667     1   0.14233 265014.560000
  12662  12666     1   0.14316 258236.480000
  12662  12678     1   0.14316 258236.480000
  12670  12676     1   0.14233 265014.560000
  12679  12680     1   0.15375 251793.120000
  12679  12693     1   0.15375 251793.120000
  12679  12701     1   0.14316 258236.480000
  12680  12683     1   0.15375 251793.120000
  12680  12692     1   0.14233 265014.560000
  12683  12684     1   0.15375 251793.120000
  12683  12691     1   0.14233 265014.560000
  12684  12685     1   0.15375 251793.120000
  12684  12690     1   0.14233 265014.560000
  12685  12689     1   0.14316 258236.480000
  12685  12701     1   0.14316 258236.480000
  12693  12699     1   0.14233 265014.560000
  12702  12703     1   0.15375 251793.120000
  12702  12716     1   0.15375 251793.120000
  12702  12724     1   0.14316 258236.480000
  12703  12706     1   0.15375 251793.120000
  12703  12715     1   0.14233 265014.560000
  12706  12707     1   0.15375 251793.120000
  12706  12714     1   0.14233 265014.560000
  12707  12708     1   0.15375 251793.120000
  12707  12713     1   0.14233 265014.560000
  12708  12712     1   0.14316 258236.480000
  12708  12724     1   0.14316 258236.480000
  12716  12722     1   0.14233 265014.560000
  12725  12726     1   0.15375 251793.120000
  12725  12739     1   0.15375 251793.120000
  12725  12747     1   0.14316 258236.480000
  12726  12729     1   0.15375 251793.120000
  12726  12738     1   0.14233 265014.560000
  12729  12730     1   0.15375 251793.120000
  12729  12737     1   0.14233 265014.560000
  12730  12731     1   0.15375 251793.120000
  12730  12736     1   0.14233 265014.560000
  12731  12735     1   0.14316 258236.480000
  12731  12747     1   0.14316 258236.480000
  12739  12745     1   0.14233 265014.560000
  12748  12749     1   0.15375 251793.120000
  12748  12762     1   0.15375 251793.120000
  12748  12770     1   0.14316 258236.480000
  12749  12752     1   0.15375 251793.120000
  12749  12761     1   0.14233 265014.560000
  12752  12753     1   0.15375 251793.120000
  12752  12760     1   0.14233 265014.560000
  12753  12754     1   0.15375 251793.120000
  12753  12759     1   0.14233 265014.560000
  12754  12758     1   0.14316 258236.480000
  12754  12770     1   0.14316 258236.480000
  12762  12768     1   0.14233 265014.560000
  12771  12772     1   0.15375 251793.120000
  12771  12785     1   0.15375 251793.120000
  12771  12793     1   0.14316 258236.480000
  12772  12775     1   0.15375 251793.120000
  12772  12784     1   0.14233 265014.560000
  12775  12776     1   0.15375 251793.120000
  12775  12783     1   0.14233 265014.560000
  12776  12777     1   0.15375 251793.120000
  12776  12782     1   0.14233 265014.560000
  12777  12781     1   0.14316 258236.480000
  12777  12793     1   0.14316 258236.480000
  12785  12791     1   0.14233 265014.560000
  12794  12795     1   0.15375 251793.120000
  12794  12808     1   0.15375 251793.120000
  12794  12816     1   0.14316 258236.480000
  12795  12798     1   0.15375 251793.120000
  12795  12807     1   0.14233 265014.560000
  12798  12799     1   0.15375 251793.120000
  12798  12806     1   0.14233 265014.560000
  12799  12800     1   0.15375 251793.120000
  12799  12805     1   0.14233 265014.560000
  12800  12804     1   0.14316 258236.480000
  12800  12816     1   0.14316 258236.480000
  12808  12814     1   0.14233 265014.560000
  12817  12818     1   0.15375 251793.120000
  12817  12831     1   0.15375 251793.120000
  12817  12839     1   0.14316 258236.480000
  12818  12821     1   0.15375 251793.120000
  12818  12830     1   0.14233 265014.560000
  12821  12822     1   0.15375 251793.120000
  12821  12829     1   0.14233 265014.560000
  12822  12823     1   0.15375 251793.120000
  12822  12828     1   0.14233 265014.560000
  12823  12827     1   0.14316 258236.480000
  12823  12839     1   0.14316 258236.480000
  12831  12837     1   0.14233 265014.560000
  12840  12841     1   0.15375 251793.120000
  12840  12854     1   0.15375 251793.120000
  12840  12862     1   0.14316 258236.480000
  12841  12844     1   0.15375 251793.120000
  12841  12853     1   0.14233 265014.560000
  12844  12845     1   0.15375 251793.120000
  12844  12852     1   0.14233 265014.560000
  12845  12846     1   0.15375 251793.120000
  12845  12851     1   0.14233 265014.560000
  12846  12850     1   0.14316 258236.480000
  12846  12862     1   0.14316 258236.480000
  12854  12860     1   0.14233 265014.560000
  12863  12864     1   0.15375 251793.120000
  12863  12877     1   0.15375 251793.120000
  12863  12885     1   0.14316 258236.480000
  12864  12867     1   0.15375 251793.120000
  12864  12876     1   0.14233 265014.560000
  12867  12868     1   0.15375 251793.120000
  12867  12875     1   0.14233 265014.560000
  12868  12869     1   0.15375 251793.120000
  12868  12874     1   0.14233 265014.560000
  12869  12873     1   0.14316 258236.480000
  12869  12885     1   0.14316 258236.480000
  12877  12883     1   0.14233 265014.560000
  12886  12887     1   0.15375 251793.120000
  12886  12900     1   0.15375 251793.120000
  12886  12908     1   0.14316 258236.480000
  12887  12890     1   0.15375 251793.120000
  12887  12899     1   0.14233 265014.560000
  12890  12891     1   0.15375 251793.120000
  12890  12898     1   0.14233 265014.560000
  12891  12892     1   0.15375 251793.120000
  12891  12897     1   0.14233 265014.560000
  12892  12896     1   0.14316 258236.480000
  12892  12908     1   0.14316 258236.480000
  12900  12906     1   0.14233 265014.560000
  12909  12910     1   0.15375 251793.120000
  12909  12923     1   0.15375 251793.120000
  12909  12931     1   0.14316 258236.480000
  12910  12913     1   0.15375 251793.120000
  12910  12922     1   0.14233 265014.560000
  12913  12914     1   0.15375 251793.120000
  12913  12921     1   0.14233 265014.560000
  12914  12915     1   0.15375 251793.120000
  12914  12920     1   0.14233 265014.560000
  12915  12919     1   0.14316 258236.480000
  12915  12931     1   0.14316 258236.480000
  12923  12929     1   0.14233 265014.560000
  12932  12933     1   0.15375 251793.120000
  12932  12946     1   0.15375 251793.120000
  12932  12954     1   0.14316 258236.480000
  12933  12936     1   0.15375 251793.120000
  12933  12945     1   0.14233 265014.560000
  12936  12937     1   0.15375 251793.120000
  12936  12944     1   0.14233 265014.560000
  12937  12938     1   0.15375 251793.120000
  12937  12943     1   0.14233 265014.560000
  12938  12942     1   0.14316 258236.480000
  12938  12954     1   0.14316 258236.480000
  12946  12952     1   0.14233 265014.560000
  12955  12956     1   0.15375 251793.120000
  12955  12969     1   0.15375 251793.120000
  12955  12977     1   0.14316 258236.480000
  12956  12959     1   0.15375 251793.120000
  12956  12968     1   0.14233 265014.560000
  12959  12960     1   0.15375 251793.120000
  12959  12967     1   0.14233 265014.560000
  12960  12961     1   0.15375 251793.120000
  12960  12966     1   0.14233 265014.560000
  12961  12965     1   0.14316 258236.480000
  12961  12977     1   0.14316 258236.480000
  12969  12975     1   0.14233 265014.560000
  12978  12979     1   0.15375 251793.120000
  12978  12992     1   0.15375 251793.120000
  12978  13000     1   0.14316 258236.480000
  12979  12982     1   0.15375 251793.120000
  12979  12991     1   0.14233 265014.560000
  12982  12983     1   0.15375 251793.120000
  12982  12990     1   0.14233 265014.560000
  12983  12984     1   0.15375 251793.120000
  12983  12989     1   0.14233 265014.560000
  12984  12988     1   0.14316 258236.480000
  12984  13000     1   0.14316 258236.480000
  12992  12998     1   0.14233 265014.560000
  13001  13002     1   0.15375 251793.120000
  13001  13015     1   0.15375 251793.120000
  13001  13023     1   0.14316 258236.480000
  13002  13005     1   0.15375 251793.120000
  13002  13014     1   0.14233 265014.560000
  13005  13006     1   0.15375 251793.120000
  13005  13013     1   0.14233 265014.560000
  13006  13007     1   0.15375 251793.120000
  13006  13012     1   0.14233 265014.560000
  13007  13011     1   0.14316 258236.480000
  13007  13023     1   0.14316 258236.480000
  13015  13021     1   0.14233 265014.560000
  13024  13025     1   0.15375 251793.120000
  13024  13038     1   0.15375 251793.120000
  13024  13046     1   0.14316 258236.480000
  13025  13028     1   0.15375 251793.120000
  13025  13037     1   0.14233 265014.560000
  13028  13029     1   0.15375 251793.120000
  13028  13036     1   0.14233 265014.560000
  13029  13030     1   0.15375 251793.120000
  13029  13035     1   0.14233 265014.560000
  13030  13034     1   0.14316 258236.480000
  13030  13046     1   0.14316 258236.480000
  13038  13044     1   0.14233 265014.560000
  13047  13048     1   0.15375 251793.120000
  13047  13061     1   0.15375 251793.120000
  13047  13069     1   0.14316 258236.480000
  13048  13051     1   0.15375 251793.120000
  13048  13060     1   0.14233 265014.560000
  13051  13052     1   0.15375 251793.120000
  13051  13059     1   0.14233 265014.560000
  13052  13053     1   0.15375 251793.120000
  13052  13058     1   0.14233 265014.560000
  13053  13057     1   0.14316 258236.480000
  13053  13069     1   0.14316 258236.480000
  13061  13067     1   0.14233 265014.560000
  13070  13071     1   0.15375 251793.120000
  13070  13084     1   0.15375 251793.120000
  13070  13092     1   0.14316 258236.480000
  13071  13074     1   0.15375 251793.120000
  13071  13083     1   0.14233 265014.560000
  13074  13075     1   0.15375 251793.120000
  13074  13082     1   0.14233 265014.560000
  13075  13076     1   0.15375 251793.120000
  13075  13081     1   0.14233 265014.560000
  13076  13080     1   0.14316 258236.480000
  13076  13092     1   0.14316 258236.480000
  13084  13090     1   0.14233 265014.560000
  13093  13094     1   0.15375 251793.120000
  13093  13107     1   0.15375 251793.120000
  13093  13115     1   0.14316 258236.480000
  13094  13097     1   0.15375 251793.120000
  13094  13106     1   0.14233 265014.560000
  13097  13098     1   0.15375 251793.120000
  13097  13105     1   0.14233 265014.560000
  13098  13099     1   0.15375 251793.120000
  13098  13104     1   0.14233 265014.560000
  13099  13103     1   0.14316 258236.480000
  13099  13115     1   0.14316 258236.480000
  13107  13113     1   0.14233 265014.560000
  13116  13117     1   0.15375 251793.120000
  13116  13130     1   0.15375 251793.120000
  13116  13138     1   0.14316 258236.480000
  13117  13120     1   0.15375 251793.120000
  13117  13129     1   0.14233 265014.560000
  13120  13121     1   0.15375 251793.120000
  13120  13128     1   0.14233 265014.560000
  13121  13122     1   0.15375 251793.120000
  13121  13127     1   0.14233 265014.560000
  13122  13126     1   0.14316 258236.480000
  13122  13138     1   0.14316 258236.480000
  13130  13136     1   0.14233 265014.560000
  13139  13140     1   0.15375 251793.120000
  13139  13153     1   0.15375 251793.120000
  13139  13161     1   0.14316 258236.480000
  13140  13143     1   0.15375 251793.120000
  13140  13152     1   0.14233 265014.560000
  13143  13144     1   0.15375 251793.120000
  13143  13151     1   0.14233 265014.560000
  13144  13145     1   0.15375 251793.120000
  13144  13150     1   0.14233 265014.560000
  13145  13149     1   0.14316 258236.480000
  13145  13161     1   0.14316 258236.480000
  13153  13159     1   0.14233 265014.560000
  13162  13163     1   0.15375 251793.120000
  13162  13176     1   0.15375 251793.120000
  13162  13184     1   0.14316 258236.480000
  13163  13166     1   0.15375 251793.120000
  13163  13175     1   0.14233 265014.560000
  13166  13167     1   0.15375 251793.120000
  13166  13174     1   0.14233 265014.560000
  13167  13168     1   0.15375 251793.120000
  13167  13173     1   0.14233 265014.560000
  13168  13172     1   0.14316 258236.480000
  13168  13184     1   0.14316 258236.480000
  13176  13182     1   0.14233 265014.560000
  13185  13186     1   0.15375 251793.120000
  13185  13199     1   0.15375 251793.120000
  13185  13207     1   0.14316 258236.480000
  13186  13189     1   0.15375 251793.120000
  13186  13198     1   0.14233 265014.560000
  13189  13190     1   0.15375 251793.120000
  13189  13197     1   0.14233 265014.560000
  13190  13191     1   0.15375 251793.120000
  13190  13196     1   0.14233 265014.560000
  13191  13195     1   0.14316 258236.480000
  13191  13207     1   0.14316 258236.480000
  13199  13205     1   0.14233 265014.560000
  13208  13209     1   0.15375 251793.120000
  13208  13222     1   0.15375 251793.120000
  13208  13230     1   0.14316 258236.480000
  13209  13212     1   0.15375 251793.120000
  13209  13221     1   0.14233 265014.560000
  13212  13213     1   0.15375 251793.120000
  13212  13220     1   0.14233 265014.560000
  13213  13214     1   0.15375 251793.120000
  13213  13219     1   0.14233 265014.560000
  13214  13218     1   0.14316 258236.480000
  13214  13230     1   0.14316 258236.480000
  13222  13228     1   0.14233 265014.560000
  13231  13232     1   0.15375 251793.120000
  13231  13245     1   0.15375 251793.120000
  13231  13253     1   0.14316 258236.480000
  13232  13235     1   0.15375 251793.120000
  13232  13244     1   0.14233 265014.560000
  13235  13236     1   0.15375 251793.120000
  13235  13243     1   0.14233 265014.560000
  13236  13237     1   0.15375 251793.120000
  13236  13242     1   0.14233 265014.560000
  13237  13241     1   0.14316 258236.480000
  13237  13253     1   0.14316 258236.480000
  13245  13251     1   0.14233 265014.560000
      2      3     1   0.10969 276646.080000
      2      4     1   0.10969 276646.080000
      5      6     1   0.10969 276646.080000
      5      7     1   0.10969 276646.080000
      8      9     1   0.10969 276646.080000
      8     10     1   0.10969 276646.080000
     11     12     1   0.10969 276646.080000
     11     13     1   0.10969 276646.080000
     14     15     1   0.10969 276646.080000
     14     16     1   0.10969 276646.080000
     17     18     1   0.10969 276646.080000
     17     19     1   0.10969 276646.080000
     22     23     1   0.10969 276646.080000
     22     24     1   0.10969 276646.080000
     25     26     1   0.10969 276646.080000
     25     27     1   0.10969 276646.080000
     28     29     1   0.10969 276646.080000
     28     30     1   0.10969 276646.080000
     31     32     1   0.10969 276646.080000
     31     33     1   0.10969 276646.080000
     34     35     1   0.10969 276646.080000
     34     36     1   0.10969 276646.080000
     37     38     1   0.10969 276646.080000
     37     39     1   0.10969 276646.080000
     40     41     1   0.10969 276646.080000
     40     42     1   0.10969 276646.080000
     43     44     1   0.10969 276646.080000
     43     45     1   0.10969 276646.080000
     46     47     1   0.10969 276646.080000
     46     48     1   0.10969 276646.080000
     49     50     1   0.10969 276646.080000
     49     51     1   0.10969 276646.080000
     52     53     1   0.10969 276646.080000
     52     54     1   0.10969 276646.080000
     55     56     1   0.10969 276646.080000
     55     57     1   0.10969 276646.080000
     59     60     1   0.10969 276646.080000
     59     61     1   0.10969 276646.080000
     62     63     1   0.10969 276646.080000
     62     64     1   0.10969 276646.080000
     65     66     1   0.10969 276646.080000
     65     67     1   0.10969 276646.080000
     68     69     1   0.10969 276646.080000
     68     70     1   0.10969 276646.080000
     71     72     1   0.10969 276646.080000
     71     73     1   0.10969 276646.080000
     74     75     1   0.10969 276646.080000
     74     76     1   0.10969 276646.080000
     77     78     1   0.10969 276646.080000
     77     79     1   0.10969 276646.080000
     80     81     1   0.10969 276646.080000
     80     82     1   0.10969 276646.080000
     83     84     1   0.10969 276646.080000
     83     85     1   0.10969 276646.080000
     88     89     1   0.10969 276646.080000
     88     90     1   0.10969 276646.080000
     91     92     1   0.10969 276646.080000
     91     93     1   0.10969 276646.080000
     94     95     1   0.10969 276646.080000
     94     96     1   0.10969 276646.080000
     97     98     1   0.10969 276646.080000
     97     99     1   0.10969 276646.080000
    100    101     1   0.10969 276646.080000
    100    102     1   0.10969 276646.080000
    103    104     1   0.10969 276646.080000
    103    105     1   0.10969 276646.080000
    106    107     1   0.10969 276646.080000
    106    108     1   0.10969 276646.080000
    109    110     1   0.10969 276646.080000
    109    111     1   0.10969 276646.080000
    112    113     1   0.10969 276646.080000
    112    114     1   0.10969 276646.080000
    117    118     1   0.10969 276646.080000
    117    119     1   0.10969 276646.080000
    120    121     1   0.10969 276646.080000
    120    122     1   0.10969 276646.080000
    123    124     1   0.10969 276646.080000
    123    125     1   0.10969 276646.080000
    126    127     1   0.10969 276646.080000
    126    128     1   0.10969 276646.080000
    129    130     1   0.10969 276646.080000
    129    131     1   0.10969 276646.080000
    132    133     1   0.10969 276646.080000
    132    134     1   0.10969 276646.080000
    135    136     1   0.10969 276646.080000
    135    137     1   0.10969 276646.080000
    138    139     1   0.10969 276646.080000
    138    140     1   0.10969 276646.080000
    141    142     1   0.10969 276646.080000
    141    143     1   0.10969 276646.080000
    146    147     1   0.10969 276646.080000
    146    148     1   0.10969 276646.080000
    149    150     1   0.10969 276646.080000
    149    151     1   0.10969 276646.080000
    152    153     1   0.10969 276646.080000
    152    154     1   0.10969 276646.080000
    155    156     1   0.10969 276646.080000
    155    157     1   0.10969 276646.080000
    158    159     1   0.10969 276646.080000
    158    160     1   0.10969 276646.080000
    161    162     1   0.10969 276646.080000
    161    163     1   0.10969 276646.080000
    164    165     1   0.10969 276646.080000
    164    166     1   0.10969 276646.080000
    167    168     1   0.10969 276646.080000
    167    169     1   0.10969 276646.080000
    170    171     1   0.10969 276646.080000
    170    172     1   0.10969 276646.080000
    175    176     1   0.10969 276646.080000
    175    177     1   0.10969 276646.080000
    178    179     1   0.10969 276646.080000
    178    180     1   0.10969 276646.080000
    181    182     1   0.10969 276646.080000
    181    183     1   0.10969 276646.080000
    184    185     1   0.10969 276646.080000
    184    186     1   0.10969 276646.080000
    187    188     1   0.10969 276646.080000
    187    189     1   0.10969 276646.080000
    190    191     1   0.10969 276646.080000
    190    192     1   0.10969 276646.080000
    193    194     1   0.10969 276646.080000
    193    195     1   0.10969 276646.080000
    196    197     1   0.10969 276646.080000
    196    198     1   0.10969 276646.080000
    199    200     1   0.10969 276646.080000
    199    201     1   0.10969 276646.080000
    204    205     1   0.10969 276646.080000
    204    206     1   0.10969 276646.080000
    207    208     1   0.10969 276646.080000
    207    209     1   0.10969 276646.080000
    210    211     1   0.10969 276646.080000
    210    212     1   0.10969 276646.080000
    213    214     1   0.10969 276646.080000
    213    215     1   0.10969 276646.080000
    216    217     1   0.10969 276646.080000
    216    218     1   0.10969 276646.080000
    219    220     1   0.10969 276646.080000
    219    221     1   0.10969 276646.080000
    222    223     1   0.10969 276646.080000
    222    224     1   0.10969 276646.080000
    225    226     1   0.10969 276646.080000
    225    227     1   0.10969 276646.080000
    228    229     1   0.10969 276646.080000
    228    230     1   0.10969 276646.080000
    233    234     1   0.10969 276646.080000
    233    235     1   0.10969 276646.080000
    236    237     1   0.10969 276646.080000
    236    238     1   0.10969 276646.080000
    239    240     1   0.10969 276646.080000
    239    241     1   0.10969 276646.080000
    242    243     1   0.10969 276646.080000
    242    244     1   0.10969 276646.080000
    245    246     1   0.10969 276646.080000
    245    247     1   0.10969 276646.080000
    248    249     1   0.10969 276646.080000
    248    250     1   0.10969 276646.080000
    251    252     1   0.10969 276646.080000
    251    253     1   0.10969 276646.080000
    254    255     1   0.10969 276646.080000
    254    256     1   0.10969 276646.080000
    257    258     1   0.10969 276646.080000
    257    259     1   0.10969 276646.080000
    262    263     1   0.10969 276646.080000
    262    264     1   0.10969 276646.080000
    265    266     1   0.10969 276646.080000
    265    267     1   0.10969 276646.080000
    268    269     1   0.10969 276646.080000
    268    270     1   0.10969 276646.080000
    271    272     1   0.10969 276646.080000
    271    273     1   0.10969 276646.080000
    274    275     1   0.10969 276646.080000
    274    276     1   0.10969 276646.080000
    277    278     1   0.10969 276646.080000
    277    279     1   0.10969 276646.080000
    280    281     1   0.10969 276646.080000
    280    282     1   0.10969 276646.080000
    283    284     1   0.10969 276646.080000
    283    285     1   0.10969 276646.080000
    286    287     1   0.10969 276646.080000
    286    288     1   0.10969 276646.080000
    291    292     1   0.10969 276646.080000
    291    293     1   0.10969 276646.080000
    294    295     1   0.10969 276646.080000
    294    296     1   0.10969 276646.080000
    297    298     1   0.10969 276646.080000
    297    299     1   0.10969 276646.080000
    300    301     1   0.10969 276646.080000
    300    302     1   0.10969 276646.080000
    303    304     1   0.10969 276646.080000
    303    305     1   0.10969 276646.080000
    306    307     1   0.10969 276646.080000
    306    308     1   0.10969 276646.080000
    309    310     1   0.10969 276646.080000
    309    311     1   0.10969 276646.080000
    312    313     1   0.10969 276646.080000
    312    314     1   0.10969 276646.080000
    315    316     1   0.10969 276646.080000
    315    317     1   0.10969 276646.080000
    320    321     1   0.10969 276646.080000
    320    322     1   0.10969 276646.080000
    323    324     1   0.10969 276646.080000
    323    325     1   0.10969 276646.080000
    326    327     1   0.10969 276646.080000
    326    328     1   0.10969 276646.080000
    329    330     1   0.10969 276646.080000
    329    331     1   0.10969 276646.080000
    332    333     1   0.10969 276646.080000
    332    334     1   0.10969 276646.080000
    335    336     1   0.10969 276646.080000
    335    337     1   0.10969 276646.080000
    338    339     1   0.10969 276646.080000
    338    340     1   0.10969 276646.080000
    341    342     1   0.10969 276646.080000
    341    343     1   0.10969 276646.080000
    344    345     1   0.10969 276646.080000
    344    346     1   0.10969 276646.080000
    349    350     1   0.10969 276646.080000
    349    351     1   0.10969 276646.080000
    352    353     1   0.10969 276646.080000
    352    354     1   0.10969 276646.080000
    355    356     1   0.10969 276646.080000
    355    357     1   0.10969 276646.080000
    358    359     1   0.10969 276646.080000
    358    360     1   0.10969 276646.080000
    361    362     1   0.10969 276646.080000
    361    363     1   0.10969 276646.080000
    364    365     1   0.10969 276646.080000
    364    366     1   0.10969 276646.080000
    367    368     1   0.10969 276646.080000
    367    369     1   0.10969 276646.080000
    370    371     1   0.10969 276646.080000
    370    372     1   0.10969 276646.080000
    373    374     1   0.10969 276646.080000
    373    375     1   0.10969 276646.080000
    378    379     1   0.10969 276646.080000
    378    380     1   0.10969 276646.080000
    381    382     1   0.10969 276646.080000
    381    383     1   0.10969 276646.080000
    384    385     1   0.10969 276646.080000
    384    386     1   0.10969 276646.080000
    387    388     1   0.10969 276646.080000
    387    389     1   0.10969 276646.080000
    390    391     1   0.10969 276646.080000
    390    392     1   0.10969 276646.080000
    393    394     1   0.10969 276646.080000
    393    395     1   0.10969 276646.080000
    396    397     1   0.10969 276646.080000
    396    398     1   0.10969 276646.080000
    399    400     1   0.10969 276646.080000
    399    401     1   0.10969 276646.080000
    402    403     1   0.10969 276646.080000
    402    404     1   0.10969 276646.080000
    407    408     1   0.10969 276646.080000
    407    409     1   0.10969 276646.080000
    410    411     1   0.10969 276646.080000
    410    412     1   0.10969 276646.080000
    413    414     1   0.10969 276646.080000
    413    415     1   0.10969 276646.080000
    416    417     1   0.10969 276646.080000
    416    418     1   0.10969 276646.080000
    419    420     1   0.10969 276646.080000
    419    421     1   0.10969 276646.080000
    422    423     1   0.10969 276646.080000
    422    424     1   0.10969 276646.080000
    425    426     1   0.10969 276646.080000
    425    427     1   0.10969 276646.080000
    428    429     1   0.10969 276646.080000
    428    430     1   0.10969 276646.080000
    431    432     1   0.10969 276646.080000
    431    433     1   0.10969 276646.080000
    436    437     1   0.10969 276646.080000
    436    438     1   0.10969 276646.080000
    439    440     1   0.10969 276646.080000
    439    441     1   0.10969 276646.080000
    442    443     1   0.10969 276646.080000
    442    444     1   0.10969 276646.080000
    445    446     1   0.10969 276646.080000
    445    447     1   0.10969 276646.080000
    448    449     1   0.10969 276646.080000
    448    450     1   0.10969 276646.080000
    451    452     1   0.10969 276646.080000
    451    453     1   0.10969 276646.080000
    454    455     1   0.10969 276646.080000
    454    456     1   0.10969 276646.080000
    457    458     1   0.10969 276646.080000
    457    459     1   0.10969 276646.080000
    460    461     1   0.10969 276646.080000
    460    462     1   0.10969 276646.080000
    465    466     1   0.10969 276646.080000
    465    467     1   0.10969 276646.080000
    468    469     1   0.10969 276646.080000
    468    470     1   0.10969 276646.080000
    471    472     1   0.10969 276646.080000
    471    473     1   0.10969 276646.080000
    474    475     1   0.10969 276646.080000
    474    476     1   0.10969 276646.080000
    477    478     1   0.10969 276646.080000
    477    479     1   0.10969 276646.080000
    480    481     1   0.10969 276646.080000
    480    482     1   0.10969 276646.080000
    483    484     1   0.10969 276646.080000
    483    485     1   0.10969 276646.080000
    486    487     1   0.10969 276646.080000
    486    488     1   0.10969 276646.080000
    489    490     1   0.10969 276646.080000
    489    491     1   0.10969 276646.080000
    494    495     1   0.10969 276646.080000
    494    496     1   0.10969 276646.080000
    497    498     1   0.10969 276646.080000
    497    499     1   0.10969 276646.080000
    500    501     1   0.10969 276646.080000
    500    502     1   0.10969 276646.080000
    503    504     1   0.10969 276646.080000
    503    505     1   0.10969 276646.080000
    506    507     1   0.10969 276646.080000
    506    508     1   0.10969 276646.080000
    509    510     1   0.10969 276646.080000
    509    511     1   0.10969 276646.080000
    512    513     1   0.10969 276646.080000
    512    514     1   0.10969 276646.080000
    515    516     1   0.10969 276646.080000
    515    517     1   0.10969 276646.080000
    518    519     1   0.10969 276646.080000
    518    520     1   0.10969 276646.080000
    523    524     1   0.10969 276646.080000
    523    525     1   0.10969 276646.080000
    526    527     1   0.10969 276646.080000
    526    528     1   0.10969 276646.080000
    529    530     1   0.10969 276646.080000
    529    531     1   0.10969 276646.080000
    532    533     1   0.10969 276646.080000
    532    534     1   0.10969 276646.080000
    535    536     1   0.10969 276646.080000
    535    537     1   0.10969 276646.080000
    538    539     1   0.10969 276646.080000
    538    540     1   0.10969 276646.080000
    541    542     1   0.10969 276646.080000
    541    543     1   0.10969 276646.080000
    544    545     1   0.10969 276646.080000
    544    546     1   0.10969 276646.080000
    547    548     1   0.10969 276646.080000
    547    549     1   0.10969 276646.080000
    552    553     1   0.10969 276646.080000
    552    554     1   0.10969 276646.080000
    555    556     1   0.10969 276646.080000
    555    557     1   0.10969 276646.080000
    558    559     1   0.10969 276646.080000
    558    560     1   0.10969 276646.080000
    561    562     1   0.10969 276646.080000
    561    563     1   0.10969 276646.080000
    564    565     1   0.10969 276646.080000
    564    566     1   0.10969 276646.080000
    567    568     1   0.10969 276646.080000
    567    569     1   0.10969 276646.080000
    570    571     1   0.10969 276646.080000
    570    572     1   0.10969 276646.080000
    573    574     1   0.10969 276646.080000
    573    575     1   0.10969 276646.080000
    576    577     1   0.10969 276646.080000
    576    578     1   0.10969 276646.080000
    581    582     1   0.10969 276646.080000
    581    583     1   0.10969 276646.080000
    584    585     1   0.10969 276646.080000
    584    586     1   0.10969 276646.080000
    587    588     1   0.10969 276646.080000
    587    589     1   0.10969 276646.080000
    590    591     1   0.10969 276646.080000
    590    592     1   0.10969 276646.080000
    593    594     1   0.10969 276646.080000
    593    595     1   0.10969 276646.080000
    596    597     1   0.10969 276646.080000
    596    598     1   0.10969 276646.080000
    599    600     1   0.10969 276646.080000
    599    601     1   0.10969 276646.080000
    602    603     1   0.10969 276646.080000
    602    604     1   0.10969 276646.080000
    605    606     1   0.10969 276646.080000
    605    607     1   0.10969 276646.080000
    610    611     1   0.10969 276646.080000
    610    612     1   0.10969 276646.080000
    613    614     1   0.10969 276646.080000
    613    615     1   0.10969 276646.080000
    616    617     1   0.10969 276646.080000
    616    618     1   0.10969 276646.080000
    619    620     1   0.10969 276646.080000
    619    621     1   0.10969 276646.080000
    622    623     1   0.10969 276646.080000
    622    624     1   0.10969 276646.080000
    625    626     1   0.10969 276646.080000
    625    627     1   0.10969 276646.080000
    628    629     1   0.10969 276646.080000
    628    630     1   0.10969 276646.080000
    631    632     1   0.10969 276646.080000
    631    633     1   0.10969 276646.080000
    634    635     1   0.10969 276646.080000
    634    636     1   0.10969 276646.080000
    639    640     1   0.10969 276646.080000
    639    641     1   0.10969 276646.080000
    642    643     1   0.10969 276646.080000
    642    644     1   0.10969 276646.080000
    645    646     1   0.10969 276646.080000
    645    647     1   0.10969 276646.080000
    648    649     1   0.10969 276646.080000
    648    650     1   0.10969 276646.080000
    651    652     1   0.10969 276646.080000
    651    653     1   0.10969 276646.080000
    654    655     1   0.10969 276646.080000
    654    656     1   0.10969 276646.080000
    657    658     1   0.10969 276646.080000
    657    659     1   0.10969 276646.080000
    660    661     1   0.10969 276646.080000
    660    662     1   0.10969 276646.080000
    663    664     1   0.10969 276646.080000
    663    665     1   0.10969 276646.080000
    668    669     1   0.10969 276646.080000
    668    670     1   0.10969 276646.080000
    671    672     1   0.10969 276646.080000
    671    673     1   0.10969 276646.080000
    674    675     1   0.10969 276646.080000
    674    676     1   0.10969 276646.080000
    677    678     1   0.10969 276646.080000
    677    679     1   0.10969 276646.080000
    680    681     1   0.10969 276646.080000
    680    682     1   0.10969 276646.080000
    683    684     1   0.10969 276646.080000
    683    685     1   0.10969 276646.080000
    686    687     1   0.10969 276646.080000
    686    688     1   0.10969 276646.080000
    689    690     1   0.10969 276646.080000
    689    691     1   0.10969 276646.080000
    692    693     1   0.10969 276646.080000
    692    694     1   0.10969 276646.080000
    697    698     1   0.10969 276646.080000
    697    699     1   0.10969 276646.080000
    700    701     1   0.10969 276646.080000
    700    702     1   0.10969 276646.080000
    703    704     1   0.10969 276646.080000
    703    705     1   0.10969 276646.080000
    706    707     1   0.10969 276646.080000
    706    708     1   0.10969 276646.080000
    709    710     1   0.10969 276646.080000
    709    711     1   0.10969 276646.080000
    712    713     1   0.10969 276646.080000
    712    714     1   0.10969 276646.080000
    715    716     1   0.10969 276646.080000
    715    717     1   0.10969 276646.080000
    718    719     1   0.10969 276646.080000
    718    720     1   0.10969 276646.080000
    721    722     1   0.10969 276646.080000
    721    723     1   0.10969 276646.080000
    726    727     1   0.10969 276646.080000
    726    728     1   0.10969 276646.080000
    729    730     1   0.10969 276646.080000
    729    731     1   0.10969 276646.080000
    732    733     1   0.10969 276646.080000
    732    734     1   0.10969 276646.080000
    735    736     1   0.10969 276646.080000
    735    737     1   0.10969 276646.080000
    738    739     1   0.10969 276646.080000
    738    740     1   0.10969 276646.080000
    741    742     1   0.10969 276646.080000
    741    743     1   0.10969 276646.080000
    744    745     1   0.10969 276646.080000
    744    746     1   0.10969 276646.080000
    747    748     1   0.10969 276646.080000
    747    749     1   0.10969 276646.080000
    750    751     1   0.10969 276646.080000
    750    752     1   0.10969 276646.080000
    755    756     1   0.10969 276646.080000
    755    757     1   0.10969 276646.080000
    758    759     1   0.10969 276646.080000
    758    760     1   0.10969 276646.080000
    761    762     1   0.10969 276646.080000
    761    763     1   0.10969 276646.080000
    764    765     1   0.10969 276646.080000
    764    766     1   0.10969 276646.080000
    767    768     1   0.10969 276646.080000
    767    769     1   0.10969 276646.080000
    770    771     1   0.10969 276646.080000
    770    772     1   0.10969 276646.080000
    773    774     1   0.10969 276646.080000
    773    775     1   0.10969 276646.080000
    776    777     1   0.10969 276646.080000
    776    778     1   0.10969 276646.080000
    779    780     1   0.10969 276646.080000
    779    781     1   0.10969 276646.080000
    784    785     1   0.10969 276646.080000
    784    786     1   0.10969 276646.080000
    787    788     1   0.10969 276646.080000
    787    789     1   0.10969 276646.080000
    790    791     1   0.10969 276646.080000
    790    792     1   0.10969 276646.080000
    793    794     1   0.10969 276646.080000
    793    795     1   0.10969 276646.080000
    796    797     1   0.10969 276646.080000
    796    798     1   0.10969 276646.080000
    799    800     1   0.10969 276646.080000
    799    801     1   0.10969 276646.080000
    802    803     1   0.10969 276646.080000
    802    804     1   0.10969 276646.080000
    805    806     1   0.10969 276646.080000
    805    807     1   0.10969 276646.080000
    808    809     1   0.10969 276646.080000
    808    810     1   0.10969 276646.080000
    813    814     1   0.10969 276646.080000
    813    815     1   0.10969 276646.080000
    816    817     1   0.10969 276646.080000
    816    818     1   0.10969 276646.080000
    819    820     1   0.10969 276646.080000
    819    821     1   0.10969 276646.080000
    822    823     1   0.10969 276646.080000
    822    824     1   0.10969 276646.080000
    825    826     1   0.10969 276646.080000
    825    827     1   0.10969 276646.080000
    828    829     1   0.10969 276646.080000
    828    830     1   0.10969 276646.080000
    831    832     1   0.10969 276646.080000
    831    833     1   0.10969 276646.080000
    834    835     1   0.10969 276646.080000
    834    836     1   0.10969 276646.080000
    837    838     1   0.10969 276646.080000
    837    839     1   0.10969 276646.080000
    842    843     1   0.10969 276646.080000
    842    844     1   0.10969 276646.080000
    845    846     1   0.10969 276646.080000
    845    847     1   0.10969 276646.080000
    848    849     1   0.10969 276646.080000
    848    850     1   0.10969 276646.080000
    851    852     1   0.10969 276646.080000
    851    853     1   0.10969 276646.080000
    854    855     1   0.10969 276646.080000
    854    856     1   0.10969 276646.080000
    857    858     1   0.10969 276646.080000
    857    859     1   0.10969 276646.080000
    860    861     1   0.10969 276646.080000
    860    862     1   0.10969 276646.080000
    863    864     1   0.10969 276646.080000
    863    865     1   0.10969 276646.080000
    866    867     1   0.10969 276646.080000
    866    868     1   0.10969 276646.080000
    871    872     1   0.10969 276646.080000
    871    873     1   0.10969 276646.080000
    874    875     1   0.10969 276646.080000
    874    876     1   0.10969 276646.080000
    877    878     1   0.10969 276646.080000
    877    879     1   0.10969 276646.080000
    880    881     1   0.10969 276646.080000
    880    882     1   0.10969 276646.080000
    883    884     1   0.10969 276646.080000
    883    885     1   0.10969 276646.080000
    886    887     1   0.10969 276646.080000
    886    888     1   0.10969 276646.080000
    889    890     1   0.10969 276646.080000
    889    891     1   0.10969 276646.080000
    892    893     1   0.10969 276646.080000
    892    894     1   0.10969 276646.080000
    895    896     1   0.10969 276646.080000
    895    897     1   0.10969 276646.080000
    900    901     1   0.10969 276646.080000
    900    902     1   0.10969 276646.080000
    903    904     1   0.10969 276646.080000
    903    905     1   0.10969 276646.080000
    906    907     1   0.10969 276646.080000
    906    908     1   0.10969 276646.080000
    909    910     1   0.10969 276646.080000
    909    911     1   0.10969 276646.080000
    912    913     1   0.10969 276646.080000
    912    914     1   0.10969 276646.080000
    915    916     1   0.10969 276646.080000
    915    917     1   0.10969 276646.080000
    918    919     1   0.10969 276646.080000
    918    920     1   0.10969 276646.080000
    921    922     1   0.10969 276646.080000
    921    923     1   0.10969 276646.080000
    924    925     1   0.10969 276646.080000
    924    926     1   0.10969 276646.080000
    929    930     1   0.10969 276646.080000
    929    931     1   0.10969 276646.080000
    932    933     1   0.10969 276646.080000
    932    934     1   0.10969 276646.080000
    935    936     1   0.10969 276646.080000
    935    937     1   0.10969 276646.080000
    938    939     1   0.10969 276646.080000
    938    940     1   0.10969 276646.080000
    941    942     1   0.10969 276646.080000
    941    943     1   0.10969 276646.080000
    944    945     1   0.10969 276646.080000
    944    946     1   0.10969 276646.080000
    947    948     1   0.10969 276646.080000
    947    949     1   0.10969 276646.080000
    950    951     1   0.10969 276646.080000
    950    952     1   0.10969 276646.080000
    953    954     1   0.10969 276646.080000
    953    955     1   0.10969 276646.080000
    958    959     1   0.10969 276646.080000
    958    960     1   0.10969 276646.080000
    961    962     1   0.10969 276646.080000
    961    963     1   0.10969 276646.080000
    964    965     1   0.10969 276646.080000
    964    966     1   0.10969 276646.080000
    967    968     1   0.10969 276646.080000
    967    969     1   0.10969 276646.080000
    970    971     1   0.10969 276646.080000
    970    972     1   0.10969 276646.080000
    973    974     1   0.10969 276646.080000
    973    975     1   0.10969 276646.080000
    976    977     1   0.10969 276646.080000
    976    978     1   0.10969 276646.080000
    979    980     1   0.10969 276646.080000
    979    981     1   0.10969 276646.080000
    982    983     1   0.10969 276646.080000
    982    984     1   0.10969 276646.080000
    987    988     1   0.10969 276646.080000
    987    989     1   0.10969 276646.080000
    990    991     1   0.10969 276646.080000
    990    992     1   0.10969 276646.080000
    993    994     1   0.10969 276646.080000
    993    995     1   0.10969 276646.080000
    996    997     1   0.10969 276646.080000
    996    998     1   0.10969 276646.080000
    999   1000     1   0.10969 276646.080000
    999   1001     1   0.10969 276646.080000
   1002   1003     1   0.10969 276646.080000
   1002   1004     1   0.10969 276646.080000
   1005   1006     1   0.10969 276646.080000
   1005   1007     1   0.10969 276646.080000
   1008   1009     1   0.10969 276646.080000
   1008   1010     1   0.10969 276646.080000
   1011   1012     1   0.10969 276646.080000
   1011   1013     1   0.10969 276646.080000
   1016   1017     1   0.10969 276646.080000
   1016   1018     1   0.10969 276646.080000
   1019   1020     1   0.10969 276646.080000
   1019   1021     1   0.10969 276646.080000
   1022   1023     1   0.10969 276646.080000
   1022   1024     1   0.10969 276646.080000
   1025   1026     1   0.10969 276646.080000
   1025   1027     1   0.10969 276646.080000
   1028   1029     1   0.10969 276646.080000
   1028   1030     1   0.10969 276646.080000
   1031   1032     1   0.10969 276646.080000
   1031   1033     1   0.10969 276646.080000
   1034   1035     1   0.10969 276646.080000
   1034   1036     1   0.10969 276646.080000
   1037   1038     1   0.10969 276646.080000
   1037   1039     1   0.10969 276646.080000
   1040   1041     1   0.10969 276646.080000
   1040   1042     1   0.10969 276646.080000
   1045   1046     1   0.10969 276646.080000
   1045   1047     1   0.10969 276646.080000
   1048   1049     1   0.10969 276646.080000
   1048   1050     1   0.10969 276646.080000
   1051   1052     1   0.10969 276646.080000
   1051   1053     1   0.10969 276646.080000
   1054   1055     1   0.10969 276646.080000
   1054   1056     1   0.10969 276646.080000
   1057   1058     1   0.10969 276646.080000
   1057   1059     1   0.10969 276646.080000
   1060   1061     1   0.10969 276646.080000
   1060   1062     1   0.10969 276646.080000
   1063   1064     1   0.10969 276646.080000
   1063   1065     1   0.10969 276646.080000
   1066   1067     1   0.10969 276646.080000
   1066   1068     1   0.10969 276646.080000
   1069   1070     1   0.10969 276646.080000
   1069   1071     1   0.10969 276646.080000
   1074   1075     1   0.10969 276646.080000
   1074   1076     1   0.10969 276646.080000
   1077   1078     1   0.10969 276646.080000
   1077   1079     1   0.10969 276646.080000
   1080   1081     1   0.10969 276646.080000
   1080   1082     1   0.10969 276646.080000
   1083   1084     1   0.10969 276646.080000
   1083   1085     1   0.10969 276646.080000
   1086   1087     1   0.10969 276646.080000
   1086   1088     1   0.10969 276646.080000
   1089   1090     1   0.10969 276646.080000
   1089   1091     1   0.10969 276646.080000
   1092   1093     1   0.10969 276646.080000
   1092   1094     1   0.10969 276646.080000
   1095   1096     1   0.10969 276646.080000
   1095   1097     1   0.10969 276646.080000
   1098   1099     1   0.10969 276646.080000
   1098   1100     1   0.10969 276646.080000
   1103   1104     1   0.10969 276646.080000
   1103   1105     1   0.10969 276646.080000
   1106   1107     1   0.10969 276646.080000
   1106   1108     1   0.10969 276646.080000
   1109   1110     1   0.10969 276646.080000
   1109   1111     1   0.10969 276646.080000
   1112   1113     1   0.10969 276646.080000
   1112   1114     1   0.10969 276646.080000
   1115   1116     1   0.10969 276646.080000
   1115   1117     1   0.10969 276646.080000
   1118   1119     1   0.10969 276646.080000
   1118   1120     1   0.10969 276646.080000
   1121   1122     1   0.10969 276646.080000
   1121   1123     1   0.10969 276646.080000
   1124   1125     1   0.10969 276646.080000
   1124   1126     1   0.10969 276646.080000
   1127   1128     1   0.10969 276646.080000
   1127   1129     1   0.10969 276646.080000
   1132   1133     1   0.10969 276646.080000
   1132   1134     1   0.10969 276646.080000
   1135   1136     1   0.10969 276646.080000
   1135   1137     1   0.10969 276646.080000
   1138   1139     1   0.10969 276646.080000
   1138   1140     1   0.10969 276646.080000
   1141   1142     1   0.10969 276646.080000
   1141   1143     1   0.10969 276646.080000
   1144   1145     1   0.10969 276646.080000
   1144   1146     1   0.10969 276646.080000
   1147   1148     1   0.10969 276646.080000
   1147   1149     1   0.10969 276646.080000
   1150   1151     1   0.10969 276646.080000
   1150   1152     1   0.10969 276646.080000
   1153   1154     1   0.10969 276646.080000
   1153   1155     1   0.10969 276646.080000
   1156   1157     1   0.10969 276646.080000
   1156   1158     1   0.10969 276646.080000
   1161   1162     1   0.10969 276646.080000
   1161   1163     1   0.10969 276646.080000
   1164   1165     1   0.10969 276646.080000
   1164   1166     1   0.10969 276646.080000
   1167   1168     1   0.10969 276646.080000
   1167   1169     1   0.10969 276646.080000
   1170   1171     1   0.10969 276646.080000
   1170   1172     1   0.10969 276646.080000
   1173   1174     1   0.10969 276646.080000
   1173   1175     1   0.10969 276646.080000
   1176   1177     1   0.10969 276646.080000
   1176   1178     1   0.10969 276646.080000
   1179   1180     1   0.10969 276646.080000
   1179   1181     1   0.10969 276646.080000
   1182   1183     1   0.10969 276646.080000
   1182   1184     1   0.10969 276646.080000
   1185   1186     1   0.10969 276646.080000
   1185   1187     1   0.10969 276646.080000
   1190   1191     1   0.10969 276646.080000
   1190   1192     1   0.10969 276646.080000
   1193   1194     1   0.10969 276646.080000
   1193   1195     1   0.10969 276646.080000
   1196   1197     1   0.10969 276646.080000
   1196   1198     1   0.10969 276646.080000
   1199   1200     1   0.10969 276646.080000
   1199   1201     1   0.10969 276646.080000
   1202   1203     1   0.10969 276646.080000
   1202   1204     1   0.10969 276646.080000
   1205   1206     1   0.10969 276646.080000
   1205   1207     1   0.10969 276646.080000
   1208   1209     1   0.10969 276646.080000
   1208   1210     1   0.10969 276646.080000
   1211   1212     1   0.10969 276646.080000
   1211   1213     1   0.10969 276646.080000
   1214   1215     1   0.10969 276646.080000
   1214   1216     1   0.10969 276646.080000
   1219   1220     1   0.10969 276646.080000
   1219   1221     1   0.10969 276646.080000
   1222   1223     1   0.10969 276646.080000
   1222   1224     1   0.10969 276646.080000
   1225   1226     1   0.10969 276646.080000
   1225   1227     1   0.10969 276646.080000
   1228   1229     1   0.10969 276646.080000
   1228   1230     1   0.10969 276646.080000
   1231   1232     1   0.10969 276646.080000
   1231   1233     1   0.10969 276646.080000
   1234   1235     1   0.10969 276646.080000
   1234   1236     1   0.10969 276646.080000
   1237   1238     1   0.10969 276646.080000
   1237   1239     1   0.10969 276646.080000
   1240   1241     1   0.10969 276646.080000
   1240   1242     1   0.10969 276646.080000
   1243   1244     1   0.10969 276646.080000
   1243   1245     1   0.10969 276646.080000
   1248   1249     1   0.10969 276646.080000
   1248   1250     1   0.10969 276646.080000
   1251   1252     1   0.10969 276646.080000
   1251   1253     1   0.10969 276646.080000
   1254   1255     1   0.10969 276646.080000
   1254   1256     1   0.10969 276646.080000
   1257   1258     1   0.10969 276646.080000
   1257   1259     1   0.10969 276646.080000
   1260   1261     1   0.10969 276646.080000
   1260   1262     1   0.10969 276646.080000
   1263   1264     1   0.10969 276646.080000
   1263   1265     1   0.10969 276646.080000
   1266   1267     1   0.10969 276646.080000
   1266   1268     1   0.10969 276646.080000
   1269   1270     1   0.10969 276646.080000
   1269   1271     1   0.10969 276646.080000
   1272   1273     1   0.10969 276646.080000
   1272   1274     1   0.10969 276646.080000
   1277   1278     1   0.10969 276646.080000
   1277   1279     1   0.10969 276646.080000
   1280   1281     1   0.10969 276646.080000
   1280   1282     1   0.10969 276646.080000
   1283   1284     1   0.10969 276646.080000
   1283   1285     1   0.10969 276646.080000
   1286   1287     1   0.10969 276646.080000
   1286   1288     1   0.10969 276646.080000
   1289   1290     1   0.10969 276646.080000
   1289   1291     1   0.10969 276646.080000
   1292   1293     1   0.10969 276646.080000
   1292   1294     1   0.10969 276646.080000
   1295   1296     1   0.10969 276646.080000
   1295   1297     1   0.10969 276646.080000
   1298   1299     1   0.10969 276646.080000
   1298   1300     1   0.10969 276646.080000
   1301   1302     1   0.10969 276646.080000
   1301   1303     1   0.10969 276646.080000
   1306   1307     1   0.10969 276646.080000
   1306   1308     1   0.10969 276646.080000
   1309   1310     1   0.10969 276646.080000
   1309   1311     1   0.10969 276646.080000
   1312   1313     1   0.10969 276646.080000
   1312   1314     1   0.10969 276646.080000
   1315   1316     1   0.10969 276646.080000
   1315   1317     1   0.10969 276646.080000
   1318   1319     1   0.10969 276646.080000
   1318   1320     1   0.10969 276646.080000
   1321   1322     1   0.10969 276646.080000
   1321   1323     1   0.10969 276646.080000
   1324   1325     1   0.10969 276646.080000
   1324   1326     1   0.10969 276646.080000
   1327   1328     1   0.10969 276646.080000
   1327   1329     1   0.10969 276646.080000
   1330   1331     1   0.10969 276646.080000
   1330   1332     1   0.10969 276646.080000
   1335   1336     1   0.10969 276646.080000
   1335   1337     1   0.10969 276646.080000
   1338   1339     1   0.10969 276646.080000
   1338   1340     1   0.10969 276646.080000
   1341   1342     1   0.10969 276646.080000
   1341   1343     1   0.10969 276646.080000
   1344   1345     1   0.10969 276646.080000
   1344   1346     1   0.10969 276646.080000
   1347   1348     1   0.10969 276646.080000
   1347   1349     1   0.10969 276646.080000
   1350   1351     1   0.10969 276646.080000
   1350   1352     1   0.10969 276646.080000
   1353   1354     1   0.10969 276646.080000
   1353   1355     1   0.10969 276646.080000
   1356   1357     1   0.10969 276646.080000
   1356   1358     1   0.10969 276646.080000
   1359   1360     1   0.10969 276646.080000
   1359   1361     1   0.10969 276646.080000
   1364   1365     1   0.10969 276646.080000
   1364   1366     1   0.10969 276646.080000
   1367   1368     1   0.10969 276646.080000
   1367   1369     1   0.10969 276646.080000
   1370   1371     1   0.10969 276646.080000
   1370   1372     1   0.10969 276646.080000
   1373   1374     1   0.10969 276646.080000
   1373   1375     1   0.10969 276646.080000
   1376   1377     1   0.10969 276646.080000
   1376   1378     1   0.10969 276646.080000
   1379   1380     1   0.10969 276646.080000
   1379   1381     1   0.10969 276646.080000
   1382   1383     1   0.10969 276646.080000
   1382   1384     1   0.10969 276646.080000
   1385   1386     1   0.10969 276646.080000
   1385   1387     1   0.10969 276646.080000
   1388   1389     1   0.10969 276646.080000
   1388   1390     1   0.10969 276646.080000
   1393   1394     1   0.10969 276646.080000
   1393   1395     1   0.10969 276646.080000
   1396   1397     1   0.10969 276646.080000
   1396   1398     1   0.10969 276646.080000
   1399   1400     1   0.10969 276646.080000
   1399   1401     1   0.10969 276646.080000
   1402   1403     1   0.10969 276646.080000
   1402   1404     1   0.10969 276646.080000
   1405   1406     1   0.10969 276646.080000
   1405   1407     1   0.10969 276646.080000
   1408   1409     1   0.10969 276646.080000
   1408   1410     1   0.10969 276646.080000
   1411   1412     1   0.10969 276646.080000
   1411   1413     1   0.10969 276646.080000
   1414   1415     1   0.10969 276646.080000
   1414   1416     1   0.10969 276646.080000
   1417   1418     1   0.10969 276646.080000
   1417   1419     1   0.10969 276646.080000
   1422   1423     1   0.10969 276646.080000
   1422   1424     1   0.10969 276646.080000
   1425   1426     1   0.10969 276646.080000
   1425   1427     1   0.10969 276646.080000
   1428   1429     1   0.10969 276646.080000
   1428   1430     1   0.10969 276646.080000
   1431   1432     1   0.10969 276646.080000
   1431   1433     1   0.10969 276646.080000
   1434   1435     1   0.10969 276646.080000
   1434   1436     1   0.10969 276646.080000
   1437   1438     1   0.10969 276646.080000
   1437   1439     1   0.10969 276646.080000
   1440   1441     1   0.10969 276646.080000
   1440   1442     1   0.10969 276646.080000
   1443   1444     1   0.10969 276646.080000
   1443   1445     1   0.10969 276646.080000
   1446   1447     1   0.10969 276646.080000
   1446   1448     1   0.10969 276646.080000
   1451   1452     1   0.10969 276646.080000
   1451   1453     1   0.10969 276646.080000
   1454   1455     1   0.10969 276646.080000
   1454   1456     1   0.10969 276646.080000
   1457   1458     1   0.10969 276646.080000
   1457   1459     1   0.10969 276646.080000
   1460   1461     1   0.10969 276646.080000
   1460   1462     1   0.10969 276646.080000
   1463   1464     1   0.10969 276646.080000
   1463   1465     1   0.10969 276646.080000
   1466   1467     1   0.10969 276646.080000
   1466   1468     1   0.10969 276646.080000
   1469   1470     1   0.10969 276646.080000
   1469   1471     1   0.10969 276646.080000
   1472   1473     1   0.10969 276646.080000
   1472   1474     1   0.10969 276646.080000
   1475   1476     1   0.10969 276646.080000
   1475   1477     1   0.10969 276646.080000
   1480   1481     1   0.10969 276646.080000
   1480   1482     1   0.10969 276646.080000
   1483   1484     1   0.10969 276646.080000
   1483   1485     1   0.10969 276646.080000
   1486   1487     1   0.10969 276646.080000
   1486   1488     1   0.10969 276646.080000
   1489   1490     1   0.10969 276646.080000
   1489   1491     1   0.10969 276646.080000
   1492   1493     1   0.10969 276646.080000
   1492   1494     1   0.10969 276646.080000
   1495   1496     1   0.10969 276646.080000
   1495   1497     1   0.10969 276646.080000
   1498   1499     1   0.10969 276646.080000
   1498   1500     1   0.10969 276646.080000
   1501   1502     1   0.10969 276646.080000
   1501   1503     1   0.10969 276646.080000
   1504   1505     1   0.10969 276646.080000
   1504   1506     1   0.10969 276646.080000
   1509   1510     1   0.10969 276646.080000
   1509   1511     1   0.10969 276646.080000
   1512   1513     1   0.10969 276646.080000
   1512   1514     1   0.10969 276646.080000
   1515   1516     1   0.10969 276646.080000
   1515   1517     1   0.10969 276646.080000
   1518   1519     1   0.10969 276646.080000
   1518   1520     1   0.10969 276646.080000
   1521   1522     1   0.10969 276646.080000
   1521   1523     1   0.10969 276646.080000
   1524   1525     1   0.10969 276646.080000
   1524   1526     1   0.10969 276646.080000
   1527   1528     1   0.10969 276646.080000
   1527   1529     1   0.10969 276646.080000
   1530   1531     1   0.10969 276646.080000
   1530   1532     1   0.10969 276646.080000
   1533   1534     1   0.10969 276646.080000
   1533   1535     1   0.10969 276646.080000
   1538   1539     1   0.10969 276646.080000
   1538   1540     1   0.10969 276646.080000
   1541   1542     1   0.10969 276646.080000
   1541   1543     1   0.10969 276646.080000
   1544   1545     1   0.10969 276646.080000
   1544   1546     1   0.10969 276646.080000
   1547   1548     1   0.10969 276646.080000
   1547   1549     1   0.10969 276646.080000
   1550   1551     1   0.10969 276646.080000
   1550   1552     1   0.10969 276646.080000
   1553   1554     1   0.10969 276646.080000
   1553   1555     1   0.10969 276646.080000
   1556   1557     1   0.10969 276646.080000
   1556   1558     1   0.10969 276646.080000
   1559   1560     1   0.10969 276646.080000
   1559   1561     1   0.10969 276646.080000
   1562   1563     1   0.10969 276646.080000
   1562   1564     1   0.10969 276646.080000
   1567   1568     1   0.10969 276646.080000
   1567   1569     1   0.10969 276646.080000
   1570   1571     1   0.10969 276646.080000
   1570   1572     1   0.10969 276646.080000
   1573   1574     1   0.10969 276646.080000
   1573   1575     1   0.10969 276646.080000
   1576   1577     1   0.10969 276646.080000
   1576   1578     1   0.10969 276646.080000
   1579   1580     1   0.10969 276646.080000
   1579   1581     1   0.10969 276646.080000
   1582   1583     1   0.10969 276646.080000
   1582   1584     1   0.10969 276646.080000
   1585   1586     1   0.10969 276646.080000
   1585   1587     1   0.10969 276646.080000
   1588   1589     1   0.10969 276646.080000
   1588   1590     1   0.10969 276646.080000
   1591   1592     1   0.10969 276646.080000
   1591   1593     1   0.10969 276646.080000
   1596   1597     1   0.10969 276646.080000
   1596   1598     1   0.10969 276646.080000
   1599   1600     1   0.10969 276646.080000
   1599   1601     1   0.10969 276646.080000
   1602   1603     1   0.10969 276646.080000
   1602   1604     1   0.10969 276646.080000
   1605   1606     1   0.10969 276646.080000
   1605   1607     1   0.10969 276646.080000
   1608   1609     1   0.10969 276646.080000
   1608   1610     1   0.10969 276646.080000
   1611   1612     1   0.10969 276646.080000
   1611   1613     1   0.10969 276646.080000
   1614   1615     1   0.10969 276646.080000
   1614   1616     1   0.10969 276646.080000
   1617   1618     1   0.10969 276646.080000
   1617   1619     1   0.10969 276646.080000
   1620   1621     1   0.10969 276646.080000
   1620   1622     1   0.10969 276646.080000
   1625   1626     1   0.10969 276646.080000
   1625   1627     1   0.10969 276646.080000
   1628   1629     1   0.10969 276646.080000
   1628   1630     1   0.10969 276646.080000
   1631   1632     1   0.10969 276646.080000
   1631   1633     1   0.10969 276646.080000
   1634   1635     1   0.10969 276646.080000
   1634   1636     1   0.10969 276646.080000
   1637   1638     1   0.10969 276646.080000
   1637   1639     1   0.10969 276646.080000
   1640   1641     1   0.10969 276646.080000
   1640   1642     1   0.10969 276646.080000
   1643   1644     1   0.10969 276646.080000
   1643   1645     1   0.10969 276646.080000
   1646   1647     1   0.10969 276646.080000
   1646   1648     1   0.10969 276646.080000
   1649   1650     1   0.10969 276646.080000
   1649   1651     1   0.10969 276646.080000
   1654   1655     1   0.10969 276646.080000
   1654   1656     1   0.10969 276646.080000
   1657   1658     1   0.10969 276646.080000
   1657   1659     1   0.10969 276646.080000
   1660   1661     1   0.10969 276646.080000
   1660   1662     1   0.10969 276646.080000
   1663   1664     1   0.10969 276646.080000
   1663   1665     1   0.10969 276646.080000
   1666   1667     1   0.10969 276646.080000
   1666   1668     1   0.10969 276646.080000
   1669   1670     1   0.10969 276646.080000
   1669   1671     1   0.10969 276646.080000
   1672   1673     1   0.10969 276646.080000
   1672   1674     1   0.10969 276646.080000
   1675   1676     1   0.10969 276646.080000
   1675   1677     1   0.10969 276646.080000
   1678   1679     1   0.10969 276646.080000
   1678   1680     1   0.10969 276646.080000
   1683   1684     1   0.10969 276646.080000
   1683   1685     1   0.10969 276646.080000
   1686   1687     1   0.10969 276646.080000
   1686   1688     1   0.10969 276646.080000
   1689   1690     1   0.10969 276646.080000
   1689   1691     1   0.10969 276646.080000
   1692   1693     1   0.10969 276646.080000
   1692   1694     1   0.10969 276646.080000
   1695   1696     1   0.10969 276646.080000
   1695   1697     1   0.10969 276646.080000
   1698   1699     1   0.10969 276646.080000
   1698   1700     1   0.10969 276646.080000
   1701   1702     1   0.10969 276646.080000
   1701   1703     1   0.10969 276646.080000
   1704   1705     1   0.10969 276646.080000
   1704   1706     1   0.10969 276646.080000
   1707   1708     1   0.10969 276646.080000
   1707   1709     1   0.10969 276646.080000
   1712   1713     1   0.10969 276646.080000
   1712   1714     1   0.10969 276646.080000
   1715   1716     1   0.10969 276646.080000
   1715   1717     1   0.10969 276646.080000
   1718   1719     1   0.10969 276646.080000
   1718   1720     1   0.10969 276646.080000
   1721   1722     1   0.10969 276646.080000
   1721   1723     1   0.10969 276646.080000
   1724   1725     1   0.10969 276646.080000
   1724   1726     1   0.10969 276646.080000
   1727   1728     1   0.10969 276646.080000
   1727   1729     1   0.10969 276646.080000
   1730   1731     1   0.10969 276646.080000
   1730   1732     1   0.10969 276646.080000
   1733   1734     1   0.10969 276646.080000
   1733   1735     1   0.10969 276646.080000
   1736   1737     1   0.10969 276646.080000
   1736   1738     1   0.10969 276646.080000
   1741   1742     1   0.10969 276646.080000
   1741   1743     1   0.10969 276646.080000
   1744   1745     1   0.10969 276646.080000
   1744   1746     1   0.10969 276646.080000
   1747   1748     1   0.10969 276646.080000
   1747   1749     1   0.10969 276646.080000
   1750   1751     1   0.10969 276646.080000
   1750   1752     1   0.10969 276646.080000
   1753   1754     1   0.10969 276646.080000
   1753   1755     1   0.10969 276646.080000
   1756   1757     1   0.10969 276646.080000
   1756   1758     1   0.10969 276646.080000
   1759   1760     1   0.10969 276646.080000
   1759   1761     1   0.10969 276646.080000
   1762   1763     1   0.10969 276646.080000
   1762   1764     1   0.10969 276646.080000
   1765   1766     1   0.10969 276646.080000
   1765   1767     1   0.10969 276646.080000
   1770   1771     1   0.10969 276646.080000
   1770   1772     1   0.10969 276646.080000
   1773   1774     1   0.10969 276646.080000
   1773   1775     1   0.10969 276646.080000
   1776   1777     1   0.10969 276646.080000
   1776   1778     1   0.10969 276646.080000
   1779   1780     1   0.10969 276646.080000
   1779   1781     1   0.10969 276646.080000
   1782   1783     1   0.10969 276646.080000
   1782   1784     1   0.10969 276646.080000
   1785   1786     1   0.10969 276646.080000
   1785   1787     1   0.10969 276646.080000
   1788   1789     1   0.10969 276646.080000
   1788   1790     1   0.10969 276646.080000
   1791   1792     1   0.10969 276646.080000
   1791   1793     1   0.10969 276646.080000
   1794   1795     1   0.10969 276646.080000
   1794   1796     1   0.10969 276646.080000
   1799   1800     1   0.10969 276646.080000
   1799   1801     1   0.10969 276646.080000
   1802   1803     1   0.10969 276646.080000
   1802   1804     1   0.10969 276646.080000
   1805   1806     1   0.10969 276646.080000
   1805   1807     1   0.10969 276646.080000
   1808   1809     1   0.10969 276646.080000
   1808   1810     1   0.10969 276646.080000
   1811   1812     1   0.10969 276646.080000
   1811   1813     1   0.10969 276646.080000
   1814   1815     1   0.10969 276646.080000
   1814   1816     1   0.10969 276646.080000
   1817   1818     1   0.10969 276646.080000
   1817   1819     1   0.10969 276646.080000
   1820   1821     1   0.10969 276646.080000
   1820   1822     1   0.10969 276646.080000
   1823   1824     1   0.10969 276646.080000
   1823   1825     1   0.10969 276646.080000
   1828   1829     1   0.10969 276646.080000
   1828   1830     1   0.10969 276646.080000
   1831   1832     1   0.10969 276646.080000
   1831   1833     1   0.10969 276646.080000
   1834   1835     1   0.10969 276646.080000
   1834   1836     1   0.10969 276646.080000
   1837   1838     1   0.10969 276646.080000
   1837   1839     1   0.10969 276646.080000
   1840   1841     1   0.10969 276646.080000
   1840   1842     1   0.10969 276646.080000
   1843   1844     1   0.10969 276646.080000
   1843   1845     1   0.10969 276646.080000
   1846   1847     1   0.10969 276646.080000
   1846   1848     1   0.10969 276646.080000
   1849   1850     1   0.10969 276646.080000
   1849   1851     1   0.10969 276646.080000
   1852   1853     1   0.10969 276646.080000
   1852   1854     1   0.10969 276646.080000
   1857   1858     1   0.10969 276646.080000
   1857   1859     1   0.10969 276646.080000
   1860   1861     1   0.10969 276646.080000
   1860   1862     1   0.10969 276646.080000
   1863   1864     1   0.10969 276646.080000
   1863   1865     1   0.10969 276646.080000
   1866   1867     1   0.10969 276646.080000
   1866   1868     1   0.10969 276646.080000
   1869   1870     1   0.10969 276646.080000
   1869   1871     1   0.10969 276646.080000
   1872   1873     1   0.10969 276646.080000
   1872   1874     1   0.10969 276646.080000
   1875   1876     1   0.10969 276646.080000
   1875   1877     1   0.10969 276646.080000
   1878   1879     1   0.10969 276646.080000
   1878   1880     1   0.10969 276646.080000
   1881   1882     1   0.10969 276646.080000
   1881   1883     1   0.10969 276646.080000
   1886   1887     1   0.10969 276646.080000
   1886   1888     1   0.10969 276646.080000
   1889   1890     1   0.10969 276646.080000
   1889   1891     1   0.10969 276646.080000
   1892   1893     1   0.10969 276646.080000
   1892   1894     1   0.10969 276646.080000
   1895   1896     1   0.10969 276646.080000
   1895   1897     1   0.10969 276646.080000
   1898   1899     1   0.10969 276646.080000
   1898   1900     1   0.10969 276646.080000
   1901   1902     1   0.10969 276646.080000
   1901   1903     1   0.10969 276646.080000
   1904   1905     1   0.10969 276646.080000
   1904   1906     1   0.10969 276646.080000
   1907   1908     1   0.10969 276646.080000
   1907   1909     1   0.10969 276646.080000
   1910   1911     1   0.10969 276646.080000
   1910   1912     1   0.10969 276646.080000
   1915   1916     1   0.10969 276646.080000
   1915   1917     1   0.10969 276646.080000
   1918   1919     1   0.10969 276646.080000
   1918   1920     1   0.10969 276646.080000
   1921   1922     1   0.10969 276646.080000
   1921   1923     1   0.10969 276646.080000
   1924   1925     1   0.10969 276646.080000
   1924   1926     1   0.10969 276646.080000
   1927   1928     1   0.10969 276646.080000
   1927   1929     1   0.10969 276646.080000
   1930   1931     1   0.10969 276646.080000
   1930   1932     1   0.10969 276646.080000
   1933   1934     1   0.10969 276646.080000
   1933   1935     1   0.10969 276646.080000
   1936   1937     1   0.10969 276646.080000
   1936   1938     1   0.10969 276646.080000
   1939   1940     1   0.10969 276646.080000
   1939   1941     1   0.10969 276646.080000
   1944   1945     1   0.10969 276646.080000
   1944   1946     1   0.10969 276646.080000
   1947   1948     1   0.10969 276646.080000
   1947   1949     1   0.10969 276646.080000
   1950   1951     1   0.10969 276646.080000
   1950   1952     1   0.10969 276646.080000
   1953   1954     1   0.10969 276646.080000
   1953   1955     1   0.10969 276646.080000
   1956   1957     1   0.10969 276646.080000
   1956   1958     1   0.10969 276646.080000
   1959   1960     1   0.10969 276646.080000
   1959   1961     1   0.10969 276646.080000
   1962   1963     1   0.10969 276646.080000
   1962   1964     1   0.10969 276646.080000
   1965   1966     1   0.10969 276646.080000
   1965   1967     1   0.10969 276646.080000
   1968   1969     1   0.10969 276646.080000
   1968   1970     1   0.10969 276646.080000
   1973   1974     1   0.10969 276646.080000
   1973   1975     1   0.10969 276646.080000
   1976   1977     1   0.10969 276646.080000
   1976   1978     1   0.10969 276646.080000
   1979   1980     1   0.10969 276646.080000
   1979   1981     1   0.10969 276646.080000
   1982   1983     1   0.10969 276646.080000
   1982   1984     1   0.10969 276646.080000
   1985   1986     1   0.10969 276646.080000
   1985   1987     1   0.10969 276646.080000
   1988   1989     1   0.10969 276646.080000
   1988   1990     1   0.10969 276646.080000
   1991   1992     1   0.10969 276646.080000
   1991   1993     1   0.10969 276646.080000
   1994   1995     1   0.10969 276646.080000
   1994   1996     1   0.10969 276646.080000
   1997   1998     1   0.10969 276646.080000
   1997   1999     1   0.10969 276646.080000
   2002   2003     1   0.10969 276646.080000
   2002   2004     1   0.10969 276646.080000
   2005   2006     1   0.10969 276646.080000
   2005   2007     1   0.10969 276646.080000
   2008   2009     1   0.10969 276646.080000
   2008   2010     1   0.10969 276646.080000
   2011   2012     1   0.10969 276646.080000
   2011   2013     1   0.10969 276646.080000
   2014   2015     1   0.10969 276646.080000
   2014   2016     1   0.10969 276646.080000
   2017   2018     1   0.10969 276646.080000
   2017   2019     1   0.10969 276646.080000
   2020   2021     1   0.10969 276646.080000
   2020   2022     1   0.10969 276646.080000
   2023   2024     1   0.10969 276646.080000
   2023   2025     1   0.10969 276646.080000
   2026   2027     1   0.10969 276646.080000
   2026   2028     1   0.10969 276646.080000
   2031   2032     1   0.10969 276646.080000
   2031   2033     1   0.10969 276646.080000
   2034   2035     1   0.10969 276646.080000
   2034   2036     1   0.10969 276646.080000
   2037   2038     1   0.10969 276646.080000
   2037   2039     1   0.10969 276646.080000
   2040   2041     1   0.10969 276646.080000
   2040   2042     1   0.10969 276646.080000
   2043   2044     1   0.10969 276646.080000
   2043   2045     1   0.10969 276646.080000
   2046   2047     1   0.10969 276646.080000
   2046   2048     1   0.10969 276646.080000
   2049   2050     1   0.10969 276646.080000
   2049   2051     1   0.10969 276646.080000
   2052   2053     1   0.10969 276646.080000
   2052   2054     1   0.10969 276646.080000
   2055   2056     1   0.10969 276646.080000
   2055   2057     1   0.10969 276646.080000
   2060   2061     1   0.10969 276646.080000
   2060   2062     1   0.10969 276646.080000
   2063   2064     1   0.10969 276646.080000
   2063   2065     1   0.10969 276646.080000
   2066   2067     1   0.10969 276646.080000
   2066   2068     1   0.10969 276646.080000
   2069   2070     1   0.10969 276646.080000
   2069   2071     1   0.10969 276646.080000
   2072   2073     1   0.10969 276646.080000
   2072   2074     1   0.10969 276646.080000
   2075   2076     1   0.10969 276646.080000
   2075   2077     1   0.10969 276646.080000
   2078   2079     1   0.10969 276646.080000
   2078   2080     1   0.10969 276646.080000
   2081   2082     1   0.10969 276646.080000
   2081   2083     1   0.10969 276646.080000
   2084   2085     1   0.10969 276646.080000
   2084   2086     1   0.10969 276646.080000
   2089   2090     1   0.10969 276646.080000
   2089   2091     1   0.10969 276646.080000
   2092   2093     1   0.10969 276646.080000
   2092   2094     1   0.10969 276646.080000
   2095   2096     1   0.10969 276646.080000
   2095   2097     1   0.10969 276646.080000
   2098   2099     1   0.10969 276646.080000
   2098   2100     1   0.10969 276646.080000
   2101   2102     1   0.10969 276646.080000
   2101   2103     1   0.10969 276646.080000
   2104   2105     1   0.10969 276646.080000
   2104   2106     1   0.10969 276646.080000
   2107   2108     1   0.10969 276646.080000
   2107   2109     1   0.10969 276646.080000
   2110   2111     1   0.10969 276646.080000
   2110   2112     1   0.10969 276646.080000
   2113   2114     1   0.10969 276646.080000
   2113   2115     1   0.10969 276646.080000
   2118   2119     1   0.10969 276646.080000
   2118   2120     1   0.10969 276646.080000
   2121   2122     1   0.10969 276646.080000
   2121   2123     1   0.10969 276646.080000
   2124   2125     1   0.10969 276646.080000
   2124   2126     1   0.10969 276646.080000
   2127   2128     1   0.10969 276646.080000
   2127   2129     1   0.10969 276646.080000
   2130   2131     1   0.10969 276646.080000
   2130   2132     1   0.10969 276646.080000
   2133   2134     1   0.10969 276646.080000
   2133   2135     1   0.10969 276646.080000
   2136   2137     1   0.10969 276646.080000
   2136   2138     1   0.10969 276646.080000
   2139   2140     1   0.10969 276646.080000
   2139   2141     1   0.10969 276646.080000
   2142   2143     1   0.10969 276646.080000
   2142   2144     1   0.10969 276646.080000
   2147   2148     1   0.10969 276646.080000
   2147   2149     1   0.10969 276646.080000
   2150   2151     1   0.10969 276646.080000
   2150   2152     1   0.10969 276646.080000
   2153   2154     1   0.10969 276646.080000
   2153   2155     1   0.10969 276646.080000
   2156   2157     1   0.10969 276646.080000
   2156   2158     1   0.10969 276646.080000
   2159   2160     1   0.10969 276646.080000
   2159   2161     1   0.10969 276646.080000
   2162   2163     1   0.10969 276646.080000
   2162   2164     1   0.10969 276646.080000
   2165   2166     1   0.10969 276646.080000
   2165   2167     1   0.10969 276646.080000
   2168   2169     1   0.10969 276646.080000
   2168   2170     1   0.10969 276646.080000
   2171   2172     1   0.10969 276646.080000
   2171   2173     1   0.10969 276646.080000
   2176   2177     1   0.10969 276646.080000
   2176   2178     1   0.10969 276646.080000
   2179   2180     1   0.10969 276646.080000
   2179   2181     1   0.10969 276646.080000
   2182   2183     1   0.10969 276646.080000
   2182   2184     1   0.10969 276646.080000
   2185   2186     1   0.10969 276646.080000
   2185   2187     1   0.10969 276646.080000
   2188   2189     1   0.10969 276646.080000
   2188   2190     1   0.10969 276646.080000
   2191   2192     1   0.10969 276646.080000
   2191   2193     1   0.10969 276646.080000
   2194   2195     1   0.10969 276646.080000
   2194   2196     1   0.10969 276646.080000
   2197   2198     1   0.10969 276646.080000
   2197   2199     1   0.10969 276646.080000
   2200   2201     1   0.10969 276646.080000
   2200   2202     1   0.10969 276646.080000
   2205   2206     1   0.10969 276646.080000
   2205   2207     1   0.10969 276646.080000
   2208   2209     1   0.10969 276646.080000
   2208   2210     1   0.10969 276646.080000
   2211   2212     1   0.10969 276646.080000
   2211   2213     1   0.10969 276646.080000
   2214   2215     1   0.10969 276646.080000
   2214   2216     1   0.10969 276646.080000
   2217   2218     1   0.10969 276646.080000
   2217   2219     1   0.10969 276646.080000
   2220   2221     1   0.10969 276646.080000
   2220   2222     1   0.10969 276646.080000
   2223   2224     1   0.10969 276646.080000
   2223   2225     1   0.10969 276646.080000
   2226   2227     1   0.10969 276646.080000
   2226   2228     1   0.10969 276646.080000
   2229   2230     1   0.10969 276646.080000
   2229   2231     1   0.10969 276646.080000
   2234   2235     1   0.10969 276646.080000
   2234   2236     1   0.10969 276646.080000
   2237   2238     1   0.10969 276646.080000
   2237   2239     1   0.10969 276646.080000
   2240   2241     1   0.10969 276646.080000
   2240   2242     1   0.10969 276646.080000
   2243   2244     1   0.10969 276646.080000
   2243   2245     1   0.10969 276646.080000
   2246   2247     1   0.10969 276646.080000
   2246   2248     1   0.10969 276646.080000
   2249   2250     1   0.10969 276646.080000
   2249   2251     1   0.10969 276646.080000
   2252   2253     1   0.10969 276646.080000
   2252   2254     1   0.10969 276646.080000
   2255   2256     1   0.10969 276646.080000
   2255   2257     1   0.10969 276646.080000
   2258   2259     1   0.10969 276646.080000
   2258   2260     1   0.10969 276646.080000
   2263   2264     1   0.10969 276646.080000
   2263   2265     1   0.10969 276646.080000
   2266   2267     1   0.10969 276646.080000
   2266   2268     1   0.10969 276646.080000
   2269   2270     1   0.10969 276646.080000
   2269   2271     1   0.10969 276646.080000
   2272   2273     1   0.10969 276646.080000
   2272   2274     1   0.10969 276646.080000
   2275   2276     1   0.10969 276646.080000
   2275   2277     1   0.10969 276646.080000
   2278   2279     1   0.10969 276646.080000
   2278   2280     1   0.10969 276646.080000
   2281   2282     1   0.10969 276646.080000
   2281   2283     1   0.10969 276646.080000
   2284   2285     1   0.10969 276646.080000
   2284   2286     1   0.10969 276646.080000
   2287   2288     1   0.10969 276646.080000
   2287   2289     1   0.10969 276646.080000
   2292   2293     1   0.10969 276646.080000
   2292   2294     1   0.10969 276646.080000
   2295   2296     1   0.10969 276646.080000
   2295   2297     1   0.10969 276646.080000
   2298   2299     1   0.10969 276646.080000
   2298   2300     1   0.10969 276646.080000
   2301   2302     1   0.10969 276646.080000
   2301   2303     1   0.10969 276646.080000
   2304   2305     1   0.10969 276646.080000
   2304   2306     1   0.10969 276646.080000
   2307   2308     1   0.10969 276646.080000
   2307   2309     1   0.10969 276646.080000
   2310   2311     1   0.10969 276646.080000
   2310   2312     1   0.10969 276646.080000
   2313   2314     1   0.10969 276646.080000
   2313   2315     1   0.10969 276646.080000
   2316   2317     1   0.10969 276646.080000
   2316   2318     1   0.10969 276646.080000
   2321   2322     1   0.10969 276646.080000
   2321   2323     1   0.10969 276646.080000
   2324   2325     1   0.10969 276646.080000
   2324   2326     1   0.10969 276646.080000
   2327   2328     1   0.10969 276646.080000
   2327   2329     1   0.10969 276646.080000
   2330   2331     1   0.10969 276646.080000
   2330   2332     1   0.10969 276646.080000
   2333   2334     1   0.10969 276646.080000
   2333   2335     1   0.10969 276646.080000
   2336   2337     1   0.10969 276646.080000
   2336   2338     1   0.10969 276646.080000
   2339   2340     1   0.10969 276646.080000
   2339   2341     1   0.10969 276646.080000
   2342   2343     1   0.10969 276646.080000
   2342   2344     1   0.10969 276646.080000
   2345   2346     1   0.10969 276646.080000
   2345   2347     1   0.10969 276646.080000
   2350   2351     1   0.10969 276646.080000
   2350   2352     1   0.10969 276646.080000
   2353   2354     1   0.10969 276646.080000
   2353   2355     1   0.10969 276646.080000
   2356   2357     1   0.10969 276646.080000
   2356   2358     1   0.10969 276646.080000
   2359   2360     1   0.10969 276646.080000
   2359   2361     1   0.10969 276646.080000
   2362   2363     1   0.10969 276646.080000
   2362   2364     1   0.10969 276646.080000
   2365   2366     1   0.10969 276646.080000
   2365   2367     1   0.10969 276646.080000
   2368   2369     1   0.10969 276646.080000
   2368   2370     1   0.10969 276646.080000
   2371   2372     1   0.10969 276646.080000
   2371   2373     1   0.10969 276646.080000
   2374   2375     1   0.10969 276646.080000
   2374   2376     1   0.10969 276646.080000
   2379   2380     1   0.10969 276646.080000
   2379   2381     1   0.10969 276646.080000
   2382   2383     1   0.10969 276646.080000
   2382   2384     1   0.10969 276646.080000
   2385   2386     1   0.10969 276646.080000
   2385   2387     1   0.10969 276646.080000
   2388   2389     1   0.10969 276646.080000
   2388   2390     1   0.10969 276646.080000
   2391   2392     1   0.10969 276646.080000
   2391   2393     1   0.10969 276646.080000
   2394   2395     1   0.10969 276646.080000
   2394   2396     1   0.10969 276646.080000
   2397   2398     1   0.10969 276646.080000
   2397   2399     1   0.10969 276646.080000
   2400   2401     1   0.10969 276646.080000
   2400   2402     1   0.10969 276646.080000
   2403   2404     1   0.10969 276646.080000
   2403   2405     1   0.10969 276646.080000
   2408   2409     1   0.10969 276646.080000
   2408   2410     1   0.10969 276646.080000
   2411   2412     1   0.10969 276646.080000
   2411   2413     1   0.10969 276646.080000
   2414   2415     1   0.10969 276646.080000
   2414   2416     1   0.10969 276646.080000
   2417   2418     1   0.10969 276646.080000
   2417   2419     1   0.10969 276646.080000
   2420   2421     1   0.10969 276646.080000
   2420   2422     1   0.10969 276646.080000
   2423   2424     1   0.10969 276646.080000
   2423   2425     1   0.10969 276646.080000
   2426   2427     1   0.10969 276646.080000
   2426   2428     1   0.10969 276646.080000
   2429   2430     1   0.10969 276646.080000
   2429   2431     1   0.10969 276646.080000
   2432   2433     1   0.10969 276646.080000
   2432   2434     1   0.10969 276646.080000
   2437   2438     1   0.10969 276646.080000
   2437   2439     1   0.10969 276646.080000
   2440   2441     1   0.10969 276646.080000
   2440   2442     1   0.10969 276646.080000
   2443   2444     1   0.10969 276646.080000
   2443   2445     1   0.10969 276646.080000
   2446   2447     1   0.10969 276646.080000
   2446   2448     1   0.10969 276646.080000
   2449   2450     1   0.10969 276646.080000
   2449   2451     1   0.10969 276646.080000
   2452   2453     1   0.10969 276646.080000
   2452   2454     1   0.10969 276646.080000
   2455   2456     1   0.10969 276646.080000
   2455   2457     1   0.10969 276646.080000
   2458   2459     1   0.10969 276646.080000
   2458   2460     1   0.10969 276646.080000
   2461   2462     1   0.10969 276646.080000
   2461   2463     1   0.10969 276646.080000
   2466   2467     1   0.10969 276646.080000
   2466   2468     1   0.10969 276646.080000
   2469   2470     1   0.10969 276646.080000
   2469   2471     1   0.10969 276646.080000
   2472   2473     1   0.10969 276646.080000
   2472   2474     1   0.10969 276646.080000
   2475   2476     1   0.10969 276646.080000
   2475   2477     1   0.10969 276646.080000
   2478   2479     1   0.10969 276646.080000
   2478   2480     1   0.10969 276646.080000
   2481   2482     1   0.10969 276646.080000
   2481   2483     1   0.10969 276646.080000
   2484   2485     1   0.10969 276646.080000
   2484   2486     1   0.10969 276646.080000
   2487   2488     1   0.10969 276646.080000
   2487   2489     1   0.10969 276646.080000
   2490   2491     1   0.10969 276646.080000
   2490   2492     1   0.10969 276646.080000
   2495   2496     1   0.10969 276646.080000
   2495   2497     1   0.10969 276646.080000
   2498   2499     1   0.10969 276646.080000
   2498   2500     1   0.10969 276646.080000
   2501   2502     1   0.10969 276646.080000
   2501   2503     1   0.10969 276646.080000
   2504   2505     1   0.10969 276646.080000
   2504   2506     1   0.10969 276646.080000
   2507   2508     1   0.10969 276646.080000
   2507   2509     1   0.10969 276646.080000
   2510   2511     1   0.10969 276646.080000
   2510   2512     1   0.10969 276646.080000
   2513   2514     1   0.10969 276646.080000
   2513   2515     1   0.10969 276646.080000
   2516   2517     1   0.10969 276646.080000
   2516   2518     1   0.10969 276646.080000
   2519   2520     1   0.10969 276646.080000
   2519   2521     1   0.10969 276646.080000
   2524   2525     1   0.10969 276646.080000
   2524   2526     1   0.10969 276646.080000
   2527   2528     1   0.10969 276646.080000
   2527   2529     1   0.10969 276646.080000
   2530   2531     1   0.10969 276646.080000
   2530   2532     1   0.10969 276646.080000
   2533   2534     1   0.10969 276646.080000
   2533   2535     1   0.10969 276646.080000
   2536   2537     1   0.10969 276646.080000
   2536   2538     1   0.10969 276646.080000
   2539   2540     1   0.10969 276646.080000
   2539   2541     1   0.10969 276646.080000
   2542   2543     1   0.10969 276646.080000
   2542   2544     1   0.10969 276646.080000
   2545   2546     1   0.10969 276646.080000
   2545   2547     1   0.10969 276646.080000
   2548   2549     1   0.10969 276646.080000
   2548   2550     1   0.10969 276646.080000
   2553   2554     1   0.10969 276646.080000
   2553   2555     1   0.10969 276646.080000
   2556   2557     1   0.10969 276646.080000
   2556   2558     1   0.10969 276646.080000
   2559   2560     1   0.10969 276646.080000
   2559   2561     1   0.10969 276646.080000
   2562   2563     1   0.10969 276646.080000
   2562   2564     1   0.10969 276646.080000
   2565   2566     1   0.10969 276646.080000
   2565   2567     1   0.10969 276646.080000
   2568   2569     1   0.10969 276646.080000
   2568   2570     1   0.10969 276646.080000
   2571   2572     1   0.10969 276646.080000
   2571   2573     1   0.10969 276646.080000
   2574   2575     1   0.10969 276646.080000
   2574   2576     1   0.10969 276646.080000
   2577   2578     1   0.10969 276646.080000
   2577   2579     1   0.10969 276646.080000
   2582   2583     1   0.10969 276646.080000
   2582   2584     1   0.10969 276646.080000
   2585   2586     1   0.10969 276646.080000
   2585   2587     1   0.10969 276646.080000
   2588   2589     1   0.10969 276646.080000
   2588   2590     1   0.10969 276646.080000
   2591   2592     1   0.10969 276646.080000
   2591   2593     1   0.10969 276646.080000
   2594   2595     1   0.10969 276646.080000
   2594   2596     1   0.10969 276646.080000
   2597   2598     1   0.10969 276646.080000
   2597   2599     1   0.10969 276646.080000
   2600   2601     1   0.10969 276646.080000
   2600   2602     1   0.10969 276646.080000
   2603   2604     1   0.10969 276646.080000
   2603   2605     1   0.10969 276646.080000
   2606   2607     1   0.10969 276646.080000
   2606   2608     1   0.10969 276646.080000
   2611   2612     1   0.10969 276646.080000
   2611   2613     1   0.10969 276646.080000
   2614   2615     1   0.10969 276646.080000
   2614   2616     1   0.10969 276646.080000
   2617   2618     1   0.10969 276646.080000
   2617   2619     1   0.10969 276646.080000
   2620   2621     1   0.10969 276646.080000
   2620   2622     1   0.10969 276646.080000
   2623   2624     1   0.10969 276646.080000
   2623   2625     1   0.10969 276646.080000
   2626   2627     1   0.10969 276646.080000
   2626   2628     1   0.10969 276646.080000
   2629   2630     1   0.10969 276646.080000
   2629   2631     1   0.10969 276646.080000
   2632   2633     1   0.10969 276646.080000
   2632   2634     1   0.10969 276646.080000
   2635   2636     1   0.10969 276646.080000
   2635   2637     1   0.10969 276646.080000
   2640   2641     1   0.10969 276646.080000
   2640   2642     1   0.10969 276646.080000
   2643   2644     1   0.10969 276646.080000
   2643   2645     1   0.10969 276646.080000
   2646   2647     1   0.10969 276646.080000
   2646   2648     1   0.10969 276646.080000
   2649   2650     1   0.10969 276646.080000
   2649   2651     1   0.10969 276646.080000
   2652   2653     1   0.10969 276646.080000
   2652   2654     1   0.10969 276646.080000
   2655   2656     1   0.10969 276646.080000
   2655   2657     1   0.10969 276646.080000
   2658   2659     1   0.10969 276646.080000
   2658   2660     1   0.10969 276646.080000
   2661   2662     1   0.10969 276646.080000
   2661   2663     1   0.10969 276646.080000
   2664   2665     1   0.10969 276646.080000
   2664   2666     1   0.10969 276646.080000
   2669   2670     1   0.10969 276646.080000
   2669   2671     1   0.10969 276646.080000
   2672   2673     1   0.10969 276646.080000
   2672   2674     1   0.10969 276646.080000
   2675   2676     1   0.10969 276646.080000
   2675   2677     1   0.10969 276646.080000
   2678   2679     1   0.10969 276646.080000
   2678   2680     1   0.10969 276646.080000
   2681   2682     1   0.10969 276646.080000
   2681   2683     1   0.10969 276646.080000
   2684   2685     1   0.10969 276646.080000
   2684   2686     1   0.10969 276646.080000
   2687   2688     1   0.10969 276646.080000
   2687   2689     1   0.10969 276646.080000
   2690   2691     1   0.10969 276646.080000
   2690   2692     1   0.10969 276646.080000
   2693   2694     1   0.10969 276646.080000
   2693   2695     1   0.10969 276646.080000
   2698   2699     1   0.10969 276646.080000
   2698   2700     1   0.10969 276646.080000
   2701   2702     1   0.10969 276646.080000
   2701   2703     1   0.10969 276646.080000
   2704   2705     1   0.10969 276646.080000
   2704   2706     1   0.10969 276646.080000
   2707   2708     1   0.10969 276646.080000
   2707   2709     1   0.10969 276646.080000
   2710   2711     1   0.10969 276646.080000
   2710   2712     1   0.10969 276646.080000
   2713   2714     1   0.10969 276646.080000
   2713   2715     1   0.10969 276646.080000
   2716   2717     1   0.10969 276646.080000
   2716   2718     1   0.10969 276646.080000
   2719   2720     1   0.10969 276646.080000
   2719   2721     1   0.10969 276646.080000
   2722   2723     1   0.10969 276646.080000
   2722   2724     1   0.10969 276646.080000
   2727   2728     1   0.10969 276646.080000
   2727   2729     1   0.10969 276646.080000
   2730   2731     1   0.10969 276646.080000
   2730   2732     1   0.10969 276646.080000
   2733   2734     1   0.10969 276646.080000
   2733   2735     1   0.10969 276646.080000
   2736   2737     1   0.10969 276646.080000
   2736   2738     1   0.10969 276646.080000
   2739   2740     1   0.10969 276646.080000
   2739   2741     1   0.10969 276646.080000
   2742   2743     1   0.10969 276646.080000
   2742   2744     1   0.10969 276646.080000
   2745   2746     1   0.10969 276646.080000
   2745   2747     1   0.10969 276646.080000
   2748   2749     1   0.10969 276646.080000
   2748   2750     1   0.10969 276646.080000
   2751   2752     1   0.10969 276646.080000
   2751   2753     1   0.10969 276646.080000
   2756   2757     1   0.10969 276646.080000
   2756   2758     1   0.10969 276646.080000
   2759   2760     1   0.10969 276646.080000
   2759   2761     1   0.10969 276646.080000
   2762   2763     1   0.10969 276646.080000
   2762   2764     1   0.10969 276646.080000
   2765   2766     1   0.10969 276646.080000
   2765   2767     1   0.10969 276646.080000
   2768   2769     1   0.10969 276646.080000
   2768   2770     1   0.10969 276646.080000
   2771   2772     1   0.10969 276646.080000
   2771   2773     1   0.10969 276646.080000
   2774   2775     1   0.10969 276646.080000
   2774   2776     1   0.10969 276646.080000
   2777   2778     1   0.10969 276646.080000
   2777   2779     1   0.10969 276646.080000
   2780   2781     1   0.10969 276646.080000
   2780   2782     1   0.10969 276646.080000
   2785   2786     1   0.10969 276646.080000
   2785   2787     1   0.10969 276646.080000
   2788   2789     1   0.10969 276646.080000
   2788   2790     1   0.10969 276646.080000
   2791   2792     1   0.10969 276646.080000
   2791   2793     1   0.10969 276646.080000
   2794   2795     1   0.10969 276646.080000
   2794   2796     1   0.10969 276646.080000
   2797   2798     1   0.10969 276646.080000
   2797   2799     1   0.10969 276646.080000
   2800   2801     1   0.10969 276646.080000
   2800   2802     1   0.10969 276646.080000
   2803   2804     1   0.10969 276646.080000
   2803   2805     1   0.10969 276646.080000
   2806   2807     1   0.10969 276646.080000
   2806   2808     1   0.10969 276646.080000
   2809   2810     1   0.10969 276646.080000
   2809   2811     1   0.10969 276646.080000
   2814   2815     1   0.10969 276646.080000
   2814   2816     1   0.10969 276646.080000
   2817   2818     1   0.10969 276646.080000
   2817   2819     1   0.10969 276646.080000
   2820   2821     1   0.10969 276646.080000
   2820   2822     1   0.10969 276646.080000
   2823   2824     1   0.10969 276646.080000
   2823   2825     1   0.10969 276646.080000
   2826   2827     1   0.10969 276646.080000
   2826   2828     1   0.10969 276646.080000
   2829   2830     1   0.10969 276646.080000
   2829   2831     1   0.10969 276646.080000
   2832   2833     1   0.10969 276646.080000
   2832   2834     1   0.10969 276646.080000
   2835   2836     1   0.10969 276646.080000
   2835   2837     1   0.10969 276646.080000
   2838   2839     1   0.10969 276646.080000
   2838   2840     1   0.10969 276646.080000
   2843   2844     1   0.10969 276646.080000
   2843   2845     1   0.10969 276646.080000
   2846   2847     1   0.10969 276646.080000
   2846   2848     1   0.10969 276646.080000
   2849   2850     1   0.10969 276646.080000
   2849   2851     1   0.10969 276646.080000
   2852   2853     1   0.10969 276646.080000
   2852   2854     1   0.10969 276646.080000
   2855   2856     1   0.10969 276646.080000
   2855   2857     1   0.10969 276646.080000
   2858   2859     1   0.10969 276646.080000
   2858   2860     1   0.10969 276646.080000
   2861   2862     1   0.10969 276646.080000
   2861   2863     1   0.10969 276646.080000
   2864   2865     1   0.10969 276646.080000
   2864   2866     1   0.10969 276646.080000
   2867   2868     1   0.10969 276646.080000
   2867   2869     1   0.10969 276646.080000
   2872   2873     1   0.10969 276646.080000
   2872   2874     1   0.10969 276646.080000
   2875   2876     1   0.10969 276646.080000
   2875   2877     1   0.10969 276646.080000
   2878   2879     1   0.10969 276646.080000
   2878   2880     1   0.10969 276646.080000
   2881   2882     1   0.10969 276646.080000
   2881   2883     1   0.10969 276646.080000
   2884   2885     1   0.10969 276646.080000
   2884   2886     1   0.10969 276646.080000
   2887   2888     1   0.10969 276646.080000
   2887   2889     1   0.10969 276646.080000
   2890   2891     1   0.10969 276646.080000
   2890   2892     1   0.10969 276646.080000
   2893   2894     1   0.10969 276646.080000
   2893   2895     1   0.10969 276646.080000
   2896   2897     1   0.10969 276646.080000
   2896   2898     1   0.10969 276646.080000
   2901   2902     1   0.10969 276646.080000
   2901   2903     1   0.10969 276646.080000
   2904   2905     1   0.10969 276646.080000
   2904   2906     1   0.10969 276646.080000
   2907   2908     1   0.10969 276646.080000
   2907   2909     1   0.10969 276646.080000
   2910   2911     1   0.10969 276646.080000
   2910   2912     1   0.10969 276646.080000
   2913   2914     1   0.10969 276646.080000
   2913   2915     1   0.10969 276646.080000
   2916   2917     1   0.10969 276646.080000
   2916   2918     1   0.10969 276646.080000
   2919   2920     1   0.10969 276646.080000
   2919   2921     1   0.10969 276646.080000
   2922   2923     1   0.10969 276646.080000
   2922   2924     1   0.10969 276646.080000
   2925   2926     1   0.10969 276646.080000
   2925   2927     1   0.10969 276646.080000
   2930   2931     1   0.10969 276646.080000
   2930   2932     1   0.10969 276646.080000
   2933   2934     1   0.10969 276646.080000
   2933   2935     1   0.10969 276646.080000
   2936   2937     1   0.10969 276646.080000
   2936   2938     1   0.10969 276646.080000
   2939   2940     1   0.10969 276646.080000
   2939   2941     1   0.10969 276646.080000
   2942   2943     1   0.10969 276646.080000
   2942   2944     1   0.10969 276646.080000
   2945   2946     1   0.10969 276646.080000
   2945   2947     1   0.10969 276646.080000
   2948   2949     1   0.10969 276646.080000
   2948   2950     1   0.10969 276646.080000
   2951   2952     1   0.10969 276646.080000
   2951   2953     1   0.10969 276646.080000
   2954   2955     1   0.10969 276646.080000
   2954   2956     1   0.10969 276646.080000
   2959   2960     1   0.10969 276646.080000
   2959   2961     1   0.10969 276646.080000
   2962   2963     1   0.10969 276646.080000
   2962   2964     1   0.10969 276646.080000
   2965   2966     1   0.10969 276646.080000
   2965   2967     1   0.10969 276646.080000
   2968   2969     1   0.10969 276646.080000
   2968   2970     1   0.10969 276646.080000
   2971   2972     1   0.10969 276646.080000
   2971   2973     1   0.10969 276646.080000
   2974   2975     1   0.10969 276646.080000
   2974   2976     1   0.10969 276646.080000
   2977   2978     1   0.10969 276646.080000
   2977   2979     1   0.10969 276646.080000
   2980   2981     1   0.10969 276646.080000
   2980   2982     1   0.10969 276646.080000
   2983   2984     1   0.10969 276646.080000
   2983   2985     1   0.10969 276646.080000
   2988   2989     1   0.10969 276646.080000
   2988   2990     1   0.10969 276646.080000
   2991   2992     1   0.10969 276646.080000
   2991   2993     1   0.10969 276646.080000
   2994   2995     1   0.10969 276646.080000
   2994   2996     1   0.10969 276646.080000
   2997   2998     1   0.10969 276646.080000
   2997   2999     1   0.10969 276646.080000
   3000   3001     1   0.10969 276646.080000
   3000   3002     1   0.10969 276646.080000
   3003   3004     1   0.10969 276646.080000
   3003   3005     1   0.10969 276646.080000
   3006   3007     1   0.10969 276646.080000
   3006   3008     1   0.10969 276646.080000
   3009   3010     1   0.10969 276646.080000
   3009   3011     1   0.10969 276646.080000
   3012   3013     1   0.10969 276646.080000
   3012   3014     1   0.10969 276646.080000
   3017   3018     1   0.10969 276646.080000
   3017   3019     1   0.10969 276646.080000
   3020   3021     1   0.10969 276646.080000
   3020   3022     1   0.10969 276646.080000
   3023   3024     1   0.10969 276646.080000
   3023   3025     1   0.10969 276646.080000
   3026   3027     1   0.10969 276646.080000
   3026   3028     1   0.10969 276646.080000
   3029   3030     1   0.10969 276646.080000
   3029   3031     1   0.10969 276646.080000
   3032   3033     1   0.10969 276646.080000
   3032   3034     1   0.10969 276646.080000
   3035   3036     1   0.10969 276646.080000
   3035   3037     1   0.10969 276646.080000
   3038   3039     1   0.10969 276646.080000
   3038   3040     1   0.10969 276646.080000
   3041   3042     1   0.10969 276646.080000
   3041   3043     1   0.10969 276646.080000
   3046   3047     1   0.10969 276646.080000
   3046   3048     1   0.10969 276646.080000
   3049   3050     1   0.10969 276646.080000
   3049   3051     1   0.10969 276646.080000
   3052   3053     1   0.10969 276646.080000
   3052   3054     1   0.10969 276646.080000
   3055   3056     1   0.10969 276646.080000
   3055   3057     1   0.10969 276646.080000
   3058   3059     1   0.10969 276646.080000
   3058   3060     1   0.10969 276646.080000
   3061   3062     1   0.10969 276646.080000
   3061   3063     1   0.10969 276646.080000
   3064   3065     1   0.10969 276646.080000
   3064   3066     1   0.10969 276646.080000
   3067   3068     1   0.10969 276646.080000
   3067   3069     1   0.10969 276646.080000
   3070   3071     1   0.10969 276646.080000
   3070   3072     1   0.10969 276646.080000
   3075   3076     1   0.10969 276646.080000
   3075   3077     1   0.10969 276646.080000
   3078   3079     1   0.10969 276646.080000
   3078   3080     1   0.10969 276646.080000
   3081   3082     1   0.10969 276646.080000
   3081   3083     1   0.10969 276646.080000
   3084   3085     1   0.10969 276646.080000
   3084   3086     1   0.10969 276646.080000
   3087   3088     1   0.10969 276646.080000
   3087   3089     1   0.10969 276646.080000
   3090   3091     1   0.10969 276646.080000
   3090   3092     1   0.10969 276646.080000
   3093   3094     1   0.10969 276646.080000
   3093   3095     1   0.10969 276646.080000
   3096   3097     1   0.10969 276646.080000
   3096   3098     1   0.10969 276646.080000
   3099   3100     1   0.10969 276646.080000
   3099   3101     1   0.10969 276646.080000
   3104   3105     1   0.10969 276646.080000
   3104   3106     1   0.10969 276646.080000
   3107   3108     1   0.10969 276646.080000
   3107   3109     1   0.10969 276646.080000
   3110   3111     1   0.10969 276646.080000
   3110   3112     1   0.10969 276646.080000
   3113   3114     1   0.10969 276646.080000
   3113   3115     1   0.10969 276646.080000
   3116   3117     1   0.10969 276646.080000
   3116   3118     1   0.10969 276646.080000
   3119   3120     1   0.10969 276646.080000
   3119   3121     1   0.10969 276646.080000
   3122   3123     1   0.10969 276646.080000
   3122   3124     1   0.10969 276646.080000
   3125   3126     1   0.10969 276646.080000
   3125   3127     1   0.10969 276646.080000
   3128   3129     1   0.10969 276646.080000
   3128   3130     1   0.10969 276646.080000
   3133   3134     1   0.10969 276646.080000
   3133   3135     1   0.10969 276646.080000
   3136   3137     1   0.10969 276646.080000
   3136   3138     1   0.10969 276646.080000
   3139   3140     1   0.10969 276646.080000
   3139   3141     1   0.10969 276646.080000
   3142   3143     1   0.10969 276646.080000
   3142   3144     1   0.10969 276646.080000
   3145   3146     1   0.10969 276646.080000
   3145   3147     1   0.10969 276646.080000
   3148   3149     1   0.10969 276646.080000
   3148   3150     1   0.10969 276646.080000
   3151   3152     1   0.10969 276646.080000
   3151   3153     1   0.10969 276646.080000
   3154   3155     1   0.10969 276646.080000
   3154   3156     1   0.10969 276646.080000
   3157   3158     1   0.10969 276646.080000
   3157   3159     1   0.10969 276646.080000
   3162   3163     1   0.10969 276646.080000
   3162   3164     1   0.10969 276646.080000
   3165   3166     1   0.10969 276646.080000
   3165   3167     1   0.10969 276646.080000
   3168   3169     1   0.10969 276646.080000
   3168   3170     1   0.10969 276646.080000
   3171   3172     1   0.10969 276646.080000
   3171   3173     1   0.10969 276646.080000
   3174   3175     1   0.10969 276646.080000
   3174   3176     1   0.10969 276646.080000
   3177   3178     1   0.10969 276646.080000
   3177   3179     1   0.10969 276646.080000
   3180   3181     1   0.10969 276646.080000
   3180   3182     1   0.10969 276646.080000
   3183   3184     1   0.10969 276646.080000
   3183   3185     1   0.10969 276646.080000
   3186   3187     1   0.10969 276646.080000
   3186   3188     1   0.10969 276646.080000
   3191   3192     1   0.10969 276646.080000
   3191   3193     1   0.10969 276646.080000
   3194   3195     1   0.10969 276646.080000
   3194   3196     1   0.10969 276646.080000
   3197   3198     1   0.10969 276646.080000
   3197   3199     1   0.10969 276646.080000
   3200   3201     1   0.10969 276646.080000
   3200   3202     1   0.10969 276646.080000
   3203   3204     1   0.10969 276646.080000
   3203   3205     1   0.10969 276646.080000
   3206   3207     1   0.10969 276646.080000
   3206   3208     1   0.10969 276646.080000
   3209   3210     1   0.10969 276646.080000
   3209   3211     1   0.10969 276646.080000
   3212   3213     1   0.10969 276646.080000
   3212   3214     1   0.10969 276646.080000
   3215   3216     1   0.10969 276646.080000
   3215   3217     1   0.10969 276646.080000
   3220   3221     1   0.10969 276646.080000
   3220   3222     1   0.10969 276646.080000
   3223   3224     1   0.10969 276646.080000
   3223   3225     1   0.10969 276646.080000
   3226   3227     1   0.10969 276646.080000
   3226   3228     1   0.10969 276646.080000
   3229   3230     1   0.10969 276646.080000
   3229   3231     1   0.10969 276646.080000
   3232   3233     1   0.10969 276646.080000
   3232   3234     1   0.10969 276646.080000
   3235   3236     1   0.10969 276646.080000
   3235   3237     1   0.10969 276646.080000
   3238   3239     1   0.10969 276646.080000
   3238   3240     1   0.10969 276646.080000
   3241   3242     1   0.10969 276646.080000
   3241   3243     1   0.10969 276646.080000
   3244   3245     1   0.10969 276646.080000
   3244   3246     1   0.10969 276646.080000
   3249   3250     1   0.10969 276646.080000
   3249   3251     1   0.10969 276646.080000
   3252   3253     1   0.10969 276646.080000
   3252   3254     1   0.10969 276646.080000
   3255   3256     1   0.10969 276646.080000
   3255   3257     1   0.10969 276646.080000
   3258   3259     1   0.10969 276646.080000
   3258   3260     1   0.10969 276646.080000
   3261   3262     1   0.10969 276646.080000
   3261   3263     1   0.10969 276646.080000
   3264   3265     1   0.10969 276646.080000
   3264   3266     1   0.10969 276646.080000
   3267   3268     1   0.10969 276646.080000
   3267   3269     1   0.10969 276646.080000
   3270   3271     1   0.10969 276646.080000
   3270   3272     1   0.10969 276646.080000
   3273   3274     1   0.10969 276646.080000
   3273   3275     1   0.10969 276646.080000
   3278   3279     1   0.10969 276646.080000
   3278   3280     1   0.10969 276646.080000
   3281   3282     1   0.10969 276646.080000
   3281   3283     1   0.10969 276646.080000
   3284   3285     1   0.10969 276646.080000
   3284   3286     1   0.10969 276646.080000
   3287   3288     1   0.10969 276646.080000
   3287   3289     1   0.10969 276646.080000
   3290   3291     1   0.10969 276646.080000
   3290   3292     1   0.10969 276646.080000
   3293   3294     1   0.10969 276646.080000
   3293   3295     1   0.10969 276646.080000
   3296   3297     1   0.10969 276646.080000
   3296   3298     1   0.10969 276646.080000
   3299   3300     1   0.10969 276646.080000
   3299   3301     1   0.10969 276646.080000
   3302   3303     1   0.10969 276646.080000
   3302   3304     1   0.10969 276646.080000
   3307   3308     1   0.10969 276646.080000
   3307   3309     1   0.10969 276646.080000
   3310   3311     1   0.10969 276646.080000
   3310   3312     1   0.10969 276646.080000
   3313   3314     1   0.10969 276646.080000
   3313   3315     1   0.10969 276646.080000
   3316   3317     1   0.10969 276646.080000
   3316   3318     1   0.10969 276646.080000
   3319   3320     1   0.10969 276646.080000
   3319   3321     1   0.10969 276646.080000
   3322   3323     1   0.10969 276646.080000
   3322   3324     1   0.10969 276646.080000
   3325   3326     1   0.10969 276646.080000
   3325   3327     1   0.10969 276646.080000
   3328   3329     1   0.10969 276646.080000
   3328   3330     1   0.10969 276646.080000
   3331   3332     1   0.10969 276646.080000
   3331   3333     1   0.10969 276646.080000
   3336   3337     1   0.10969 276646.080000
   3336   3338     1   0.10969 276646.080000
   3339   3340     1   0.10969 276646.080000
   3339   3341     1   0.10969 276646.080000
   3342   3343     1   0.10969 276646.080000
   3342   3344     1   0.10969 276646.080000
   3345   3346     1   0.10969 276646.080000
   3345   3347     1   0.10969 276646.080000
   3348   3349     1   0.10969 276646.080000
   3348   3350     1   0.10969 276646.080000
   3351   3352     1   0.10969 276646.080000
   3351   3353     1   0.10969 276646.080000
   3354   3355     1   0.10969 276646.080000
   3354   3356     1   0.10969 276646.080000
   3357   3358     1   0.10969 276646.080000
   3357   3359     1   0.10969 276646.080000
   3360   3361     1   0.10969 276646.080000
   3360   3362     1   0.10969 276646.080000
   3365   3366     1   0.10969 276646.080000
   3365   3367     1   0.10969 276646.080000
   3368   3369     1   0.10969 276646.080000
   3368   3370     1   0.10969 276646.080000
   3371   3372     1   0.10969 276646.080000
   3371   3373     1   0.10969 276646.080000
   3374   3375     1   0.10969 276646.080000
   3374   3376     1   0.10969 276646.080000
   3377   3378     1   0.10969 276646.080000
   3377   3379     1   0.10969 276646.080000
   3380   3381     1   0.10969 276646.080000
   3380   3382     1   0.10969 276646.080000
   3383   3384     1   0.10969 276646.080000
   3383   3385     1   0.10969 276646.080000
   3386   3387     1   0.10969 276646.080000
   3386   3388     1   0.10969 276646.080000
   3389   3390     1   0.10969 276646.080000
   3389   3391     1   0.10969 276646.080000
   3394   3395     1   0.10969 276646.080000
   3394   3396     1   0.10969 276646.080000
   3397   3398     1   0.10969 276646.080000
   3397   3399     1   0.10969 276646.080000
   3400   3401     1   0.10969 276646.080000
   3400   3402     1   0.10969 276646.080000
   3403   3404     1   0.10969 276646.080000
   3403   3405     1   0.10969 276646.080000
   3406   3407     1   0.10969 276646.080000
   3406   3408     1   0.10969 276646.080000
   3409   3410     1   0.10969 276646.080000
   3409   3411     1   0.10969 276646.080000
   3412   3413     1   0.10969 276646.080000
   3412   3414     1   0.10969 276646.080000
   3415   3416     1   0.10969 276646.080000
   3415   3417     1   0.10969 276646.080000
   3418   3419     1   0.10969 276646.080000
   3418   3420     1   0.10969 276646.080000
   3423   3424     1   0.10969 276646.080000
   3423   3425     1   0.10969 276646.080000
   3426   3427     1   0.10969 276646.080000
   3426   3428     1   0.10969 276646.080000
   3429   3430     1   0.10969 276646.080000
   3429   3431     1   0.10969 276646.080000
   3432   3433     1   0.10969 276646.080000
   3432   3434     1   0.10969 276646.080000
   3435   3436     1   0.10969 276646.080000
   3435   3437     1   0.10969 276646.080000
   3438   3439     1   0.10969 276646.080000
   3438   3440     1   0.10969 276646.080000
   3441   3442     1   0.10969 276646.080000
   3441   3443     1   0.10969 276646.080000
   3444   3445     1   0.10969 276646.080000
   3444   3446     1   0.10969 276646.080000
   3447   3448     1   0.10969 276646.080000
   3447   3449     1   0.10969 276646.080000
   3452   3453     1   0.10969 276646.080000
   3452   3454     1   0.10969 276646.080000
   3455   3456     1   0.10969 276646.080000
   3455   3457     1   0.10969 276646.080000
   3458   3459     1   0.10969 276646.080000
   3458   3460     1   0.10969 276646.080000
   3461   3462     1   0.10969 276646.080000
   3461   3463     1   0.10969 276646.080000
   3464   3465     1   0.10969 276646.080000
   3464   3466     1   0.10969 276646.080000
   3467   3468     1   0.10969 276646.080000
   3467   3469     1   0.10969 276646.080000
   3470   3471     1   0.10969 276646.080000
   3470   3472     1   0.10969 276646.080000
   3473   3474     1   0.10969 276646.080000
   3473   3475     1   0.10969 276646.080000
   3476   3477     1   0.10969 276646.080000
   3476   3478     1   0.10969 276646.080000
   3481   3482     1   0.10969 276646.080000
   3481   3483     1   0.10969 276646.080000
   3484   3485     1   0.10969 276646.080000
   3484   3486     1   0.10969 276646.080000
   3487   3488     1   0.10969 276646.080000
   3487   3489     1   0.10969 276646.080000
   3490   3491     1   0.10969 276646.080000
   3490   3492     1   0.10969 276646.080000
   3493   3494     1   0.10969 276646.080000
   3493   3495     1   0.10969 276646.080000
   3496   3497     1   0.10969 276646.080000
   3496   3498     1   0.10969 276646.080000
   3499   3500     1   0.10969 276646.080000
   3499   3501     1   0.10969 276646.080000
   3502   3503     1   0.10969 276646.080000
   3502   3504     1   0.10969 276646.080000
   3505   3506     1   0.10969 276646.080000
   3505   3507     1   0.10969 276646.080000
   3510   3511     1   0.10969 276646.080000
   3510   3512     1   0.10969 276646.080000
   3513   3514     1   0.10969 276646.080000
   3513   3515     1   0.10969 276646.080000
   3516   3517     1   0.10969 276646.080000
   3516   3518     1   0.10969 276646.080000
   3519   3520     1   0.10969 276646.080000
   3519   3521     1   0.10969 276646.080000
   3522   3523     1   0.10969 276646.080000
   3522   3524     1   0.10969 276646.080000
   3525   3526     1   0.10969 276646.080000
   3525   3527     1   0.10969 276646.080000
   3528   3529     1   0.10969 276646.080000
   3528   3530     1   0.10969 276646.080000
   3531   3532     1   0.10969 276646.080000
   3531   3533     1   0.10969 276646.080000
   3534   3535     1   0.10969 276646.080000
   3534   3536     1   0.10969 276646.080000
   3539   3540     1   0.10969 276646.080000
   3539   3541     1   0.10969 276646.080000
   3542   3543     1   0.10969 276646.080000
   3542   3544     1   0.10969 276646.080000
   3545   3546     1   0.10969 276646.080000
   3545   3547     1   0.10969 276646.080000
   3548   3549     1   0.10969 276646.080000
   3548   3550     1   0.10969 276646.080000
   3551   3552     1   0.10969 276646.080000
   3551   3553     1   0.10969 276646.080000
   3554   3555     1   0.10969 276646.080000
   3554   3556     1   0.10969 276646.080000
   3557   3558     1   0.10969 276646.080000
   3557   3559     1   0.10969 276646.080000
   3560   3561     1   0.10969 276646.080000
   3560   3562     1   0.10969 276646.080000
   3563   3564     1   0.10969 276646.080000
   3563   3565     1   0.10969 276646.080000
   3568   3569     1   0.10969 276646.080000
   3568   3570     1   0.10969 276646.080000
   3571   3572     1   0.10969 276646.080000
   3571   3573     1   0.10969 276646.080000
   3574   3575     1   0.10969 276646.080000
   3574   3576     1   0.10969 276646.080000
   3577   3578     1   0.10969 276646.080000
   3577   3579     1   0.10969 276646.080000
   3580   3581     1   0.10969 276646.080000
   3580   3582     1   0.10969 276646.080000
   3583   3584     1   0.10969 276646.080000
   3583   3585     1   0.10969 276646.080000
   3586   3587     1   0.10969 276646.080000
   3586   3588     1   0.10969 276646.080000
   3589   3590     1   0.10969 276646.080000
   3589   3591     1   0.10969 276646.080000
   3592   3593     1   0.10969 276646.080000
   3592   3594     1   0.10969 276646.080000
   3597   3598     1   0.10969 276646.080000
   3597   3599     1   0.10969 276646.080000
   3600   3601     1   0.10969 276646.080000
   3600   3602     1   0.10969 276646.080000
   3603   3604     1   0.10969 276646.080000
   3603   3605     1   0.10969 276646.080000
   3606   3607     1   0.10969 276646.080000
   3606   3608     1   0.10969 276646.080000
   3609   3610     1   0.10969 276646.080000
   3609   3611     1   0.10969 276646.080000
   3612   3613     1   0.10969 276646.080000
   3612   3614     1   0.10969 276646.080000
   3615   3616     1   0.10969 276646.080000
   3615   3617     1   0.10969 276646.080000
   3618   3619     1   0.10969 276646.080000
   3618   3620     1   0.10969 276646.080000
   3621   3622     1   0.10969 276646.080000
   3621   3623     1   0.10969 276646.080000
   3626   3627     1   0.10969 276646.080000
   3626   3628     1   0.10969 276646.080000
   3629   3630     1   0.10969 276646.080000
   3629   3631     1   0.10969 276646.080000
   3632   3633     1   0.10969 276646.080000
   3632   3634     1   0.10969 276646.080000
   3635   3636     1   0.10969 276646.080000
   3635   3637     1   0.10969 276646.080000
   3638   3639     1   0.10969 276646.080000
   3638   3640     1   0.10969 276646.080000
   3641   3642     1   0.10969 276646.080000
   3641   3643     1   0.10969 276646.080000
   3644   3645     1   0.10969 276646.080000
   3644   3646     1   0.10969 276646.080000
   3647   3648     1   0.10969 276646.080000
   3647   3649     1   0.10969 276646.080000
   3650   3651     1   0.10969 276646.080000
   3650   3652     1   0.10969 276646.080000
   3655   3656     1   0.10969 276646.080000
   3655   3657     1   0.10969 276646.080000
   3658   3659     1   0.10969 276646.080000
   3658   3660     1   0.10969 276646.080000
   3661   3662     1   0.10969 276646.080000
   3661   3663     1   0.10969 276646.080000
   3664   3665     1   0.10969 276646.080000
   3664   3666     1   0.10969 276646.080000
   3667   3668     1   0.10969 276646.080000
   3667   3669     1   0.10969 276646.080000
   3670   3671     1   0.10969 276646.080000
   3670   3672     1   0.10969 276646.080000
   3673   3674     1   0.10969 276646.080000
   3673   3675     1   0.10969 276646.080000
   3676   3677     1   0.10969 276646.080000
   3676   3678     1   0.10969 276646.080000
   3679   3680     1   0.10969 276646.080000
   3679   3681     1   0.10969 276646.080000
   3684   3685     1   0.10969 276646.080000
   3684   3686     1   0.10969 276646.080000
   3687   3688     1   0.10969 276646.080000
   3687   3689     1   0.10969 276646.080000
   3690   3691     1   0.10969 276646.080000
   3690   3692     1   0.10969 276646.080000
   3693   3694     1   0.10969 276646.080000
   3693   3695     1   0.10969 276646.080000
   3696   3697     1   0.10969 276646.080000
   3696   3698     1   0.10969 276646.080000
   3699   3700     1   0.10969 276646.080000
   3699   3701     1   0.10969 276646.080000
   3702   3703     1   0.10969 276646.080000
   3702   3704     1   0.10969 276646.080000
   3705   3706     1   0.10969 276646.080000
   3705   3707     1   0.10969 276646.080000
   3708   3709     1   0.10969 276646.080000
   3708   3710     1   0.10969 276646.080000
   3713   3714     1   0.10969 276646.080000
   3713   3715     1   0.10969 276646.080000
   3716   3717     1   0.10969 276646.080000
   3716   3718     1   0.10969 276646.080000
   3719   3720     1   0.10969 276646.080000
   3719   3721     1   0.10969 276646.080000
   3722   3723     1   0.10969 276646.080000
   3722   3724     1   0.10969 276646.080000
   3725   3726     1   0.10969 276646.080000
   3725   3727     1   0.10969 276646.080000
   3728   3729     1   0.10969 276646.080000
   3728   3730     1   0.10969 276646.080000
   3731   3732     1   0.10969 276646.080000
   3731   3733     1   0.10969 276646.080000
   3734   3735     1   0.10969 276646.080000
   3734   3736     1   0.10969 276646.080000
   3737   3738     1   0.10969 276646.080000
   3737   3739     1   0.10969 276646.080000
   3742   3743     1   0.10969 276646.080000
   3742   3744     1   0.10969 276646.080000
   3745   3746     1   0.10969 276646.080000
   3745   3747     1   0.10969 276646.080000
   3748   3749     1   0.10969 276646.080000
   3748   3750     1   0.10969 276646.080000
   3751   3752     1   0.10969 276646.080000
   3751   3753     1   0.10969 276646.080000
   3754   3755     1   0.10969 276646.080000
   3754   3756     1   0.10969 276646.080000
   3757   3758     1   0.10969 276646.080000
   3757   3759     1   0.10969 276646.080000
   3760   3761     1   0.10969 276646.080000
   3760   3762     1   0.10969 276646.080000
   3763   3764     1   0.10969 276646.080000
   3763   3765     1   0.10969 276646.080000
   3766   3767     1   0.10969 276646.080000
   3766   3768     1   0.10969 276646.080000
   3771   3772     1   0.10969 276646.080000
   3771   3773     1   0.10969 276646.080000
   3774   3775     1   0.10969 276646.080000
   3774   3776     1   0.10969 276646.080000
   3777   3778     1   0.10969 276646.080000
   3777   3779     1   0.10969 276646.080000
   3780   3781     1   0.10969 276646.080000
   3780   3782     1   0.10969 276646.080000
   3783   3784     1   0.10969 276646.080000
   3783   3785     1   0.10969 276646.080000
   3786   3787     1   0.10969 276646.080000
   3786   3788     1   0.10969 276646.080000
   3789   3790     1   0.10969 276646.080000
   3789   3791     1   0.10969 276646.080000
   3792   3793     1   0.10969 276646.080000
   3792   3794     1   0.10969 276646.080000
   3795   3796     1   0.10969 276646.080000
   3795   3797     1   0.10969 276646.080000
   3800   3801     1   0.10969 276646.080000
   3800   3802     1   0.10969 276646.080000
   3803   3804     1   0.10969 276646.080000
   3803   3805     1   0.10969 276646.080000
   3806   3807     1   0.10969 276646.080000
   3806   3808     1   0.10969 276646.080000
   3809   3810     1   0.10969 276646.080000
   3809   3811     1   0.10969 276646.080000
   3812   3813     1   0.10969 276646.080000
   3812   3814     1   0.10969 276646.080000
   3815   3816     1   0.10969 276646.080000
   3815   3817     1   0.10969 276646.080000
   3818   3819     1   0.10969 276646.080000
   3818   3820     1   0.10969 276646.080000
   3821   3822     1   0.10969 276646.080000
   3821   3823     1   0.10969 276646.080000
   3824   3825     1   0.10969 276646.080000
   3824   3826     1   0.10969 276646.080000
   3829   3830     1   0.10969 276646.080000
   3829   3831     1   0.10969 276646.080000
   3832   3833     1   0.10969 276646.080000
   3832   3834     1   0.10969 276646.080000
   3835   3836     1   0.10969 276646.080000
   3835   3837     1   0.10969 276646.080000
   3838   3839     1   0.10969 276646.080000
   3838   3840     1   0.10969 276646.080000
   3841   3842     1   0.10969 276646.080000
   3841   3843     1   0.10969 276646.080000
   3844   3845     1   0.10969 276646.080000
   3844   3846     1   0.10969 276646.080000
   3847   3848     1   0.10969 276646.080000
   3847   3849     1   0.10969 276646.080000
   3850   3851     1   0.10969 276646.080000
   3850   3852     1   0.10969 276646.080000
   3853   3854     1   0.10969 276646.080000
   3853   3855     1   0.10969 276646.080000
   3858   3859     1   0.10969 276646.080000
   3858   3860     1   0.10969 276646.080000
   3861   3862     1   0.10969 276646.080000
   3861   3863     1   0.10969 276646.080000
   3864   3865     1   0.10969 276646.080000
   3864   3866     1   0.10969 276646.080000
   3867   3868     1   0.10969 276646.080000
   3867   3869     1   0.10969 276646.080000
   3870   3871     1   0.10969 276646.080000
   3870   3872     1   0.10969 276646.080000
   3873   3874     1   0.10969 276646.080000
   3873   3875     1   0.10969 276646.080000
   3876   3877     1   0.10969 276646.080000
   3876   3878     1   0.10969 276646.080000
   3879   3880     1   0.10969 276646.080000
   3879   3881     1   0.10969 276646.080000
   3882   3883     1   0.10969 276646.080000
   3882   3884     1   0.10969 276646.080000
   3887   3888     1   0.10969 276646.080000
   3887   3889     1   0.10969 276646.080000
   3890   3891     1   0.10969 276646.080000
   3890   3892     1   0.10969 276646.080000
   3893   3894     1   0.10969 276646.080000
   3893   3895     1   0.10969 276646.080000
   3896   3897     1   0.10969 276646.080000
   3896   3898     1   0.10969 276646.080000
   3899   3900     1   0.10969 276646.080000
   3899   3901     1   0.10969 276646.080000
   3902   3903     1   0.10969 276646.080000
   3902   3904     1   0.10969 276646.080000
   3905   3906     1   0.10969 276646.080000
   3905   3907     1   0.10969 276646.080000
   3908   3909     1   0.10969 276646.080000
   3908   3910     1   0.10969 276646.080000
   3911   3912     1   0.10969 276646.080000
   3911   3913     1   0.10969 276646.080000
   3916   3917     1   0.10969 276646.080000
   3916   3918     1   0.10969 276646.080000
   3919   3920     1   0.10969 276646.080000
   3919   3921     1   0.10969 276646.080000
   3922   3923     1   0.10969 276646.080000
   3922   3924     1   0.10969 276646.080000
   3925   3926     1   0.10969 276646.080000
   3925   3927     1   0.10969 276646.080000
   3928   3929     1   0.10969 276646.080000
   3928   3930     1   0.10969 276646.080000
   3931   3932     1   0.10969 276646.080000
   3931   3933     1   0.10969 276646.080000
   3934   3935     1   0.10969 276646.080000
   3934   3936     1   0.10969 276646.080000
   3937   3938     1   0.10969 276646.080000
   3937   3939     1   0.10969 276646.080000
   3940   3941     1   0.10969 276646.080000
   3940   3942     1   0.10969 276646.080000
   3945   3946     1   0.10969 276646.080000
   3945   3947     1   0.10969 276646.080000
   3948   3949     1   0.10969 276646.080000
   3948   3950     1   0.10969 276646.080000
   3951   3952     1   0.10969 276646.080000
   3951   3953     1   0.10969 276646.080000
   3954   3955     1   0.10969 276646.080000
   3954   3956     1   0.10969 276646.080000
   3957   3958     1   0.10969 276646.080000
   3957   3959     1   0.10969 276646.080000
   3960   3961     1   0.10969 276646.080000
   3960   3962     1   0.10969 276646.080000
   3963   3964     1   0.10969 276646.080000
   3963   3965     1   0.10969 276646.080000
   3966   3967     1   0.10969 276646.080000
   3966   3968     1   0.10969 276646.080000
   3969   3970     1   0.10969 276646.080000
   3969   3971     1   0.10969 276646.080000
   3974   3975     1   0.10969 276646.080000
   3974   3976     1   0.10969 276646.080000
   3977   3978     1   0.10969 276646.080000
   3977   3979     1   0.10969 276646.080000
   3980   3981     1   0.10969 276646.080000
   3980   3982     1   0.10969 276646.080000
   3983   3984     1   0.10969 276646.080000
   3983   3985     1   0.10969 276646.080000
   3986   3987     1   0.10969 276646.080000
   3986   3988     1   0.10969 276646.080000
   3989   3990     1   0.10969 276646.080000
   3989   3991     1   0.10969 276646.080000
   3992   3993     1   0.10969 276646.080000
   3992   3994     1   0.10969 276646.080000
   3995   3996     1   0.10969 276646.080000
   3995   3997     1   0.10969 276646.080000
   3998   3999     1   0.10969 276646.080000
   3998   4000     1   0.10969 276646.080000
   4003   4004     1   0.10969 276646.080000
   4003   4005     1   0.10969 276646.080000
   4006   4007     1   0.10969 276646.080000
   4006   4008     1   0.10969 276646.080000
   4009   4010     1   0.10969 276646.080000
   4009   4011     1   0.10969 276646.080000
   4012   4013     1   0.10969 276646.080000
   4012   4014     1   0.10969 276646.080000
   4015   4016     1   0.10969 276646.080000
   4015   4017     1   0.10969 276646.080000
   4018   4019     1   0.10969 276646.080000
   4018   4020     1   0.10969 276646.080000
   4021   4022     1   0.10969 276646.080000
   4021   4023     1   0.10969 276646.080000
   4024   4025     1   0.10969 276646.080000
   4024   4026     1   0.10969 276646.080000
   4027   4028     1   0.10969 276646.080000
   4027   4029     1   0.10969 276646.080000
   4032   4033     1   0.10969 276646.080000
   4032   4034     1   0.10969 276646.080000
   4035   4036     1   0.10969 276646.080000
   4035   4037     1   0.10969 276646.080000
   4038   4039     1   0.10969 276646.080000
   4038   4040     1   0.10969 276646.080000
   4041   4042     1   0.10969 276646.080000
   4041   4043     1   0.10969 276646.080000
   4044   4045     1   0.10969 276646.080000
   4044   4046     1   0.10969 276646.080000
   4047   4048     1   0.10969 276646.080000
   4047   4049     1   0.10969 276646.080000
   4050   4051     1   0.10969 276646.080000
   4050   4052     1   0.10969 276646.080000
   4053   4054     1   0.10969 276646.080000
   4053   4055     1   0.10969 276646.080000
   4056   4057     1   0.10969 276646.080000
   4056   4058     1   0.10969 276646.080000
   4061   4062     1   0.10969 276646.080000
   4061   4063     1   0.10969 276646.080000
   4064   4065     1   0.10969 276646.080000
   4064   4066     1   0.10969 276646.080000
   4067   4068     1   0.10969 276646.080000
   4067   4069     1   0.10969 276646.080000
   4070   4071     1   0.10969 276646.080000
   4070   4072     1   0.10969 276646.080000
   4073   4074     1   0.10969 276646.080000
   4073   4075     1   0.10969 276646.080000
   4076   4077     1   0.10969 276646.080000
   4076   4078     1   0.10969 276646.080000
   4079   4080     1   0.10969 276646.080000
   4079   4081     1   0.10969 276646.080000
   4082   4083     1   0.10969 276646.080000
   4082   4084     1   0.10969 276646.080000
   4085   4086     1   0.10969 276646.080000
   4085   4087     1   0.10969 276646.080000
   4090   4091     1   0.10969 276646.080000
   4090   4092     1   0.10969 276646.080000
   4093   4094     1   0.10969 276646.080000
   4093   4095     1   0.10969 276646.080000
   4096   4097     1   0.10969 276646.080000
   4096   4098     1   0.10969 276646.080000
   4099   4100     1   0.10969 276646.080000
   4099   4101     1   0.10969 276646.080000
   4102   4103     1   0.10969 276646.080000
   4102   4104     1   0.10969 276646.080000
   4105   4106     1   0.10969 276646.080000
   4105   4107     1   0.10969 276646.080000
   4108   4109     1   0.10969 276646.080000
   4108   4110     1   0.10969 276646.080000
   4111   4112     1   0.10969 276646.080000
   4111   4113     1   0.10969 276646.080000
   4114   4115     1   0.10969 276646.080000
   4114   4116     1   0.10969 276646.080000
   4119   4120     1   0.10969 276646.080000
   4119   4121     1   0.10969 276646.080000
   4122   4123     1   0.10969 276646.080000
   4122   4124     1   0.10969 276646.080000
   4125   4126     1   0.10969 276646.080000
   4125   4127     1   0.10969 276646.080000
   4128   4129     1   0.10969 276646.080000
   4128   4130     1   0.10969 276646.080000
   4131   4132     1   0.10969 276646.080000
   4131   4133     1   0.10969 276646.080000
   4134   4135     1   0.10969 276646.080000
   4134   4136     1   0.10969 276646.080000
   4137   4138     1   0.10969 276646.080000
   4137   4139     1   0.10969 276646.080000
   4140   4141     1   0.10969 276646.080000
   4140   4142     1   0.10969 276646.080000
   4143   4144     1   0.10969 276646.080000
   4143   4145     1   0.10969 276646.080000
   4148   4149     1   0.10969 276646.080000
   4148   4150     1   0.10969 276646.080000
   4151   4152     1   0.10969 276646.080000
   4151   4153     1   0.10969 276646.080000
   4154   4155     1   0.10969 276646.080000
   4154   4156     1   0.10969 276646.080000
   4157   4158     1   0.10969 276646.080000
   4157   4159     1   0.10969 276646.080000
   4160   4161     1   0.10969 276646.080000
   4160   4162     1   0.10969 276646.080000
   4163   4164     1   0.10969 276646.080000
   4163   4165     1   0.10969 276646.080000
   4166   4167     1   0.10969 276646.080000
   4166   4168     1   0.10969 276646.080000
   4169   4170     1   0.10969 276646.080000
   4169   4171     1   0.10969 276646.080000
   4172   4173     1   0.10969 276646.080000
   4172   4174     1   0.10969 276646.080000
   4177   4178     1   0.10969 276646.080000
   4177   4179     1   0.10969 276646.080000
   4180   4181     1   0.10969 276646.080000
   4180   4182     1   0.10969 276646.080000
   4183   4184     1   0.10969 276646.080000
   4183   4185     1   0.10969 276646.080000
   4186   4187     1   0.10969 276646.080000
   4186   4188     1   0.10969 276646.080000
   4189   4190     1   0.10969 276646.080000
   4189   4191     1   0.10969 276646.080000
   4192   4193     1   0.10969 276646.080000
   4192   4194     1   0.10969 276646.080000
   4195   4196     1   0.10969 276646.080000
   4195   4197     1   0.10969 276646.080000
   4198   4199     1   0.10969 276646.080000
   4198   4200     1   0.10969 276646.080000
   4201   4202     1   0.10969 276646.080000
   4201   4203     1   0.10969 276646.080000
   4206   4207     1   0.10969 276646.080000
   4206   4208     1   0.10969 276646.080000
   4209   4210     1   0.10969 276646.080000
   4209   4211     1   0.10969 276646.080000
   4212   4213     1   0.10969 276646.080000
   4212   4214     1   0.10969 276646.080000
   4215   4216     1   0.10969 276646.080000
   4215   4217     1   0.10969 276646.080000
   4218   4219     1   0.10969 276646.080000
   4218   4220     1   0.10969 276646.080000
   4221   4222     1   0.10969 276646.080000
   4221   4223     1   0.10969 276646.080000
   4224   4225     1   0.10969 276646.080000
   4224   4226     1   0.10969 276646.080000
   4227   4228     1   0.10969 276646.080000
   4227   4229     1   0.10969 276646.080000
   4230   4231     1   0.10969 276646.080000
   4230   4232     1   0.10969 276646.080000
   4235   4236     1   0.10969 276646.080000
   4235   4237     1   0.10969 276646.080000
   4238   4239     1   0.10969 276646.080000
   4238   4240     1   0.10969 276646.080000
   4241   4242     1   0.10969 276646.080000
   4241   4243     1   0.10969 276646.080000
   4244   4245     1   0.10969 276646.080000
   4244   4246     1   0.10969 276646.080000
   4247   4248     1   0.10969 276646.080000
   4247   4249     1   0.10969 276646.080000
   4250   4251     1   0.10969 276646.080000
   4250   4252     1   0.10969 276646.080000
   4253   4254     1   0.10969 276646.080000
   4253   4255     1   0.10969 276646.080000
   4256   4257     1   0.10969 276646.080000
   4256   4258     1   0.10969 276646.080000
   4259   4260     1   0.10969 276646.080000
   4259   4261     1   0.10969 276646.080000
   4264   4265     1   0.10969 276646.080000
   4264   4266     1   0.10969 276646.080000
   4267   4268     1   0.10969 276646.080000
   4267   4269     1   0.10969 276646.080000
   4270   4271     1   0.10969 276646.080000
   4270   4272     1   0.10969 276646.080000
   4273   4274     1   0.10969 276646.080000
   4273   4275     1   0.10969 276646.080000
   4276   4277     1   0.10969 276646.080000
   4276   4278     1   0.10969 276646.080000
   4279   4280     1   0.10969 276646.080000
   4279   4281     1   0.10969 276646.080000
   4282   4283     1   0.10969 276646.080000
   4282   4284     1   0.10969 276646.080000
   4285   4286     1   0.10969 276646.080000
   4285   4287     1   0.10969 276646.080000
   4288   4289     1   0.10969 276646.080000
   4288   4290     1   0.10969 276646.080000
   4293   4294     1   0.10969 276646.080000
   4293   4295     1   0.10969 276646.080000
   4296   4297     1   0.10969 276646.080000
   4296   4298     1   0.10969 276646.080000
   4299   4300     1   0.10969 276646.080000
   4299   4301     1   0.10969 276646.080000
   4302   4303     1   0.10969 276646.080000
   4302   4304     1   0.10969 276646.080000
   4305   4306     1   0.10969 276646.080000
   4305   4307     1   0.10969 276646.080000
   4308   4309     1   0.10969 276646.080000
   4308   4310     1   0.10969 276646.080000
   4311   4312     1   0.10969 276646.080000
   4311   4313     1   0.10969 276646.080000
   4314   4315     1   0.10969 276646.080000
   4314   4316     1   0.10969 276646.080000
   4317   4318     1   0.10969 276646.080000
   4317   4319     1   0.10969 276646.080000
   4322   4323     1   0.10969 276646.080000
   4322   4324     1   0.10969 276646.080000
   4325   4326     1   0.10969 276646.080000
   4325   4327     1   0.10969 276646.080000
   4328   4329     1   0.10969 276646.080000
   4328   4330     1   0.10969 276646.080000
   4331   4332     1   0.10969 276646.080000
   4331   4333     1   0.10969 276646.080000
   4334   4335     1   0.10969 276646.080000
   4334   4336     1   0.10969 276646.080000
   4337   4338     1   0.10969 276646.080000
   4337   4339     1   0.10969 276646.080000
   4340   4341     1   0.10969 276646.080000
   4340   4342     1   0.10969 276646.080000
   4343   4344     1   0.10969 276646.080000
   4343   4345     1   0.10969 276646.080000
   4346   4347     1   0.10969 276646.080000
   4346   4348     1   0.10969 276646.080000
   4351   4352     1   0.10969 276646.080000
   4351   4353     1   0.10969 276646.080000
   4354   4355     1   0.10969 276646.080000
   4354   4356     1   0.10969 276646.080000
   4357   4358     1   0.10969 276646.080000
   4357   4359     1   0.10969 276646.080000
   4360   4361     1   0.10969 276646.080000
   4360   4362     1   0.10969 276646.080000
   4363   4364     1   0.10969 276646.080000
   4363   4365     1   0.10969 276646.080000
   4366   4367     1   0.10969 276646.080000
   4366   4368     1   0.10969 276646.080000
   4369   4370     1   0.10969 276646.080000
   4369   4371     1   0.10969 276646.080000
   4372   4373     1   0.10969 276646.080000
   4372   4374     1   0.10969 276646.080000
   4375   4376     1   0.10969 276646.080000
   4375   4377     1   0.10969 276646.080000
   4380   4381     1   0.10969 276646.080000
   4380   4382     1   0.10969 276646.080000
   4383   4384     1   0.10969 276646.080000
   4383   4385     1   0.10969 276646.080000
   4386   4387     1   0.10969 276646.080000
   4386   4388     1   0.10969 276646.080000
   4389   4390     1   0.10969 276646.080000
   4389   4391     1   0.10969 276646.080000
   4392   4393     1   0.10969 276646.080000
   4392   4394     1   0.10969 276646.080000
   4395   4396     1   0.10969 276646.080000
   4395   4397     1   0.10969 276646.080000
   4398   4399     1   0.10969 276646.080000
   4398   4400     1   0.10969 276646.080000
   4401   4402     1   0.10969 276646.080000
   4401   4403     1   0.10969 276646.080000
   4404   4405     1   0.10969 276646.080000
   4404   4406     1   0.10969 276646.080000
   4409   4410     1   0.10969 276646.080000
   4409   4411     1   0.10969 276646.080000
   4412   4413     1   0.10969 276646.080000
   4412   4414     1   0.10969 276646.080000
   4415   4416     1   0.10969 276646.080000
   4415   4417     1   0.10969 276646.080000
   4418   4419     1   0.10969 276646.080000
   4418   4420     1   0.10969 276646.080000
   4421   4422     1   0.10969 276646.080000
   4421   4423     1   0.10969 276646.080000
   4424   4425     1   0.10969 276646.080000
   4424   4426     1   0.10969 276646.080000
   4427   4428     1   0.10969 276646.080000
   4427   4429     1   0.10969 276646.080000
   4430   4431     1   0.10969 276646.080000
   4430   4432     1   0.10969 276646.080000
   4433   4434     1   0.10969 276646.080000
   4433   4435     1   0.10969 276646.080000
   4438   4439     1   0.10969 276646.080000
   4438   4440     1   0.10969 276646.080000
   4441   4442     1   0.10969 276646.080000
   4441   4443     1   0.10969 276646.080000
   4444   4445     1   0.10969 276646.080000
   4444   4446     1   0.10969 276646.080000
   4447   4448     1   0.10969 276646.080000
   4447   4449     1   0.10969 276646.080000
   4450   4451     1   0.10969 276646.080000
   4450   4452     1   0.10969 276646.080000
   4453   4454     1   0.10969 276646.080000
   4453   4455     1   0.10969 276646.080000
   4456   4457     1   0.10969 276646.080000
   4456   4458     1   0.10969 276646.080000
   4459   4460     1   0.10969 276646.080000
   4459   4461     1   0.10969 276646.080000
   4462   4463     1   0.10969 276646.080000
   4462   4464     1   0.10969 276646.080000
   4467   4468     1   0.10969 276646.080000
   4467   4469     1   0.10969 276646.080000
   4470   4471     1   0.10969 276646.080000
   4470   4472     1   0.10969 276646.080000
   4473   4474     1   0.10969 276646.080000
   4473   4475     1   0.10969 276646.080000
   4476   4477     1   0.10969 276646.080000
   4476   4478     1   0.10969 276646.080000
   4479   4480     1   0.10969 276646.080000
   4479   4481     1   0.10969 276646.080000
   4482   4483     1   0.10969 276646.080000
   4482   4484     1   0.10969 276646.080000
   4485   4486     1   0.10969 276646.080000
   4485   4487     1   0.10969 276646.080000
   4488   4489     1   0.10969 276646.080000
   4488   4490     1   0.10969 276646.080000
   4491   4492     1   0.10969 276646.080000
   4491   4493     1   0.10969 276646.080000
   4496   4497     1   0.10969 276646.080000
   4496   4498     1   0.10969 276646.080000
   4499   4500     1   0.10969 276646.080000
   4499   4501     1   0.10969 276646.080000
   4502   4503     1   0.10969 276646.080000
   4502   4504     1   0.10969 276646.080000
   4505   4506     1   0.10969 276646.080000
   4505   4507     1   0.10969 276646.080000
   4508   4509     1   0.10969 276646.080000
   4508   4510     1   0.10969 276646.080000
   4511   4512     1   0.10969 276646.080000
   4511   4513     1   0.10969 276646.080000
   4514   4515     1   0.10969 276646.080000
   4514   4516     1   0.10969 276646.080000
   4517   4518     1   0.10969 276646.080000
   4517   4519     1   0.10969 276646.080000
   4520   4521     1   0.10969 276646.080000
   4520   4522     1   0.10969 276646.080000
   4525   4526     1   0.10969 276646.080000
   4525   4527     1   0.10969 276646.080000
   4528   4529     1   0.10969 276646.080000
   4528   4530     1   0.10969 276646.080000
   4531   4532     1   0.10969 276646.080000
   4531   4533     1   0.10969 276646.080000
   4534   4535     1   0.10969 276646.080000
   4534   4536     1   0.10969 276646.080000
   4537   4538     1   0.10969 276646.080000
   4537   4539     1   0.10969 276646.080000
   4540   4541     1   0.10969 276646.080000
   4540   4542     1   0.10969 276646.080000
   4543   4544     1   0.10969 276646.080000
   4543   4545     1   0.10969 276646.080000
   4546   4547     1   0.10969 276646.080000
   4546   4548     1   0.10969 276646.080000
   4549   4550     1   0.10969 276646.080000
   4549   4551     1   0.10969 276646.080000
   4554   4555     1   0.10969 276646.080000
   4554   4556     1   0.10969 276646.080000
   4557   4558     1   0.10969 276646.080000
   4557   4559     1   0.10969 276646.080000
   4560   4561     1   0.10969 276646.080000
   4560   4562     1   0.10969 276646.080000
   4563   4564     1   0.10969 276646.080000
   4563   4565     1   0.10969 276646.080000
   4566   4567     1   0.10969 276646.080000
   4566   4568     1   0.10969 276646.080000
   4569   4570     1   0.10969 276646.080000
   4569   4571     1   0.10969 276646.080000
   4572   4573     1   0.10969 276646.080000
   4572   4574     1   0.10969 276646.080000
   4575   4576     1   0.10969 276646.080000
   4575   4577     1   0.10969 276646.080000
   4578   4579     1   0.10969 276646.080000
   4578   4580     1   0.10969 276646.080000
   4583   4584     1   0.10969 276646.080000
   4583   4585     1   0.10969 276646.080000
   4586   4587     1   0.10969 276646.080000
   4586   4588     1   0.10969 276646.080000
   4589   4590     1   0.10969 276646.080000
   4589   4591     1   0.10969 276646.080000
   4592   4593     1   0.10969 276646.080000
   4592   4594     1   0.10969 276646.080000
   4595   4596     1   0.10969 276646.080000
   4595   4597     1   0.10969 276646.080000
   4598   4599     1   0.10969 276646.080000
   4598   4600     1   0.10969 276646.080000
   4601   4602     1   0.10969 276646.080000
   4601   4603     1   0.10969 276646.080000
   4604   4605     1   0.10969 276646.080000
   4604   4606     1   0.10969 276646.080000
   4607   4608     1   0.10969 276646.080000
   4607   4609     1   0.10969 276646.080000
   4612   4613     1   0.10969 276646.080000
   4612   4614     1   0.10969 276646.080000
   4615   4616     1   0.10969 276646.080000
   4615   4617     1   0.10969 276646.080000
   4618   4619     1   0.10969 276646.080000
   4618   4620     1   0.10969 276646.080000
   4621   4622     1   0.10969 276646.080000
   4621   4623     1   0.10969 276646.080000
   4624   4625     1   0.10969 276646.080000
   4624   4626     1   0.10969 276646.080000
   4627   4628     1   0.10969 276646.080000
   4627   4629     1   0.10969 276646.080000
   4630   4631     1   0.10969 276646.080000
   4630   4632     1   0.10969 276646.080000
   4633   4634     1   0.10969 276646.080000
   4633   4635     1   0.10969 276646.080000
   4636   4637     1   0.10969 276646.080000
   4636   4638     1   0.10969 276646.080000
   4641   4642     1   0.10969 276646.080000
   4641   4643     1   0.10969 276646.080000
   4644   4645     1   0.10969 276646.080000
   4644   4646     1   0.10969 276646.080000
   4647   4648     1   0.10969 276646.080000
   4647   4649     1   0.10969 276646.080000
   4650   4651     1   0.10969 276646.080000
   4650   4652     1   0.10969 276646.080000
   4653   4654     1   0.10969 276646.080000
   4653   4655     1   0.10969 276646.080000
   4656   4657     1   0.10969 276646.080000
   4656   4658     1   0.10969 276646.080000
   4659   4660     1   0.10969 276646.080000
   4659   4661     1   0.10969 276646.080000
   4662   4663     1   0.10969 276646.080000
   4662   4664     1   0.10969 276646.080000
   4665   4666     1   0.10969 276646.080000
   4665   4667     1   0.10969 276646.080000
   4670   4671     1   0.10969 276646.080000
   4670   4672     1   0.10969 276646.080000
   4673   4674     1   0.10969 276646.080000
   4673   4675     1   0.10969 276646.080000
   4676   4677     1   0.10969 276646.080000
   4676   4678     1   0.10969 276646.080000
   4679   4680     1   0.10969 276646.080000
   4679   4681     1   0.10969 276646.080000
   4682   4683     1   0.10969 276646.080000
   4682   4684     1   0.10969 276646.080000
   4685   4686     1   0.10969 276646.080000
   4685   4687     1   0.10969 276646.080000
   4688   4689     1   0.10969 276646.080000
   4688   4690     1   0.10969 276646.080000
   4691   4692     1   0.10969 276646.080000
   4691   4693     1   0.10969 276646.080000
   4694   4695     1   0.10969 276646.080000
   4694   4696     1   0.10969 276646.080000
   4699   4700     1   0.10969 276646.080000
   4699   4701     1   0.10969 276646.080000
   4702   4703     1   0.10969 276646.080000
   4702   4704     1   0.10969 276646.080000
   4705   4706     1   0.10969 276646.080000
   4705   4707     1   0.10969 276646.080000
   4708   4709     1   0.10969 276646.080000
   4708   4710     1   0.10969 276646.080000
   4711   4712     1   0.10969 276646.080000
   4711   4713     1   0.10969 276646.080000
   4714   4715     1   0.10969 276646.080000
   4714   4716     1   0.10969 276646.080000
   4717   4718     1   0.10969 276646.080000
   4717   4719     1   0.10969 276646.080000
   4720   4721     1   0.10969 276646.080000
   4720   4722     1   0.10969 276646.080000
   4723   4724     1   0.10969 276646.080000
   4723   4725     1   0.10969 276646.080000
   4728   4729     1   0.10969 276646.080000
   4728   4730     1   0.10969 276646.080000
   4731   4732     1   0.10969 276646.080000
   4731   4733     1   0.10969 276646.080000
   4734   4735     1   0.10969 276646.080000
   4734   4736     1   0.10969 276646.080000
   4737   4738     1   0.10969 276646.080000
   4737   4739     1   0.10969 276646.080000
   4740   4741     1   0.10969 276646.080000
   4740   4742     1   0.10969 276646.080000
   4743   4744     1   0.10969 276646.080000
   4743   4745     1   0.10969 276646.080000
   4746   4747     1   0.10969 276646.080000
   4746   4748     1   0.10969 276646.080000
   4749   4750     1   0.10969 276646.080000
   4749   4751     1   0.10969 276646.080000
   4752   4753     1   0.10969 276646.080000
   4752   4754     1   0.10969 276646.080000
   4757   4758     1   0.10969 276646.080000
   4757   4759     1   0.10969 276646.080000
   4760   4761     1   0.10969 276646.080000
   4760   4762     1   0.10969 276646.080000
   4763   4764     1   0.10969 276646.080000
   4763   4765     1   0.10969 276646.080000
   4766   4767     1   0.10969 276646.080000
   4766   4768     1   0.10969 276646.080000
   4769   4770     1   0.10969 276646.080000
   4769   4771     1   0.10969 276646.080000
   4772   4773     1   0.10969 276646.080000
   4772   4774     1   0.10969 276646.080000
   4775   4776     1   0.10969 276646.080000
   4775   4777     1   0.10969 276646.080000
   4778   4779     1   0.10969 276646.080000
   4778   4780     1   0.10969 276646.080000
   4781   4782     1   0.10969 276646.080000
   4781   4783     1   0.10969 276646.080000
   4786   4787     1   0.10969 276646.080000
   4786   4788     1   0.10969 276646.080000
   4789   4790     1   0.10969 276646.080000
   4789   4791     1   0.10969 276646.080000
   4792   4793     1   0.10969 276646.080000
   4792   4794     1   0.10969 276646.080000
   4795   4796     1   0.10969 276646.080000
   4795   4797     1   0.10969 276646.080000
   4798   4799     1   0.10969 276646.080000
   4798   4800     1   0.10969 276646.080000
   4801   4802     1   0.10969 276646.080000
   4801   4803     1   0.10969 276646.080000
   4804   4805     1   0.10969 276646.080000
   4804   4806     1   0.10969 276646.080000
   4807   4808     1   0.10969 276646.080000
   4807   4809     1   0.10969 276646.080000
   4810   4811     1   0.10969 276646.080000
   4810   4812     1   0.10969 276646.080000
   4815   4816     1   0.10969 276646.080000
   4815   4817     1   0.10969 276646.080000
   4818   4819     1   0.10969 276646.080000
   4818   4820     1   0.10969 276646.080000
   4821   4822     1   0.10969 276646.080000
   4821   4823     1   0.10969 276646.080000
   4824   4825     1   0.10969 276646.080000
   4824   4826     1   0.10969 276646.080000
   4827   4828     1   0.10969 276646.080000
   4827   4829     1   0.10969 276646.080000
   4830   4831     1   0.10969 276646.080000
   4830   4832     1   0.10969 276646.080000
   4833   4834     1   0.10969 276646.080000
   4833   4835     1   0.10969 276646.080000
   4836   4837     1   0.10969 276646.080000
   4836   4838     1   0.10969 276646.080000
   4839   4840     1   0.10969 276646.080000
   4839   4841     1   0.10969 276646.080000
   4844   4845     1   0.10969 276646.080000
   4844   4846     1   0.10969 276646.080000
   4847   4848     1   0.10969 276646.080000
   4847   4849     1   0.10969 276646.080000
   4850   4851     1   0.10969 276646.080000
   4850   4852     1   0.10969 276646.080000
   4853   4854     1   0.10969 276646.080000
   4853   4855     1   0.10969 276646.080000
   4856   4857     1   0.10969 276646.080000
   4856   4858     1   0.10969 276646.080000
   4859   4860     1   0.10969 276646.080000
   4859   4861     1   0.10969 276646.080000
   4862   4863     1   0.10969 276646.080000
   4862   4864     1   0.10969 276646.080000
   4865   4866     1   0.10969 276646.080000
   4865   4867     1   0.10969 276646.080000
   4868   4869     1   0.10969 276646.080000
   4868   4870     1   0.10969 276646.080000
   4873   4874     1   0.10969 276646.080000
   4873   4875     1   0.10969 276646.080000
   4876   4877     1   0.10969 276646.080000
   4876   4878     1   0.10969 276646.080000
   4879   4880     1   0.10969 276646.080000
   4879   4881     1   0.10969 276646.080000
   4882   4883     1   0.10969 276646.080000
   4882   4884     1   0.10969 276646.080000
   4885   4886     1   0.10969 276646.080000
   4885   4887     1   0.10969 276646.080000
   4888   4889     1   0.10969 276646.080000
   4888   4890     1   0.10969 276646.080000
   4891   4892     1   0.10969 276646.080000
   4891   4893     1   0.10969 276646.080000
   4894   4895     1   0.10969 276646.080000
   4894   4896     1   0.10969 276646.080000
   4897   4898     1   0.10969 276646.080000
   4897   4899     1   0.10969 276646.080000
   4902   4903     1   0.10969 276646.080000
   4902   4904     1   0.10969 276646.080000
   4905   4906     1   0.10969 276646.080000
   4905   4907     1   0.10969 276646.080000
   4908   4909     1   0.10969 276646.080000
   4908   4910     1   0.10969 276646.080000
   4911   4912     1   0.10969 276646.080000
   4911   4913     1   0.10969 276646.080000
   4914   4915     1   0.10969 276646.080000
   4914   4916     1   0.10969 276646.080000
   4917   4918     1   0.10969 276646.080000
   4917   4919     1   0.10969 276646.080000
   4920   4921     1   0.10969 276646.080000
   4920   4922     1   0.10969 276646.080000
   4923   4924     1   0.10969 276646.080000
   4923   4925     1   0.10969 276646.080000
   4926   4927     1   0.10969 276646.080000
   4926   4928     1   0.10969 276646.080000
   4931   4932     1   0.10969 276646.080000
   4931   4933     1   0.10969 276646.080000
   4934   4935     1   0.10969 276646.080000
   4934   4936     1   0.10969 276646.080000
   4937   4938     1   0.10969 276646.080000
   4937   4939     1   0.10969 276646.080000
   4940   4941     1   0.10969 276646.080000
   4940   4942     1   0.10969 276646.080000
   4943   4944     1   0.10969 276646.080000
   4943   4945     1   0.10969 276646.080000
   4946   4947     1   0.10969 276646.080000
   4946   4948     1   0.10969 276646.080000
   4949   4950     1   0.10969 276646.080000
   4949   4951     1   0.10969 276646.080000
   4952   4953     1   0.10969 276646.080000
   4952   4954     1   0.10969 276646.080000
   4955   4956     1   0.10969 276646.080000
   4955   4957     1   0.10969 276646.080000
   4960   4961     1   0.10969 276646.080000
   4960   4962     1   0.10969 276646.080000
   4963   4964     1   0.10969 276646.080000
   4963   4965     1   0.10969 276646.080000
   4966   4967     1   0.10969 276646.080000
   4966   4968     1   0.10969 276646.080000
   4969   4970     1   0.10969 276646.080000
   4969   4971     1   0.10969 276646.080000
   4972   4973     1   0.10969 276646.080000
   4972   4974     1   0.10969 276646.080000
   4975   4976     1   0.10969 276646.080000
   4975   4977     1   0.10969 276646.080000
   4978   4979     1   0.10969 276646.080000
   4978   4980     1   0.10969 276646.080000
   4981   4982     1   0.10969 276646.080000
   4981   4983     1   0.10969 276646.080000
   4984   4985     1   0.10969 276646.080000
   4984   4986     1   0.10969 276646.080000
   4989   4990     1   0.10969 276646.080000
   4989   4991     1   0.10969 276646.080000
   4992   4993     1   0.10969 276646.080000
   4992   4994     1   0.10969 276646.080000
   4995   4996     1   0.10969 276646.080000
   4995   4997     1   0.10969 276646.080000
   4998   4999     1   0.10969 276646.080000
   4998   5000     1   0.10969 276646.080000
   5001   5002     1   0.10969 276646.080000
   5001   5003     1   0.10969 276646.080000
   5004   5005     1   0.10969 276646.080000
   5004   5006     1   0.10969 276646.080000
   5007   5008     1   0.10969 276646.080000
   5007   5009     1   0.10969 276646.080000
   5010   5011     1   0.10969 276646.080000
   5010   5012     1   0.10969 276646.080000
   5013   5014     1   0.10969 276646.080000
   5013   5015     1   0.10969 276646.080000
   5018   5019     1   0.10969 276646.080000
   5018   5020     1   0.10969 276646.080000
   5021   5022     1   0.10969 276646.080000
   5021   5023     1   0.10969 276646.080000
   5024   5025     1   0.10969 276646.080000
   5024   5026     1   0.10969 276646.080000
   5027   5028     1   0.10969 276646.080000
   5027   5029     1   0.10969 276646.080000
   5030   5031     1   0.10969 276646.080000
   5030   5032     1   0.10969 276646.080000
   5033   5034     1   0.10969 276646.080000
   5033   5035     1   0.10969 276646.080000
   5036   5037     1   0.10969 276646.080000
   5036   5038     1   0.10969 276646.080000
   5039   5040     1   0.10969 276646.080000
   5039   5041     1   0.10969 276646.080000
   5042   5043     1   0.10969 276646.080000
   5042   5044     1   0.10969 276646.080000
   5047   5048     1   0.10969 276646.080000
   5047   5049     1   0.10969 276646.080000
   5050   5051     1   0.10969 276646.080000
   5050   5052     1   0.10969 276646.080000
   5053   5054     1   0.10969 276646.080000
   5053   5055     1   0.10969 276646.080000
   5056   5057     1   0.10969 276646.080000
   5056   5058     1   0.10969 276646.080000
   5059   5060     1   0.10969 276646.080000
   5059   5061     1   0.10969 276646.080000
   5062   5063     1   0.10969 276646.080000
   5062   5064     1   0.10969 276646.080000
   5065   5066     1   0.10969 276646.080000
   5065   5067     1   0.10969 276646.080000
   5068   5069     1   0.10969 276646.080000
   5068   5070     1   0.10969 276646.080000
   5071   5072     1   0.10969 276646.080000
   5071   5073     1   0.10969 276646.080000
   5076   5077     1   0.10969 276646.080000
   5076   5078     1   0.10969 276646.080000
   5079   5080     1   0.10969 276646.080000
   5079   5081     1   0.10969 276646.080000
   5082   5083     1   0.10969 276646.080000
   5082   5084     1   0.10969 276646.080000
   5085   5086     1   0.10969 276646.080000
   5085   5087     1   0.10969 276646.080000
   5088   5089     1   0.10969 276646.080000
   5088   5090     1   0.10969 276646.080000
   5091   5092     1   0.10969 276646.080000
   5091   5093     1   0.10969 276646.080000
   5094   5095     1   0.10969 276646.080000
   5094   5096     1   0.10969 276646.080000
   5097   5098     1   0.10969 276646.080000
   5097   5099     1   0.10969 276646.080000
   5100   5101     1   0.10969 276646.080000
   5100   5102     1   0.10969 276646.080000
   5105   5106     1   0.10969 276646.080000
   5105   5107     1   0.10969 276646.080000
   5108   5109     1   0.10969 276646.080000
   5108   5110     1   0.10969 276646.080000
   5111   5112     1   0.10969 276646.080000
   5111   5113     1   0.10969 276646.080000
   5114   5115     1   0.10969 276646.080000
   5114   5116     1   0.10969 276646.080000
   5117   5118     1   0.10969 276646.080000
   5117   5119     1   0.10969 276646.080000
   5120   5121     1   0.10969 276646.080000
   5120   5122     1   0.10969 276646.080000
   5123   5124     1   0.10969 276646.080000
   5123   5125     1   0.10969 276646.080000
   5126   5127     1   0.10969 276646.080000
   5126   5128     1   0.10969 276646.080000
   5129   5130     1   0.10969 276646.080000
   5129   5131     1   0.10969 276646.080000
   5134   5135     1   0.10969 276646.080000
   5134   5136     1   0.10969 276646.080000
   5137   5138     1   0.10969 276646.080000
   5137   5139     1   0.10969 276646.080000
   5140   5141     1   0.10969 276646.080000
   5140   5142     1   0.10969 276646.080000
   5143   5144     1   0.10969 276646.080000
   5143   5145     1   0.10969 276646.080000
   5146   5147     1   0.10969 276646.080000
   5146   5148     1   0.10969 276646.080000
   5149   5150     1   0.10969 276646.080000
   5149   5151     1   0.10969 276646.080000
   5152   5153     1   0.10969 276646.080000
   5152   5154     1   0.10969 276646.080000
   5155   5156     1   0.10969 276646.080000
   5155   5157     1   0.10969 276646.080000
   5158   5159     1   0.10969 276646.080000
   5158   5160     1   0.10969 276646.080000
   5163   5164     1   0.10969 276646.080000
   5163   5165     1   0.10969 276646.080000
   5166   5167     1   0.10969 276646.080000
   5166   5168     1   0.10969 276646.080000
   5169   5170     1   0.10969 276646.080000
   5169   5171     1   0.10969 276646.080000
   5172   5173     1   0.10969 276646.080000
   5172   5174     1   0.10969 276646.080000
   5175   5176     1   0.10969 276646.080000
   5175   5177     1   0.10969 276646.080000
   5178   5179     1   0.10969 276646.080000
   5178   5180     1   0.10969 276646.080000
   5181   5182     1   0.10969 276646.080000
   5181   5183     1   0.10969 276646.080000
   5184   5185     1   0.10969 276646.080000
   5184   5186     1   0.10969 276646.080000
   5187   5188     1   0.10969 276646.080000
   5187   5189     1   0.10969 276646.080000
   5192   5193     1   0.10969 276646.080000
   5192   5194     1   0.10969 276646.080000
   5195   5196     1   0.10969 276646.080000
   5195   5197     1   0.10969 276646.080000
   5198   5199     1   0.10969 276646.080000
   5198   5200     1   0.10969 276646.080000
   5201   5202     1   0.10969 276646.080000
   5201   5203     1   0.10969 276646.080000
   5204   5205     1   0.10969 276646.080000
   5204   5206     1   0.10969 276646.080000
   5207   5208     1   0.10969 276646.080000
   5207   5209     1   0.10969 276646.080000
   5210   5211     1   0.10969 276646.080000
   5210   5212     1   0.10969 276646.080000
   5213   5214     1   0.10969 276646.080000
   5213   5215     1   0.10969 276646.080000
   5216   5217     1   0.10969 276646.080000
   5216   5218     1   0.10969 276646.080000
   5221   5222     1   0.10969 276646.080000
   5221   5223     1   0.10969 276646.080000
   5224   5225     1   0.10969 276646.080000
   5224   5226     1   0.10969 276646.080000
   5227   5228     1   0.10969 276646.080000
   5227   5229     1   0.10969 276646.080000
   5230   5231     1   0.10969 276646.080000
   5230   5232     1   0.10969 276646.080000
   5233   5234     1   0.10969 276646.080000
   5233   5235     1   0.10969 276646.080000
   5236   5237     1   0.10969 276646.080000
   5236   5238     1   0.10969 276646.080000
   5239   5240     1   0.10969 276646.080000
   5239   5241     1   0.10969 276646.080000
   5242   5243     1   0.10969 276646.080000
   5242   5244     1   0.10969 276646.080000
   5245   5246     1   0.10969 276646.080000
   5245   5247     1   0.10969 276646.080000
   5250   5251     1   0.10969 276646.080000
   5250   5252     1   0.10969 276646.080000
   5253   5254     1   0.10969 276646.080000
   5253   5255     1   0.10969 276646.080000
   5256   5257     1   0.10969 276646.080000
   5256   5258     1   0.10969 276646.080000
   5259   5260     1   0.10969 276646.080000
   5259   5261     1   0.10969 276646.080000
   5262   5263     1   0.10969 276646.080000
   5262   5264     1   0.10969 276646.080000
   5265   5266     1   0.10969 276646.080000
   5265   5267     1   0.10969 276646.080000
   5268   5269     1   0.10969 276646.080000
   5268   5270     1   0.10969 276646.080000
   5271   5272     1   0.10969 276646.080000
   5271   5273     1   0.10969 276646.080000
   5274   5275     1   0.10969 276646.080000
   5274   5276     1   0.10969 276646.080000
   5279   5280     1   0.10969 276646.080000
   5279   5281     1   0.10969 276646.080000
   5282   5283     1   0.10969 276646.080000
   5282   5284     1   0.10969 276646.080000
   5285   5286     1   0.10969 276646.080000
   5285   5287     1   0.10969 276646.080000
   5288   5289     1   0.10969 276646.080000
   5288   5290     1   0.10969 276646.080000
   5291   5292     1   0.10969 276646.080000
   5291   5293     1   0.10969 276646.080000
   5294   5295     1   0.10969 276646.080000
   5294   5296     1   0.10969 276646.080000
   5297   5298     1   0.10969 276646.080000
   5297   5299     1   0.10969 276646.080000
   5300   5301     1   0.10969 276646.080000
   5300   5302     1   0.10969 276646.080000
   5303   5304     1   0.10969 276646.080000
   5303   5305     1   0.10969 276646.080000
   5308   5309     1   0.10969 276646.080000
   5308   5310     1   0.10969 276646.080000
   5311   5312     1   0.10969 276646.080000
   5311   5313     1   0.10969 276646.080000
   5314   5315     1   0.10969 276646.080000
   5314   5316     1   0.10969 276646.080000
   5317   5318     1   0.10969 276646.080000
   5317   5319     1   0.10969 276646.080000
   5320   5321     1   0.10969 276646.080000
   5320   5322     1   0.10969 276646.080000
   5323   5324     1   0.10969 276646.080000
   5323   5325     1   0.10969 276646.080000
   5326   5327     1   0.10969 276646.080000
   5326   5328     1   0.10969 276646.080000
   5329   5330     1   0.10969 276646.080000
   5329   5331     1   0.10969 276646.080000
   5332   5333     1   0.10969 276646.080000
   5332   5334     1   0.10969 276646.080000
   5337   5338     1   0.10969 276646.080000
   5337   5339     1   0.10969 276646.080000
   5340   5341     1   0.10969 276646.080000
   5340   5342     1   0.10969 276646.080000
   5343   5344     1   0.10969 276646.080000
   5343   5345     1   0.10969 276646.080000
   5346   5347     1   0.10969 276646.080000
   5346   5348     1   0.10969 276646.080000
   5349   5350     1   0.10969 276646.080000
   5349   5351     1   0.10969 276646.080000
   5352   5353     1   0.10969 276646.080000
   5352   5354     1   0.10969 276646.080000
   5355   5356     1   0.10969 276646.080000
   5355   5357     1   0.10969 276646.080000
   5358   5359     1   0.10969 276646.080000
   5358   5360     1   0.10969 276646.080000
   5361   5362     1   0.10969 276646.080000
   5361   5363     1   0.10969 276646.080000
   5366   5367     1   0.10969 276646.080000
   5366   5368     1   0.10969 276646.080000
   5369   5370     1   0.10969 276646.080000
   5369   5371     1   0.10969 276646.080000
   5372   5373     1   0.10969 276646.080000
   5372   5374     1   0.10969 276646.080000
   5375   5376     1   0.10969 276646.080000
   5375   5377     1   0.10969 276646.080000
   5378   5379     1   0.10969 276646.080000
   5378   5380     1   0.10969 276646.080000
   5381   5382     1   0.10969 276646.080000
   5381   5383     1   0.10969 276646.080000
   5384   5385     1   0.10969 276646.080000
   5384   5386     1   0.10969 276646.080000
   5387   5388     1   0.10969 276646.080000
   5387   5389     1   0.10969 276646.080000
   5390   5391     1   0.10969 276646.080000
   5390   5392     1   0.10969 276646.080000
   5395   5396     1   0.10969 276646.080000
   5395   5397     1   0.10969 276646.080000
   5398   5399     1   0.10969 276646.080000
   5398   5400     1   0.10969 276646.080000
   5401   5402     1   0.10969 276646.080000
   5401   5403     1   0.10969 276646.080000
   5404   5405     1   0.10969 276646.080000
   5404   5406     1   0.10969 276646.080000
   5407   5408     1   0.10969 276646.080000
   5407   5409     1   0.10969 276646.080000
   5410   5411     1   0.10969 276646.080000
   5410   5412     1   0.10969 276646.080000
   5413   5414     1   0.10969 276646.080000
   5413   5415     1   0.10969 276646.080000
   5416   5417     1   0.10969 276646.080000
   5416   5418     1   0.10969 276646.080000
   5419   5420     1   0.10969 276646.080000
   5419   5421     1   0.10969 276646.080000
   5424   5425     1   0.10969 276646.080000
   5424   5426     1   0.10969 276646.080000
   5427   5428     1   0.10969 276646.080000
   5427   5429     1   0.10969 276646.080000
   5430   5431     1   0.10969 276646.080000
   5430   5432     1   0.10969 276646.080000
   5433   5434     1   0.10969 276646.080000
   5433   5435     1   0.10969 276646.080000
   5436   5437     1   0.10969 276646.080000
   5436   5438     1   0.10969 276646.080000
   5439   5440     1   0.10969 276646.080000
   5439   5441     1   0.10969 276646.080000
   5442   5443     1   0.10969 276646.080000
   5442   5444     1   0.10969 276646.080000
   5445   5446     1   0.10969 276646.080000
   5445   5447     1   0.10969 276646.080000
   5448   5449     1   0.10969 276646.080000
   5448   5450     1   0.10969 276646.080000
   5453   5454     1   0.10969 276646.080000
   5453   5455     1   0.10969 276646.080000
   5456   5457     1   0.10969 276646.080000
   5456   5458     1   0.10969 276646.080000
   5459   5460     1   0.10969 276646.080000
   5459   5461     1   0.10969 276646.080000
   5462   5463     1   0.10969 276646.080000
   5462   5464     1   0.10969 276646.080000
   5465   5466     1   0.10969 276646.080000
   5465   5467     1   0.10969 276646.080000
   5468   5469     1   0.10969 276646.080000
   5468   5470     1   0.10969 276646.080000
   5471   5472     1   0.10969 276646.080000
   5471   5473     1   0.10969 276646.080000
   5474   5475     1   0.10969 276646.080000
   5474   5476     1   0.10969 276646.080000
   5477   5478     1   0.10969 276646.080000
   5477   5479     1   0.10969 276646.080000
   5482   5483     1   0.10969 276646.080000
   5482   5484     1   0.10969 276646.080000
   5485   5486     1   0.10969 276646.080000
   5485   5487     1   0.10969 276646.080000
   5488   5489     1   0.10969 276646.080000
   5488   5490     1   0.10969 276646.080000
   5491   5492     1   0.10969 276646.080000
   5491   5493     1   0.10969 276646.080000
   5494   5495     1   0.10969 276646.080000
   5494   5496     1   0.10969 276646.080000
   5497   5498     1   0.10969 276646.080000
   5497   5499     1   0.10969 276646.080000
   5500   5501     1   0.10969 276646.080000
   5500   5502     1   0.10969 276646.080000
   5503   5504     1   0.10969 276646.080000
   5503   5505     1   0.10969 276646.080000
   5506   5507     1   0.10969 276646.080000
   5506   5508     1   0.10969 276646.080000
   5511   5512     1   0.10969 276646.080000
   5511   5513     1   0.10969 276646.080000
   5514   5515     1   0.10969 276646.080000
   5514   5516     1   0.10969 276646.080000
   5517   5518     1   0.10969 276646.080000
   5517   5519     1   0.10969 276646.080000
   5520   5521     1   0.10969 276646.080000
   5520   5522     1   0.10969 276646.080000
   5523   5524     1   0.10969 276646.080000
   5523   5525     1   0.10969 276646.080000
   5526   5527     1   0.10969 276646.080000
   5526   5528     1   0.10969 276646.080000
   5529   5530     1   0.10969 276646.080000
   5529   5531     1   0.10969 276646.080000
   5532   5533     1   0.10969 276646.080000
   5532   5534     1   0.10969 276646.080000
   5535   5536     1   0.10969 276646.080000
   5535   5537     1   0.10969 276646.080000
   5540   5541     1   0.10969 276646.080000
   5540   5542     1   0.10969 276646.080000
   5543   5544     1   0.10969 276646.080000
   5543   5545     1   0.10969 276646.080000
   5546   5547     1   0.10969 276646.080000
   5546   5548     1   0.10969 276646.080000
   5549   5550     1   0.10969 276646.080000
   5549   5551     1   0.10969 276646.080000
   5552   5553     1   0.10969 276646.080000
   5552   5554     1   0.10969 276646.080000
   5555   5556     1   0.10969 276646.080000
   5555   5557     1   0.10969 276646.080000
   5558   5559     1   0.10969 276646.080000
   5558   5560     1   0.10969 276646.080000
   5561   5562     1   0.10969 276646.080000
   5561   5563     1   0.10969 276646.080000
   5564   5565     1   0.10969 276646.080000
   5564   5566     1   0.10969 276646.080000
   5569   5570     1   0.10969 276646.080000
   5569   5571     1   0.10969 276646.080000
   5572   5573     1   0.10969 276646.080000
   5572   5574     1   0.10969 276646.080000
   5575   5576     1   0.10969 276646.080000
   5575   5577     1   0.10969 276646.080000
   5578   5579     1   0.10969 276646.080000
   5578   5580     1   0.10969 276646.080000
   5581   5582     1   0.10969 276646.080000
   5581   5583     1   0.10969 276646.080000
   5584   5585     1   0.10969 276646.080000
   5584   5586     1   0.10969 276646.080000
   5587   5588     1   0.10969 276646.080000
   5587   5589     1   0.10969 276646.080000
   5590   5591     1   0.10969 276646.080000
   5590   5592     1   0.10969 276646.080000
   5593   5594     1   0.10969 276646.080000
   5593   5595     1   0.10969 276646.080000
   5598   5599     1   0.10969 276646.080000
   5598   5600     1   0.10969 276646.080000
   5601   5602     1   0.10969 276646.080000
   5601   5603     1   0.10969 276646.080000
   5604   5605     1   0.10969 276646.080000
   5604   5606     1   0.10969 276646.080000
   5607   5608     1   0.10969 276646.080000
   5607   5609     1   0.10969 276646.080000
   5610   5611     1   0.10969 276646.080000
   5610   5612     1   0.10969 276646.080000
   5613   5614     1   0.10969 276646.080000
   5613   5615     1   0.10969 276646.080000
   5616   5617     1   0.10969 276646.080000
   5616   5618     1   0.10969 276646.080000
   5619   5620     1   0.10969 276646.080000
   5619   5621     1   0.10969 276646.080000
   5622   5623     1   0.10969 276646.080000
   5622   5624     1   0.10969 276646.080000
   5627   5628     1   0.10969 276646.080000
   5627   5629     1   0.10969 276646.080000
   5630   5631     1   0.10969 276646.080000
   5630   5632     1   0.10969 276646.080000
   5633   5634     1   0.10969 276646.080000
   5633   5635     1   0.10969 276646.080000
   5636   5637     1   0.10969 276646.080000
   5636   5638     1   0.10969 276646.080000
   5639   5640     1   0.10969 276646.080000
   5639   5641     1   0.10969 276646.080000
   5642   5643     1   0.10969 276646.080000
   5642   5644     1   0.10969 276646.080000
   5645   5646     1   0.10969 276646.080000
   5645   5647     1   0.10969 276646.080000
   5648   5649     1   0.10969 276646.080000
   5648   5650     1   0.10969 276646.080000
   5651   5652     1   0.10969 276646.080000
   5651   5653     1   0.10969 276646.080000
   5656   5657     1   0.10969 276646.080000
   5656   5658     1   0.10969 276646.080000
   5659   5660     1   0.10969 276646.080000
   5659   5661     1   0.10969 276646.080000
   5662   5663     1   0.10969 276646.080000
   5662   5664     1   0.10969 276646.080000
   5665   5666     1   0.10969 276646.080000
   5665   5667     1   0.10969 276646.080000
   5668   5669     1   0.10969 276646.080000
   5668   5670     1   0.10969 276646.080000
   5671   5672     1   0.10969 276646.080000
   5671   5673     1   0.10969 276646.080000
   5674   5675     1   0.10969 276646.080000
   5674   5676     1   0.10969 276646.080000
   5677   5678     1   0.10969 276646.080000
   5677   5679     1   0.10969 276646.080000
   5680   5681     1   0.10969 276646.080000
   5680   5682     1   0.10969 276646.080000
   5685   5686     1   0.10969 276646.080000
   5685   5687     1   0.10969 276646.080000
   5688   5689     1   0.10969 276646.080000
   5688   5690     1   0.10969 276646.080000
   5691   5692     1   0.10969 276646.080000
   5691   5693     1   0.10969 276646.080000
   5694   5695     1   0.10969 276646.080000
   5694   5696     1   0.10969 276646.080000
   5697   5698     1   0.10969 276646.080000
   5697   5699     1   0.10969 276646.080000
   5700   5701     1   0.10969 276646.080000
   5700   5702     1   0.10969 276646.080000
   5703   5704     1   0.10969 276646.080000
   5703   5705     1   0.10969 276646.080000
   5706   5707     1   0.10969 276646.080000
   5706   5708     1   0.10969 276646.080000
   5709   5710     1   0.10969 276646.080000
   5709   5711     1   0.10969 276646.080000
   5714   5715     1   0.10969 276646.080000
   5714   5716     1   0.10969 276646.080000
   5717   5718     1   0.10969 276646.080000
   5717   5719     1   0.10969 276646.080000
   5720   5721     1   0.10969 276646.080000
   5720   5722     1   0.10969 276646.080000
   5723   5724     1   0.10969 276646.080000
   5723   5725     1   0.10969 276646.080000
   5726   5727     1   0.10969 276646.080000
   5726   5728     1   0.10969 276646.080000
   5729   5730     1   0.10969 276646.080000
   5729   5731     1   0.10969 276646.080000
   5732   5733     1   0.10969 276646.080000
   5732   5734     1   0.10969 276646.080000
   5735   5736     1   0.10969 276646.080000
   5735   5737     1   0.10969 276646.080000
   5738   5739     1   0.10969 276646.080000
   5738   5740     1   0.10969 276646.080000
   5743   5744     1   0.10969 276646.080000
   5743   5745     1   0.10969 276646.080000
   5746   5747     1   0.10969 276646.080000
   5746   5748     1   0.10969 276646.080000
   5749   5750     1   0.10969 276646.080000
   5749   5751     1   0.10969 276646.080000
   5752   5753     1   0.10969 276646.080000
   5752   5754     1   0.10969 276646.080000
   5755   5756     1   0.10969 276646.080000
   5755   5757     1   0.10969 276646.080000
   5758   5759     1   0.10969 276646.080000
   5758   5760     1   0.10969 276646.080000
   5761   5762     1   0.10969 276646.080000
   5761   5763     1   0.10969 276646.080000
   5764   5765     1   0.10969 276646.080000
   5764   5766     1   0.10969 276646.080000
   5767   5768     1   0.10969 276646.080000
   5767   5769     1   0.10969 276646.080000
   5772   5773     1   0.10969 276646.080000
   5772   5774     1   0.10969 276646.080000
   5775   5776     1   0.10969 276646.080000
   5775   5777     1   0.10969 276646.080000
   5778   5779     1   0.10969 276646.080000
   5778   5780     1   0.10969 276646.080000
   5781   5782     1   0.10969 276646.080000
   5781   5783     1   0.10969 276646.080000
   5784   5785     1   0.10969 276646.080000
   5784   5786     1   0.10969 276646.080000
   5787   5788     1   0.10969 276646.080000
   5787   5789     1   0.10969 276646.080000
   5790   5791     1   0.10969 276646.080000
   5790   5792     1   0.10969 276646.080000
   5793   5794     1   0.10969 276646.080000
   5793   5795     1   0.10969 276646.080000
   5796   5797     1   0.10969 276646.080000
   5796   5798     1   0.10969 276646.080000
   5801   5802     1   0.10969 276646.080000
   5801   5803     1   0.10969 276646.080000
   5804   5805     1   0.10969 276646.080000
   5804   5806     1   0.10969 276646.080000
   5807   5808     1   0.10969 276646.080000
   5807   5809     1   0.10969 276646.080000
   5810   5811     1   0.10969 276646.080000
   5810   5812     1   0.10969 276646.080000
   5813   5814     1   0.10969 276646.080000
   5813   5815     1   0.10969 276646.080000
   5816   5817     1   0.10969 276646.080000
   5816   5818     1   0.10969 276646.080000
   5819   5820     1   0.10969 276646.080000
   5819   5821     1   0.10969 276646.080000
   5822   5823     1   0.10969 276646.080000
   5822   5824     1   0.10969 276646.080000
   5825   5826     1   0.10969 276646.080000
   5825   5827     1   0.10969 276646.080000
   5830   5831     1   0.10969 276646.080000
   5830   5832     1   0.10969 276646.080000
   5833   5834     1   0.10969 276646.080000
   5833   5835     1   0.10969 276646.080000
   5836   5837     1   0.10969 276646.080000
   5836   5838     1   0.10969 276646.080000
   5839   5840     1   0.10969 276646.080000
   5839   5841     1   0.10969 276646.080000
   5842   5843     1   0.10969 276646.080000
   5842   5844     1   0.10969 276646.080000
   5845   5846     1   0.10969 276646.080000
   5845   5847     1   0.10969 276646.080000
   5848   5849     1   0.10969 276646.080000
   5848   5850     1   0.10969 276646.080000
   5851   5852     1   0.10969 276646.080000
   5851   5853     1   0.10969 276646.080000
   5854   5855     1   0.10969 276646.080000
   5854   5856     1   0.10969 276646.080000
   5859   5860     1   0.10969 276646.080000
   5859   5861     1   0.10969 276646.080000
   5862   5863     1   0.10969 276646.080000
   5862   5864     1   0.10969 276646.080000
   5865   5866     1   0.10969 276646.080000
   5865   5867     1   0.10969 276646.080000
   5868   5869     1   0.10969 276646.080000
   5868   5870     1   0.10969 276646.080000
   5871   5872     1   0.10969 276646.080000
   5871   5873     1   0.10969 276646.080000
   5874   5875     1   0.10969 276646.080000
   5874   5876     1   0.10969 276646.080000
   5877   5878     1   0.10969 276646.080000
   5877   5879     1   0.10969 276646.080000
   5880   5881     1   0.10969 276646.080000
   5880   5882     1   0.10969 276646.080000
   5883   5884     1   0.10969 276646.080000
   5883   5885     1   0.10969 276646.080000
   5888   5889     1   0.10969 276646.080000
   5888   5890     1   0.10969 276646.080000
   5891   5892     1   0.10969 276646.080000
   5891   5893     1   0.10969 276646.080000
   5894   5895     1   0.10969 276646.080000
   5894   5896     1   0.10969 276646.080000
   5897   5898     1   0.10969 276646.080000
   5897   5899     1   0.10969 276646.080000
   5900   5901     1   0.10969 276646.080000
   5900   5902     1   0.10969 276646.080000
   5903   5904     1   0.10969 276646.080000
   5903   5905     1   0.10969 276646.080000
   5906   5907     1   0.10969 276646.080000
   5906   5908     1   0.10969 276646.080000
   5909   5910     1   0.10969 276646.080000
   5909   5911     1   0.10969 276646.080000
   5912   5913     1   0.10969 276646.080000
   5912   5914     1   0.10969 276646.080000
   5917   5918     1   0.10969 276646.080000
   5917   5919     1   0.10969 276646.080000
   5920   5921     1   0.10969 276646.080000
   5920   5922     1   0.10969 276646.080000
   5923   5924     1   0.10969 276646.080000
   5923   5925     1   0.10969 276646.080000
   5926   5927     1   0.10969 276646.080000
   5926   5928     1   0.10969 276646.080000
   5929   5930     1   0.10969 276646.080000
   5929   5931     1   0.10969 276646.080000
   5932   5933     1   0.10969 276646.080000
   5932   5934     1   0.10969 276646.080000
   5935   5936     1   0.10969 276646.080000
   5935   5937     1   0.10969 276646.080000
   5938   5939     1   0.10969 276646.080000
   5938   5940     1   0.10969 276646.080000
   5941   5942     1   0.10969 276646.080000
   5941   5943     1   0.10969 276646.080000
   5946   5947     1   0.10969 276646.080000
   5946   5948     1   0.10969 276646.080000
   5949   5950     1   0.10969 276646.080000
   5949   5951     1   0.10969 276646.080000
   5952   5953     1   0.10969 276646.080000
   5952   5954     1   0.10969 276646.080000
   5955   5956     1   0.10969 276646.080000
   5955   5957     1   0.10969 276646.080000
   5958   5959     1   0.10969 276646.080000
   5958   5960     1   0.10969 276646.080000
   5961   5962     1   0.10969 276646.080000
   5961   5963     1   0.10969 276646.080000
   5964   5965     1   0.10969 276646.080000
   5964   5966     1   0.10969 276646.080000
   5967   5968     1   0.10969 276646.080000
   5967   5969     1   0.10969 276646.080000
   5970   5971     1   0.10969 276646.080000
   5970   5972     1   0.10969 276646.080000
   5975   5976     1   0.10969 276646.080000
   5975   5977     1   0.10969 276646.080000
   5978   5979     1   0.10969 276646.080000
   5978   5980     1   0.10969 276646.080000
   5981   5982     1   0.10969 276646.080000
   5981   5983     1   0.10969 276646.080000
   5984   5985     1   0.10969 276646.080000
   5984   5986     1   0.10969 276646.080000
   5987   5988     1   0.10969 276646.080000
   5987   5989     1   0.10969 276646.080000
   5990   5991     1   0.10969 276646.080000
   5990   5992     1   0.10969 276646.080000
   5993   5994     1   0.10969 276646.080000
   5993   5995     1   0.10969 276646.080000
   5996   5997     1   0.10969 276646.080000
   5996   5998     1   0.10969 276646.080000
   5999   6000     1   0.10969 276646.080000
   5999   6001     1   0.10969 276646.080000
   6004   6005     1   0.10969 276646.080000
   6004   6006     1   0.10969 276646.080000
   6007   6008     1   0.10969 276646.080000
   6007   6009     1   0.10969 276646.080000
   6010   6011     1   0.10969 276646.080000
   6010   6012     1   0.10969 276646.080000
   6013   6014     1   0.10969 276646.080000
   6013   6015     1   0.10969 276646.080000
   6016   6017     1   0.10969 276646.080000
   6016   6018     1   0.10969 276646.080000
   6019   6020     1   0.10969 276646.080000
   6019   6021     1   0.10969 276646.080000
   6022   6023     1   0.10969 276646.080000
   6022   6024     1   0.10969 276646.080000
   6025   6026     1   0.10969 276646.080000
   6025   6027     1   0.10969 276646.080000
   6028   6029     1   0.10969 276646.080000
   6028   6030     1   0.10969 276646.080000
   6033   6034     1   0.10969 276646.080000
   6033   6035     1   0.10969 276646.080000
   6036   6037     1   0.10969 276646.080000
   6036   6038     1   0.10969 276646.080000
   6039   6040     1   0.10969 276646.080000
   6039   6041     1   0.10969 276646.080000
   6042   6043     1   0.10969 276646.080000
   6042   6044     1   0.10969 276646.080000
   6045   6046     1   0.10969 276646.080000
   6045   6047     1   0.10969 276646.080000
   6048   6049     1   0.10969 276646.080000
   6048   6050     1   0.10969 276646.080000
   6051   6052     1   0.10969 276646.080000
   6051   6053     1   0.10969 276646.080000
   6054   6055     1   0.10969 276646.080000
   6054   6056     1   0.10969 276646.080000
   6057   6058     1   0.10969 276646.080000
   6057   6059     1   0.10969 276646.080000
   6062   6063     1   0.10969 276646.080000
   6062   6064     1   0.10969 276646.080000
   6065   6066     1   0.10969 276646.080000
   6065   6067     1   0.10969 276646.080000
   6068   6069     1   0.10969 276646.080000
   6068   6070     1   0.10969 276646.080000
   6071   6072     1   0.10969 276646.080000
   6071   6073     1   0.10969 276646.080000
   6074   6075     1   0.10969 276646.080000
   6074   6076     1   0.10969 276646.080000
   6077   6078     1   0.10969 276646.080000
   6077   6079     1   0.10969 276646.080000
   6080   6081     1   0.10969 276646.080000
   6080   6082     1   0.10969 276646.080000
   6083   6084     1   0.10969 276646.080000
   6083   6085     1   0.10969 276646.080000
   6086   6087     1   0.10969 276646.080000
   6086   6088     1   0.10969 276646.080000
   6091   6092     1   0.10969 276646.080000
   6091   6093     1   0.10969 276646.080000
   6094   6095     1   0.10969 276646.080000
   6094   6096     1   0.10969 276646.080000
   6097   6098     1   0.10969 276646.080000
   6097   6099     1   0.10969 276646.080000
   6100   6101     1   0.10969 276646.080000
   6100   6102     1   0.10969 276646.080000
   6103   6104     1   0.10969 276646.080000
   6103   6105     1   0.10969 276646.080000
   6106   6107     1   0.10969 276646.080000
   6106   6108     1   0.10969 276646.080000
   6109   6110     1   0.10969 276646.080000
   6109   6111     1   0.10969 276646.080000
   6112   6113     1   0.10969 276646.080000
   6112   6114     1   0.10969 276646.080000
   6115   6116     1   0.10969 276646.080000
   6115   6117     1   0.10969 276646.080000
   6120   6121     1   0.10969 276646.080000
   6120   6122     1   0.10969 276646.080000
   6123   6124     1   0.10969 276646.080000
   6123   6125     1   0.10969 276646.080000
   6126   6127     1   0.10969 276646.080000
   6126   6128     1   0.10969 276646.080000
   6129   6130     1   0.10969 276646.080000
   6129   6131     1   0.10969 276646.080000
   6132   6133     1   0.10969 276646.080000
   6132   6134     1   0.10969 276646.080000
   6135   6136     1   0.10969 276646.080000
   6135   6137     1   0.10969 276646.080000
   6138   6139     1   0.10969 276646.080000
   6138   6140     1   0.10969 276646.080000
   6141   6142     1   0.10969 276646.080000
   6141   6143     1   0.10969 276646.080000
   6144   6145     1   0.10969 276646.080000
   6144   6146     1   0.10969 276646.080000
   6149   6150     1   0.10969 276646.080000
   6149   6151     1   0.10969 276646.080000
   6152   6153     1   0.10969 276646.080000
   6152   6154     1   0.10969 276646.080000
   6155   6156     1   0.10969 276646.080000
   6155   6157     1   0.10969 276646.080000
   6158   6159     1   0.10969 276646.080000
   6158   6160     1   0.10969 276646.080000
   6161   6162     1   0.10969 276646.080000
   6161   6163     1   0.10969 276646.080000
   6164   6165     1   0.10969 276646.080000
   6164   6166     1   0.10969 276646.080000
   6167   6168     1   0.10969 276646.080000
   6167   6169     1   0.10969 276646.080000
   6170   6171     1   0.10969 276646.080000
   6170   6172     1   0.10969 276646.080000
   6173   6174     1   0.10969 276646.080000
   6173   6175     1   0.10969 276646.080000
   6178   6179     1   0.10969 276646.080000
   6178   6180     1   0.10969 276646.080000
   6181   6182     1   0.10969 276646.080000
   6181   6183     1   0.10969 276646.080000
   6184   6185     1   0.10969 276646.080000
   6184   6186     1   0.10969 276646.080000
   6187   6188     1   0.10969 276646.080000
   6187   6189     1   0.10969 276646.080000
   6190   6191     1   0.10969 276646.080000
   6190   6192     1   0.10969 276646.080000
   6193   6194     1   0.10969 276646.080000
   6193   6195     1   0.10969 276646.080000
   6196   6197     1   0.10969 276646.080000
   6196   6198     1   0.10969 276646.080000
   6199   6200     1   0.10969 276646.080000
   6199   6201     1   0.10969 276646.080000
   6202   6203     1   0.10969 276646.080000
   6202   6204     1   0.10969 276646.080000
   6207   6208     1   0.10969 276646.080000
   6207   6209     1   0.10969 276646.080000
   6210   6211     1   0.10969 276646.080000
   6210   6212     1   0.10969 276646.080000
   6213   6214     1   0.10969 276646.080000
   6213   6215     1   0.10969 276646.080000
   6216   6217     1   0.10969 276646.080000
   6216   6218     1   0.10969 276646.080000
   6219   6220     1   0.10969 276646.080000
   6219   6221     1   0.10969 276646.080000
   6222   6223     1   0.10969 276646.080000
   6222   6224     1   0.10969 276646.080000
   6225   6226     1   0.10969 276646.080000
   6225   6227     1   0.10969 276646.080000
   6228   6229     1   0.10969 276646.080000
   6228   6230     1   0.10969 276646.080000
   6231   6232     1   0.10969 276646.080000
   6231   6233     1   0.10969 276646.080000
   6236   6237     1   0.10969 276646.080000
   6236   6238     1   0.10969 276646.080000
   6239   6240     1   0.10969 276646.080000
   6239   6241     1   0.10969 276646.080000
   6242   6243     1   0.10969 276646.080000
   6242   6244     1   0.10969 276646.080000
   6245   6246     1   0.10969 276646.080000
   6245   6247     1   0.10969 276646.080000
   6248   6249     1   0.10969 276646.080000
   6248   6250     1   0.10969 276646.080000
   6251   6252     1   0.10969 276646.080000
   6251   6253     1   0.10969 276646.080000
   6254   6255     1   0.10969 276646.080000
   6254   6256     1   0.10969 276646.080000
   6257   6258     1   0.10969 276646.080000
   6257   6259     1   0.10969 276646.080000
   6260   6261     1   0.10969 276646.080000
   6260   6262     1   0.10969 276646.080000
   6265   6266     1   0.10969 276646.080000
   6265   6267     1   0.10969 276646.080000
   6268   6269     1   0.10969 276646.080000
   6268   6270     1   0.10969 276646.080000
   6271   6272     1   0.10969 276646.080000
   6271   6273     1   0.10969 276646.080000
   6274   6275     1   0.10969 276646.080000
   6274   6276     1   0.10969 276646.080000
   6277   6278     1   0.10969 276646.080000
   6277   6279     1   0.10969 276646.080000
   6280   6281     1   0.10969 276646.080000
   6280   6282     1   0.10969 276646.080000
   6283   6284     1   0.10969 276646.080000
   6283   6285     1   0.10969 276646.080000
   6286   6287     1   0.10969 276646.080000
   6286   6288     1   0.10969 276646.080000
   6289   6290     1   0.10969 276646.080000
   6289   6291     1   0.10969 276646.080000
   6294   6295     1   0.10969 276646.080000
   6294   6296     1   0.10969 276646.080000
   6297   6298     1   0.10969 276646.080000
   6297   6299     1   0.10969 276646.080000
   6300   6301     1   0.10969 276646.080000
   6300   6302     1   0.10969 276646.080000
   6303   6304     1   0.10969 276646.080000
   6303   6305     1   0.10969 276646.080000
   6306   6307     1   0.10969 276646.080000
   6306   6308     1   0.10969 276646.080000
   6309   6310     1   0.10969 276646.080000
   6309   6311     1   0.10969 276646.080000
   6312   6313     1   0.10969 276646.080000
   6312   6314     1   0.10969 276646.080000
   6315   6316     1   0.10969 276646.080000
   6315   6317     1   0.10969 276646.080000
   6318   6319     1   0.10969 276646.080000
   6318   6320     1   0.10969 276646.080000
   6323   6324     1   0.10969 276646.080000
   6323   6325     1   0.10969 276646.080000
   6326   6327     1   0.10969 276646.080000
   6326   6328     1   0.10969 276646.080000
   6329   6330     1   0.10969 276646.080000
   6329   6331     1   0.10969 276646.080000
   6332   6333     1   0.10969 276646.080000
   6332   6334     1   0.10969 276646.080000
   6335   6336     1   0.10969 276646.080000
   6335   6337     1   0.10969 276646.080000
   6338   6339     1   0.10969 276646.080000
   6338   6340     1   0.10969 276646.080000
   6341   6342     1   0.10969 276646.080000
   6341   6343     1   0.10969 276646.080000
   6344   6345     1   0.10969 276646.080000
   6344   6346     1   0.10969 276646.080000
   6347   6348     1   0.10969 276646.080000
   6347   6349     1   0.10969 276646.080000
   6352   6353     1   0.10969 276646.080000
   6352   6354     1   0.10969 276646.080000
   6355   6356     1   0.10969 276646.080000
   6355   6357     1   0.10969 276646.080000
   6358   6359     1   0.10969 276646.080000
   6358   6360     1   0.10969 276646.080000
   6361   6362     1   0.10969 276646.080000
   6361   6363     1   0.10969 276646.080000
   6364   6365     1   0.10969 276646.080000
   6364   6366     1   0.10969 276646.080000
   6367   6368     1   0.10969 276646.080000
   6367   6369     1   0.10969 276646.080000
   6370   6371     1   0.10969 276646.080000
   6370   6372     1   0.10969 276646.080000
   6373   6374     1   0.10969 276646.080000
   6373   6375     1   0.10969 276646.080000
   6376   6377     1   0.10969 276646.080000
   6376   6378     1   0.10969 276646.080000
   6381   6382     1   0.10969 276646.080000
   6381   6383     1   0.10969 276646.080000
   6384   6385     1   0.10969 276646.080000
   6384   6386     1   0.10969 276646.080000
   6387   6388     1   0.10969 276646.080000
   6387   6389     1   0.10969 276646.080000
   6390   6391     1   0.10969 276646.080000
   6390   6392     1   0.10969 276646.080000
   6393   6394     1   0.10969 276646.080000
   6393   6395     1   0.10969 276646.080000
   6396   6397     1   0.10969 276646.080000
   6396   6398     1   0.10969 276646.080000
   6399   6400     1   0.10969 276646.080000
   6399   6401     1   0.10969 276646.080000
   6402   6403     1   0.10969 276646.080000
   6402   6404     1   0.10969 276646.080000
   6405   6406     1   0.10969 276646.080000
   6405   6407     1   0.10969 276646.080000
   6410   6411     1   0.10969 276646.080000
   6410   6412     1   0.10969 276646.080000
   6413   6414     1   0.10969 276646.080000
   6413   6415     1   0.10969 276646.080000
   6416   6417     1   0.10969 276646.080000
   6416   6418     1   0.10969 276646.080000
   6419   6420     1   0.10969 276646.080000
   6419   6421     1   0.10969 276646.080000
   6422   6423     1   0.10969 276646.080000
   6422   6424     1   0.10969 276646.080000
   6425   6426     1   0.10969 276646.080000
   6425   6427     1   0.10969 276646.080000
   6428   6429     1   0.10969 276646.080000
   6428   6430     1   0.10969 276646.080000
   6431   6432     1   0.10969 276646.080000
   6431   6433     1   0.10969 276646.080000
   6434   6435     1   0.10969 276646.080000
   6434   6436     1   0.10969 276646.080000
   6439   6440     1   0.10969 276646.080000
   6439   6441     1   0.10969 276646.080000
   6442   6443     1   0.10969 276646.080000
   6442   6444     1   0.10969 276646.080000
   6445   6446     1   0.10969 276646.080000
   6445   6447     1   0.10969 276646.080000
   6448   6449     1   0.10969 276646.080000
   6448   6450     1   0.10969 276646.080000
   6451   6452     1   0.10969 276646.080000
   6451   6453     1   0.10969 276646.080000
   6454   6455     1   0.10969 276646.080000
   6454   6456     1   0.10969 276646.080000
   6457   6458     1   0.10969 276646.080000
   6457   6459     1   0.10969 276646.080000
   6460   6461     1   0.10969 276646.080000
   6460   6462     1   0.10969 276646.080000
   6463   6464     1   0.10969 276646.080000
   6463   6465     1   0.10969 276646.080000
   6468   6469     1   0.10969 276646.080000
   6468   6470     1   0.10969 276646.080000
   6471   6472     1   0.10969 276646.080000
   6471   6473     1   0.10969 276646.080000
   6474   6475     1   0.10969 276646.080000
   6474   6476     1   0.10969 276646.080000
   6477   6478     1   0.10969 276646.080000
   6477   6479     1   0.10969 276646.080000
   6480   6481     1   0.10969 276646.080000
   6480   6482     1   0.10969 276646.080000
   6483   6484     1   0.10969 276646.080000
   6483   6485     1   0.10969 276646.080000
   6486   6487     1   0.10969 276646.080000
   6486   6488     1   0.10969 276646.080000
   6489   6490     1   0.10969 276646.080000
   6489   6491     1   0.10969 276646.080000
   6492   6493     1   0.10969 276646.080000
   6492   6494     1   0.10969 276646.080000
   6497   6498     1   0.10969 276646.080000
   6497   6499     1   0.10969 276646.080000
   6500   6501     1   0.10969 276646.080000
   6500   6502     1   0.10969 276646.080000
   6503   6504     1   0.10969 276646.080000
   6503   6505     1   0.10969 276646.080000
   6506   6507     1   0.10969 276646.080000
   6506   6508     1   0.10969 276646.080000
   6509   6510     1   0.10969 276646.080000
   6509   6511     1   0.10969 276646.080000
   6512   6513     1   0.10969 276646.080000
   6512   6514     1   0.10969 276646.080000
   6515   6516     1   0.10969 276646.080000
   6515   6517     1   0.10969 276646.080000
   6518   6519     1   0.10969 276646.080000
   6518   6520     1   0.10969 276646.080000
   6521   6522     1   0.10969 276646.080000
   6521   6523     1   0.10969 276646.080000
   6526   6527     1   0.10969 276646.080000
   6526   6528     1   0.10969 276646.080000
   6529   6530     1   0.10969 276646.080000
   6529   6531     1   0.10969 276646.080000
   6532   6533     1   0.10969 276646.080000
   6532   6534     1   0.10969 276646.080000
   6535   6536     1   0.10969 276646.080000
   6535   6537     1   0.10969 276646.080000
   6538   6539     1   0.10969 276646.080000
   6538   6540     1   0.10969 276646.080000
   6541   6542     1   0.10969 276646.080000
   6541   6543     1   0.10969 276646.080000
   6544   6545     1   0.10969 276646.080000
   6544   6546     1   0.10969 276646.080000
   6547   6548     1   0.10969 276646.080000
   6547   6549     1   0.10969 276646.080000
   6550   6551     1   0.10969 276646.080000
   6550   6552     1   0.10969 276646.080000
   6555   6556     1   0.10969 276646.080000
   6555   6557     1   0.10969 276646.080000
   6558   6559     1   0.10969 276646.080000
   6558   6560     1   0.10969 276646.080000
   6561   6562     1   0.10969 276646.080000
   6561   6563     1   0.10969 276646.080000
   6564   6565     1   0.10969 276646.080000
   6564   6566     1   0.10969 276646.080000
   6567   6568     1   0.10969 276646.080000
   6567   6569     1   0.10969 276646.080000
   6570   6571     1   0.10969 276646.080000
   6570   6572     1   0.10969 276646.080000
   6573   6574     1   0.10969 276646.080000
   6573   6575     1   0.10969 276646.080000
   6576   6577     1   0.10969 276646.080000
   6576   6578     1   0.10969 276646.080000
   6579   6580     1   0.10969 276646.080000
   6579   6581     1   0.10969 276646.080000
   6584   6585     1   0.10969 276646.080000
   6584   6586     1   0.10969 276646.080000
   6587   6588     1   0.10969 276646.080000
   6587   6589     1   0.10969 276646.080000
   6590   6591     1   0.10969 276646.080000
   6590   6592     1   0.10969 276646.080000
   6593   6594     1   0.10969 276646.080000
   6593   6595     1   0.10969 276646.080000
   6596   6597     1   0.10969 276646.080000
   6596   6598     1   0.10969 276646.080000
   6599   6600     1   0.10969 276646.080000
   6599   6601     1   0.10969 276646.080000
   6602   6603     1   0.10969 276646.080000
   6602   6604     1   0.10969 276646.080000
   6605   6606     1   0.10969 276646.080000
   6605   6607     1   0.10969 276646.080000
   6608   6609     1   0.10969 276646.080000
   6608   6610     1   0.10969 276646.080000
   6613   6614     1   0.10969 276646.080000
   6613   6615     1   0.10969 276646.080000
   6616   6617     1   0.10969 276646.080000
   6616   6618     1   0.10969 276646.080000
   6619   6620     1   0.10969 276646.080000
   6619   6621     1   0.10969 276646.080000
   6622   6623     1   0.10969 276646.080000
   6622   6624     1   0.10969 276646.080000
   6625   6626     1   0.10969 276646.080000
   6625   6627     1   0.10969 276646.080000
   6628   6629     1   0.10969 276646.080000
   6628   6630     1   0.10969 276646.080000
   6631   6632     1   0.10969 276646.080000
   6631   6633     1   0.10969 276646.080000
   6634   6635     1   0.10969 276646.080000
   6634   6636     1   0.10969 276646.080000
   6637   6638     1   0.10969 276646.080000
   6637   6639     1   0.10969 276646.080000
   6642   6643     1   0.10969 276646.080000
   6642   6644     1   0.10969 276646.080000
   6645   6646     1   0.10969 276646.080000
   6645   6647     1   0.10969 276646.080000
   6648   6649     1   0.10969 276646.080000
   6648   6650     1   0.10969 276646.080000
   6651   6652     1   0.10969 276646.080000
   6651   6653     1   0.10969 276646.080000
   6654   6655     1   0.10969 276646.080000
   6654   6656     1   0.10969 276646.080000
   6657   6658     1   0.10969 276646.080000
   6657   6659     1   0.10969 276646.080000
   6660   6661     1   0.10969 276646.080000
   6660   6662     1   0.10969 276646.080000
   6663   6664     1   0.10969 276646.080000
   6663   6665     1   0.10969 276646.080000
   6666   6667     1   0.10969 276646.080000
   6666   6668     1   0.10969 276646.080000
   6671   6672     1   0.10969 276646.080000
   6671   6673     1   0.10969 276646.080000
   6674   6675     1   0.10969 276646.080000
   6674   6676     1   0.10969 276646.080000
   6677   6678     1   0.10969 276646.080000
   6677   6679     1   0.10969 276646.080000
   6680   6681     1   0.10969 276646.080000
   6680   6682     1   0.10969 276646.080000
   6683   6684     1   0.10969 276646.080000
   6683   6685     1   0.10969 276646.080000
   6686   6687     1   0.10969 276646.080000
   6686   6688     1   0.10969 276646.080000
   6689   6690     1   0.10969 276646.080000
   6689   6691     1   0.10969 276646.080000
   6692   6693     1   0.10969 276646.080000
   6692   6694     1   0.10969 276646.080000
   6695   6696     1   0.10969 276646.080000
   6695   6697     1   0.10969 276646.080000
   6700   6701     1   0.10969 276646.080000
   6700   6702     1   0.10969 276646.080000
   6703   6704     1   0.10969 276646.080000
   6703   6705     1   0.10969 276646.080000
   6706   6707     1   0.10969 276646.080000
   6706   6708     1   0.10969 276646.080000
   6709   6710     1   0.10969 276646.080000
   6709   6711     1   0.10969 276646.080000
   6712   6713     1   0.10969 276646.080000
   6712   6714     1   0.10969 276646.080000
   6715   6716     1   0.10969 276646.080000
   6715   6717     1   0.10969 276646.080000
   6718   6719     1   0.10969 276646.080000
   6718   6720     1   0.10969 276646.080000
   6721   6722     1   0.10969 276646.080000
   6721   6723     1   0.10969 276646.080000
   6724   6725     1   0.10969 276646.080000
   6724   6726     1   0.10969 276646.080000
   6729   6730     1   0.10969 276646.080000
   6729   6731     1   0.10969 276646.080000
   6732   6733     1   0.10969 276646.080000
   6732   6734     1   0.10969 276646.080000
   6735   6736     1   0.10969 276646.080000
   6735   6737     1   0.10969 276646.080000
   6738   6739     1   0.10969 276646.080000
   6738   6740     1   0.10969 276646.080000
   6741   6742     1   0.10969 276646.080000
   6741   6743     1   0.10969 276646.080000
   6744   6745     1   0.10969 276646.080000
   6744   6746     1   0.10969 276646.080000
   6747   6748     1   0.10969 276646.080000
   6747   6749     1   0.10969 276646.080000
   6750   6751     1   0.10969 276646.080000
   6750   6752     1   0.10969 276646.080000
   6753   6754     1   0.10969 276646.080000
   6753   6755     1   0.10969 276646.080000
   6758   6759     1   0.10969 276646.080000
   6758   6760     1   0.10969 276646.080000
   6761   6762     1   0.10969 276646.080000
   6761   6763     1   0.10969 276646.080000
   6764   6765     1   0.10969 276646.080000
   6764   6766     1   0.10969 276646.080000
   6767   6768     1   0.10969 276646.080000
   6767   6769     1   0.10969 276646.080000
   6770   6771     1   0.10969 276646.080000
   6770   6772     1   0.10969 276646.080000
   6773   6774     1   0.10969 276646.080000
   6773   6775     1   0.10969 276646.080000
   6776   6777     1   0.10969 276646.080000
   6776   6778     1   0.10969 276646.080000
   6779   6780     1   0.10969 276646.080000
   6779   6781     1   0.10969 276646.080000
   6782   6783     1   0.10969 276646.080000
   6782   6784     1   0.10969 276646.080000
   6787   6788     1   0.10969 276646.080000
   6787   6789     1   0.10969 276646.080000
   6790   6791     1   0.10969 276646.080000
   6790   6792     1   0.10969 276646.080000
   6793   6794     1   0.10969 276646.080000
   6793   6795     1   0.10969 276646.080000
   6796   6797     1   0.10969 276646.080000
   6796   6798     1   0.10969 276646.080000
   6799   6800     1   0.10969 276646.080000
   6799   6801     1   0.10969 276646.080000
   6802   6803     1   0.10969 276646.080000
   6802   6804     1   0.10969 276646.080000
   6805   6806     1   0.10969 276646.080000
   6805   6807     1   0.10969 276646.080000
   6808   6809     1   0.10969 276646.080000
   6808   6810     1   0.10969 276646.080000
   6811   6812     1   0.10969 276646.080000
   6811   6813     1   0.10969 276646.080000
   6816   6817     1   0.10969 276646.080000
   6816   6818     1   0.10969 276646.080000
   6819   6820     1   0.10969 276646.080000
   6819   6821     1   0.10969 276646.080000
   6822   6823     1   0.10969 276646.080000
   6822   6824     1   0.10969 276646.080000
   6825   6826     1   0.10969 276646.080000
   6825   6827     1   0.10969 276646.080000
   6828   6829     1   0.10969 276646.080000
   6828   6830     1   0.10969 276646.080000
   6831   6832     1   0.10969 276646.080000
   6831   6833     1   0.10969 276646.080000
   6834   6835     1   0.10969 276646.080000
   6834   6836     1   0.10969 276646.080000
   6837   6838     1   0.10969 276646.080000
   6837   6839     1   0.10969 276646.080000
   6840   6841     1   0.10969 276646.080000
   6840   6842     1   0.10969 276646.080000
   6845   6846     1   0.10969 276646.080000
   6845   6847     1   0.10969 276646.080000
   6848   6849     1   0.10969 276646.080000
   6848   6850     1   0.10969 276646.080000
   6851   6852     1   0.10969 276646.080000
   6851   6853     1   0.10969 276646.080000
   6854   6855     1   0.10969 276646.080000
   6854   6856     1   0.10969 276646.080000
   6857   6858     1   0.10969 276646.080000
   6857   6859     1   0.10969 276646.080000
   6860   6861     1   0.10969 276646.080000
   6860   6862     1   0.10969 276646.080000
   6863   6864     1   0.10969 276646.080000
   6863   6865     1   0.10969 276646.080000
   6866   6867     1   0.10969 276646.080000
   6866   6868     1   0.10969 276646.080000
   6869   6870     1   0.10969 276646.080000
   6869   6871     1   0.10969 276646.080000
   6874   6875     1   0.10969 276646.080000
   6874   6876     1   0.10969 276646.080000
   6877   6878     1   0.10969 276646.080000
   6877   6879     1   0.10969 276646.080000
   6880   6881     1   0.10969 276646.080000
   6880   6882     1   0.10969 276646.080000
   6883   6884     1   0.10969 276646.080000
   6883   6885     1   0.10969 276646.080000
   6886   6887     1   0.10969 276646.080000
   6886   6888     1   0.10969 276646.080000
   6889   6890     1   0.10969 276646.080000
   6889   6891     1   0.10969 276646.080000
   6892   6893     1   0.10969 276646.080000
   6892   6894     1   0.10969 276646.080000
   6895   6896     1   0.10969 276646.080000
   6895   6897     1   0.10969 276646.080000
   6898   6899     1   0.10969 276646.080000
   6898   6900     1   0.10969 276646.080000
   6903   6904     1   0.10969 276646.080000
   6903   6905     1   0.10969 276646.080000
   6906   6907     1   0.10969 276646.080000
   6906   6908     1   0.10969 276646.080000
   6909   6910     1   0.10969 276646.080000
   6909   6911     1   0.10969 276646.080000
   6912   6913     1   0.10969 276646.080000
   6912   6914     1   0.10969 276646.080000
   6915   6916     1   0.10969 276646.080000
   6915   6917     1   0.10969 276646.080000
   6918   6919     1   0.10969 276646.080000
   6918   6920     1   0.10969 276646.080000
   6921   6922     1   0.10969 276646.080000
   6921   6923     1   0.10969 276646.080000
   6924   6925     1   0.10969 276646.080000
   6924   6926     1   0.10969 276646.080000
   6927   6928     1   0.10969 276646.080000
   6927   6929     1   0.10969 276646.080000
   6932   6933     1   0.10969 276646.080000
   6932   6934     1   0.10969 276646.080000
   6935   6936     1   0.10969 276646.080000
   6935   6937     1   0.10969 276646.080000
   6938   6939     1   0.10969 276646.080000
   6938   6940     1   0.10969 276646.080000
   6941   6942     1   0.10969 276646.080000
   6941   6943     1   0.10969 276646.080000
   6944   6945     1   0.10969 276646.080000
   6944   6946     1   0.10969 276646.080000
   6947   6948     1   0.10969 276646.080000
   6947   6949     1   0.10969 276646.080000
   6950   6951     1   0.10969 276646.080000
   6950   6952     1   0.10969 276646.080000
   6953   6954     1   0.10969 276646.080000
   6953   6955     1   0.10969 276646.080000
   6956   6957     1   0.10969 276646.080000
   6956   6958     1   0.10969 276646.080000
   6961   6962     1   0.10969 276646.080000
   6961   6963     1   0.10969 276646.080000
   6964   6965     1   0.10969 276646.080000
   6964   6966     1   0.10969 276646.080000
   6967   6968     1   0.10969 276646.080000
   6967   6969     1   0.10969 276646.080000
   6970   6971     1   0.10969 276646.080000
   6970   6972     1   0.10969 276646.080000
   6973   6974     1   0.10969 276646.080000
   6973   6975     1   0.10969 276646.080000
   6976   6977     1   0.10969 276646.080000
   6976   6978     1   0.10969 276646.080000
   6979   6980     1   0.10969 276646.080000
   6979   6981     1   0.10969 276646.080000
   6982   6983     1   0.10969 276646.080000
   6982   6984     1   0.10969 276646.080000
   6985   6986     1   0.10969 276646.080000
   6985   6987     1   0.10969 276646.080000
   6990   6991     1   0.10969 276646.080000
   6990   6992     1   0.10969 276646.080000
   6993   6994     1   0.10969 276646.080000
   6993   6995     1   0.10969 276646.080000
   6996   6997     1   0.10969 276646.080000
   6996   6998     1   0.10969 276646.080000
   6999   7000     1   0.10969 276646.080000
   6999   7001     1   0.10969 276646.080000
   7002   7003     1   0.10969 276646.080000
   7002   7004     1   0.10969 276646.080000
   7005   7006     1   0.10969 276646.080000
   7005   7007     1   0.10969 276646.080000
   7008   7009     1   0.10969 276646.080000
   7008   7010     1   0.10969 276646.080000
   7011   7012     1   0.10969 276646.080000
   7011   7013     1   0.10969 276646.080000
   7014   7015     1   0.10969 276646.080000
   7014   7016     1   0.10969 276646.080000
   7019   7020     1   0.10969 276646.080000
   7019   7021     1   0.10969 276646.080000
   7022   7023     1   0.10969 276646.080000
   7022   7024     1   0.10969 276646.080000
   7025   7026     1   0.10969 276646.080000
   7025   7027     1   0.10969 276646.080000
   7028   7029     1   0.10969 276646.080000
   7028   7030     1   0.10969 276646.080000
   7031   7032     1   0.10969 276646.080000
   7031   7033     1   0.10969 276646.080000
   7034   7035     1   0.10969 276646.080000
   7034   7036     1   0.10969 276646.080000
   7037   7038     1   0.10969 276646.080000
   7037   7039     1   0.10969 276646.080000
   7040   7041     1   0.10969 276646.080000
   7040   7042     1   0.10969 276646.080000
   7043   7044     1   0.10969 276646.080000
   7043   7045     1   0.10969 276646.080000
   7048   7049     1   0.10969 276646.080000
   7048   7050     1   0.10969 276646.080000
   7051   7052     1   0.10969 276646.080000
   7051   7053     1   0.10969 276646.080000
   7054   7055     1   0.10969 276646.080000
   7054   7056     1   0.10969 276646.080000
   7057   7058     1   0.10969 276646.080000
   7057   7059     1   0.10969 276646.080000
   7060   7061     1   0.10969 276646.080000
   7060   7062     1   0.10969 276646.080000
   7063   7064     1   0.10969 276646.080000
   7063   7065     1   0.10969 276646.080000
   7066   7067     1   0.10969 276646.080000
   7066   7068     1   0.10969 276646.080000
   7069   7070     1   0.10969 276646.080000
   7069   7071     1   0.10969 276646.080000
   7072   7073     1   0.10969 276646.080000
   7072   7074     1   0.10969 276646.080000
   7077   7078     1   0.10969 276646.080000
   7077   7079     1   0.10969 276646.080000
   7080   7081     1   0.10969 276646.080000
   7080   7082     1   0.10969 276646.080000
   7083   7084     1   0.10969 276646.080000
   7083   7085     1   0.10969 276646.080000
   7086   7087     1   0.10969 276646.080000
   7086   7088     1   0.10969 276646.080000
   7089   7090     1   0.10969 276646.080000
   7089   7091     1   0.10969 276646.080000
   7092   7093     1   0.10969 276646.080000
   7092   7094     1   0.10969 276646.080000
   7095   7096     1   0.10969 276646.080000
   7095   7097     1   0.10969 276646.080000
   7098   7099     1   0.10969 276646.080000
   7098   7100     1   0.10969 276646.080000
   7101   7102     1   0.10969 276646.080000
   7101   7103     1   0.10969 276646.080000
   7106   7107     1   0.10969 276646.080000
   7106   7108     1   0.10969 276646.080000
   7109   7110     1   0.10969 276646.080000
   7109   7111     1   0.10969 276646.080000
   7112   7113     1   0.10969 276646.080000
   7112   7114     1   0.10969 276646.080000
   7115   7116     1   0.10969 276646.080000
   7115   7117     1   0.10969 276646.080000
   7118   7119     1   0.10969 276646.080000
   7118   7120     1   0.10969 276646.080000
   7121   7122     1   0.10969 276646.080000
   7121   7123     1   0.10969 276646.080000
   7124   7125     1   0.10969 276646.080000
   7124   7126     1   0.10969 276646.080000
   7127   7128     1   0.10969 276646.080000
   7127   7129     1   0.10969 276646.080000
   7130   7131     1   0.10969 276646.080000
   7130   7132     1   0.10969 276646.080000
   7135   7136     1   0.10969 276646.080000
   7135   7137     1   0.10969 276646.080000
   7138   7139     1   0.10969 276646.080000
   7138   7140     1   0.10969 276646.080000
   7141   7142     1   0.10969 276646.080000
   7141   7143     1   0.10969 276646.080000
   7144   7145     1   0.10969 276646.080000
   7144   7146     1   0.10969 276646.080000
   7147   7148     1   0.10969 276646.080000
   7147   7149     1   0.10969 276646.080000
   7150   7151     1   0.10969 276646.080000
   7150   7152     1   0.10969 276646.080000
   7153   7154     1   0.10969 276646.080000
   7153   7155     1   0.10969 276646.080000
   7156   7157     1   0.10969 276646.080000
   7156   7158     1   0.10969 276646.080000
   7159   7160     1   0.10969 276646.080000
   7159   7161     1   0.10969 276646.080000
   7164   7165     1   0.10969 276646.080000
   7164   7166     1   0.10969 276646.080000
   7167   7168     1   0.10969 276646.080000
   7167   7169     1   0.10969 276646.080000
   7170   7171     1   0.10969 276646.080000
   7170   7172     1   0.10969 276646.080000
   7173   7174     1   0.10969 276646.080000
   7173   7175     1   0.10969 276646.080000
   7176   7177     1   0.10969 276646.080000
   7176   7178     1   0.10969 276646.080000
   7179   7180     1   0.10969 276646.080000
   7179   7181     1   0.10969 276646.080000
   7182   7183     1   0.10969 276646.080000
   7182   7184     1   0.10969 276646.080000
   7185   7186     1   0.10969 276646.080000
   7185   7187     1   0.10969 276646.080000
   7188   7189     1   0.10969 276646.080000
   7188   7190     1   0.10969 276646.080000
   7193   7194     1   0.10969 276646.080000
   7193   7195     1   0.10969 276646.080000
   7196   7197     1   0.10969 276646.080000
   7196   7198     1   0.10969 276646.080000
   7199   7200     1   0.10969 276646.080000
   7199   7201     1   0.10969 276646.080000
   7202   7203     1   0.10969 276646.080000
   7202   7204     1   0.10969 276646.080000
   7205   7206     1   0.10969 276646.080000
   7205   7207     1   0.10969 276646.080000
   7208   7209     1   0.10969 276646.080000
   7208   7210     1   0.10969 276646.080000
   7211   7212     1   0.10969 276646.080000
   7211   7213     1   0.10969 276646.080000
   7214   7215     1   0.10969 276646.080000
   7214   7216     1   0.10969 276646.080000
   7217   7218     1   0.10969 276646.080000
   7217   7219     1   0.10969 276646.080000
   7222   7223     1   0.10969 276646.080000
   7222   7224     1   0.10969 276646.080000
   7225   7226     1   0.10969 276646.080000
   7225   7227     1   0.10969 276646.080000
   7228   7229     1   0.10969 276646.080000
   7228   7230     1   0.10969 276646.080000
   7231   7232     1   0.10969 276646.080000
   7231   7233     1   0.10969 276646.080000
   7234   7235     1   0.10969 276646.080000
   7234   7236     1   0.10969 276646.080000
   7237   7238     1   0.10969 276646.080000
   7237   7239     1   0.10969 276646.080000
   7240   7241     1   0.10969 276646.080000
   7240   7242     1   0.10969 276646.080000
   7243   7244     1   0.10969 276646.080000
   7243   7245     1   0.10969 276646.080000
   7246   7247     1   0.10969 276646.080000
   7246   7248     1   0.10969 276646.080000
   7251   7252     1   0.10969 276646.080000
   7251   7253     1   0.10969 276646.080000
   7254   7255     1   0.10969 276646.080000
   7254   7256     1   0.10969 276646.080000
   7257   7258     1   0.10969 276646.080000
   7257   7259     1   0.10969 276646.080000
   7260   7261     1   0.10969 276646.080000
   7260   7262     1   0.10969 276646.080000
   7263   7264     1   0.10969 276646.080000
   7263   7265     1   0.10969 276646.080000
   7266   7267     1   0.10969 276646.080000
   7266   7268     1   0.10969 276646.080000
   7269   7270     1   0.10969 276646.080000
   7269   7271     1   0.10969 276646.080000
   7272   7273     1   0.10969 276646.080000
   7272   7274     1   0.10969 276646.080000
   7275   7276     1   0.10969 276646.080000
   7275   7277     1   0.10969 276646.080000
   7280   7281     1   0.10969 276646.080000
   7280   7282     1   0.10969 276646.080000
   7283   7284     1   0.10969 276646.080000
   7283   7285     1   0.10969 276646.080000
   7286   7287     1   0.10969 276646.080000
   7286   7288     1   0.10969 276646.080000
   7289   7290     1   0.10969 276646.080000
   7289   7291     1   0.10969 276646.080000
   7292   7293     1   0.10969 276646.080000
   7292   7294     1   0.10969 276646.080000
   7295   7296     1   0.10969 276646.080000
   7295   7297     1   0.10969 276646.080000
   7298   7299     1   0.10969 276646.080000
   7298   7300     1   0.10969 276646.080000
   7301   7302     1   0.10969 276646.080000
   7301   7303     1   0.10969 276646.080000
   7304   7305     1   0.10969 276646.080000
   7304   7306     1   0.10969 276646.080000
   7309   7310     1   0.10969 276646.080000
   7309   7311     1   0.10969 276646.080000
   7312   7313     1   0.10969 276646.080000
   7312   7314     1   0.10969 276646.080000
   7315   7316     1   0.10969 276646.080000
   7315   7317     1   0.10969 276646.080000
   7318   7319     1   0.10969 276646.080000
   7318   7320     1   0.10969 276646.080000
   7321   7322     1   0.10969 276646.080000
   7321   7323     1   0.10969 276646.080000
   7324   7325     1   0.10969 276646.080000
   7324   7326     1   0.10969 276646.080000
   7327   7328     1   0.10969 276646.080000
   7327   7329     1   0.10969 276646.080000
   7330   7331     1   0.10969 276646.080000
   7330   7332     1   0.10969 276646.080000
   7333   7334     1   0.10969 276646.080000
   7333   7335     1   0.10969 276646.080000
   7338   7339     1   0.10969 276646.080000
   7338   7340     1   0.10969 276646.080000
   7341   7342     1   0.10969 276646.080000
   7341   7343     1   0.10969 276646.080000
   7344   7345     1   0.10969 276646.080000
   7344   7346     1   0.10969 276646.080000
   7347   7348     1   0.10969 276646.080000
   7347   7349     1   0.10969 276646.080000
   7350   7351     1   0.10969 276646.080000
   7350   7352     1   0.10969 276646.080000
   7353   7354     1   0.10969 276646.080000
   7353   7355     1   0.10969 276646.080000
   7356   7357     1   0.10969 276646.080000
   7356   7358     1   0.10969 276646.080000
   7359   7360     1   0.10969 276646.080000
   7359   7361     1   0.10969 276646.080000
   7362   7363     1   0.10969 276646.080000
   7362   7364     1   0.10969 276646.080000
   7366   7368     1   0.10969 276646.080000
   7367   7369     1   0.10969 276646.080000
   7370   7374     1   0.10969 276646.080000
   7371   7373     1   0.10969 276646.080000
   7372   7375     1   0.10961 277566.560000
   7377   7383     1   0.09730 310787.520000
   7378   7381     1   0.09730 310787.520000
   7379   7382     1   0.09730 310787.520000
   7380   7384     1   0.10969 276646.080000
   7380   7385     1   0.10969 276646.080000
   7386   7387     1   0.09730 310787.520000
   7389   7391     1   0.10969 276646.080000
   7390   7392     1   0.10969 276646.080000
   7393   7397     1   0.10969 276646.080000
   7394   7396     1   0.10969 276646.080000
   7395   7398     1   0.10961 277566.560000
   7400   7406     1   0.09730 310787.520000
   7401   7404     1   0.09730 310787.520000
   7402   7405     1   0.09730 310787.520000
   7403   7407     1   0.10969 276646.080000
   7403   7408     1   0.10969 276646.080000
   7409   7410     1   0.09730 310787.520000
   7412   7414     1   0.10969 276646.080000
   7413   7415     1   0.10969 276646.080000
   7416   7420     1   0.10969 276646.080000
   7417   7419     1   0.10969 276646.080000
   7418   7421     1   0.10961 277566.560000
   7423   7429     1   0.09730 310787.520000
   7424   7427     1   0.09730 310787.520000
   7425   7428     1   0.09730 310787.520000
   7426   7430     1   0.10969 276646.080000
   7426   7431     1   0.10969 276646.080000
   7432   7433     1   0.09730 310787.520000
   7435   7437     1   0.10969 276646.080000
   7436   7438     1   0.10969 276646.080000
   7439   7443     1   0.10969 276646.080000
   7440   7442     1   0.10969 276646.080000
   7441   7444     1   0.10961 277566.560000
   7446   7452     1   0.09730 310787.520000
   7447   7450     1   0.09730 310787.520000
   7448   7451     1   0.09730 310787.520000
   7449   7453     1   0.10969 276646.080000
   7449   7454     1   0.10969 276646.080000
   7455   7456     1   0.09730 310787.520000
   7458   7460     1   0.10969 276646.080000
   7459   7461     1   0.10969 276646.080000
   7462   7466     1   0.10969 276646.080000
   7463   7465     1   0.10969 276646.080000
   7464   7467     1   0.10961 277566.560000
   7469   7475     1   0.09730 310787.520000
   7470   7473     1   0.09730 310787.520000
   7471   7474     1   0.09730 310787.520000
   7472   7476     1   0.10969 276646.080000
   7472   7477     1   0.10969 276646.080000
   7478   7479     1   0.09730 310787.520000
   7481   7483     1   0.10969 276646.080000
   7482   7484     1   0.10969 276646.080000
   7485   7489     1   0.10969 276646.080000
   7486   7488     1   0.10969 276646.080000
   7487   7490     1   0.10961 277566.560000
   7492   7498     1   0.09730 310787.520000
   7493   7496     1   0.09730 310787.520000
   7494   7497     1   0.09730 310787.520000
   7495   7499     1   0.10969 276646.080000
   7495   7500     1   0.10969 276646.080000
   7501   7502     1   0.09730 310787.520000
   7504   7506     1   0.10969 276646.080000
   7505   7507     1   0.10969 276646.080000
   7508   7512     1   0.10969 276646.080000
   7509   7511     1   0.10969 276646.080000
   7510   7513     1   0.10961 277566.560000
   7515   7521     1   0.09730 310787.520000
   7516   7519     1   0.09730 310787.520000
   7517   7520     1   0.09730 310787.520000
   7518   7522     1   0.10969 276646.080000
   7518   7523     1   0.10969 276646.080000
   7524   7525     1   0.09730 310787.520000
   7527   7529     1   0.10969 276646.080000
   7528   7530     1   0.10969 276646.080000
   7531   7535     1   0.10969 276646.080000
   7532   7534     1   0.10969 276646.080000
   7533   7536     1   0.10961 277566.560000
   7538   7544     1   0.09730 310787.520000
   7539   7542     1   0.09730 310787.520000
   7540   7543     1   0.09730 310787.520000
   7541   7545     1   0.10969 276646.080000
   7541   7546     1   0.10969 276646.080000
   7547   7548     1   0.09730 310787.520000
   7550   7552     1   0.10969 276646.080000
   7551   7553     1   0.10969 276646.080000
   7554   7558     1   0.10969 276646.080000
   7555   7557     1   0.10969 276646.080000
   7556   7559     1   0.10961 277566.560000
   7561   7567     1   0.09730 310787.520000
   7562   7565     1   0.09730 310787.520000
   7563   7566     1   0.09730 310787.520000
   7564   7568     1   0.10969 276646.080000
   7564   7569     1   0.10969 276646.080000
   7570   7571     1   0.09730 310787.520000
   7573   7575     1   0.10969 276646.080000
   7574   7576     1   0.10969 276646.080000
   7577   7581     1   0.10969 276646.080000
   7578   7580     1   0.10969 276646.080000
   7579   7582     1   0.10961 277566.560000
   7584   7590     1   0.09730 310787.520000
   7585   7588     1   0.09730 310787.520000
   7586   7589     1   0.09730 310787.520000
   7587   7591     1   0.10969 276646.080000
   7587   7592     1   0.10969 276646.080000
   7593   7594     1   0.09730 310787.520000
   7596   7598     1   0.10969 276646.080000
   7597   7599     1   0.10969 276646.080000
   7600   7604     1   0.10969 276646.080000
   7601   7603     1   0.10969 276646.080000
   7602   7605     1   0.10961 277566.560000
   7607   7613     1   0.09730 310787.520000
   7608   7611     1   0.09730 310787.520000
   7609   7612     1   0.09730 310787.520000
   7610   7614     1   0.10969 276646.080000
   7610   7615     1   0.10969 276646.080000
   7616   7617     1   0.09730 310787.520000
   7619   7621     1   0.10969 276646.080000
   7620   7622     1   0.10969 276646.080000
   7623   7627     1   0.10969 276646.080000
   7624   7626     1   0.10969 276646.080000
   7625   7628     1   0.10961 277566.560000
   7630   7636     1   0.09730 310787.520000
   7631   7634     1   0.09730 310787.520000
   7632   7635     1   0.09730 310787.520000
   7633   7637     1   0.10969 276646.080000
   7633   7638     1   0.10969 276646.080000
   7639   7640     1   0.09730 310787.520000
   7642   7644     1   0.10969 276646.080000
   7643   7645     1   0.10969 276646.080000
   7646   7650     1   0.10969 276646.080000
   7647   7649     1   0.10969 276646.080000
   7648   7651     1   0.10961 277566.560000
   7653   7659     1   0.09730 310787.520000
   7654   7657     1   0.09730 310787.520000
   7655   7658     1   0.09730 310787.520000
   7656   7660     1   0.10969 276646.080000
   7656   7661     1   0.10969 276646.080000
   7662   7663     1   0.09730 310787.520000
   7665   7667     1   0.10969 276646.080000
   7666   7668     1   0.10969 276646.080000
   7669   7673     1   0.10969 276646.080000
   7670   7672     1   0.10969 276646.080000
   7671   7674     1   0.10961 277566.560000
   7676   7682     1   0.09730 310787.520000
   7677   7680     1   0.09730 310787.520000
   7678   7681     1   0.09730 310787.520000
   7679   7683     1   0.10969 276646.080000
   7679   7684     1   0.10969 276646.080000
   7685   7686     1   0.09730 310787.520000
   7688   7690     1   0.10969 276646.080000
   7689   7691     1   0.10969 276646.080000
   7692   7696     1   0.10969 276646.080000
   7693   7695     1   0.10969 276646.080000
   7694   7697     1   0.10961 277566.560000
   7699   7705     1   0.09730 310787.520000
   7700   7703     1   0.09730 310787.520000
   7701   7704     1   0.09730 310787.520000
   7702   7706     1   0.10969 276646.080000
   7702   7707     1   0.10969 276646.080000
   7708   7709     1   0.09730 310787.520000
   7711   7713     1   0.10969 276646.080000
   7712   7714     1   0.10969 276646.080000
   7715   7719     1   0.10969 276646.080000
   7716   7718     1   0.10969 276646.080000
   7717   7720     1   0.10961 277566.560000
   7722   7728     1   0.09730 310787.520000
   7723   7726     1   0.09730 310787.520000
   7724   7727     1   0.09730 310787.520000
   7725   7729     1   0.10969 276646.080000
   7725   7730     1   0.10969 276646.080000
   7731   7732     1   0.09730 310787.520000
   7734   7736     1   0.10969 276646.080000
   7735   7737     1   0.10969 276646.080000
   7738   7742     1   0.10969 276646.080000
   7739   7741     1   0.10969 276646.080000
   7740   7743     1   0.10961 277566.560000
   7745   7751     1   0.09730 310787.520000
   7746   7749     1   0.09730 310787.520000
   7747   7750     1   0.09730 310787.520000
   7748   7752     1   0.10969 276646.080000
   7748   7753     1   0.10969 276646.080000
   7754   7755     1   0.09730 310787.520000
   7757   7759     1   0.10969 276646.080000
   7758   7760     1   0.10969 276646.080000
   7761   7765     1   0.10969 276646.080000
   7762   7764     1   0.10969 276646.080000
   7763   7766     1   0.10961 277566.560000
   7768   7774     1   0.09730 310787.520000
   7769   7772     1   0.09730 310787.520000
   7770   7773     1   0.09730 310787.520000
   7771   7775     1   0.10969 276646.080000
   7771   7776     1   0.10969 276646.080000
   7777   7778     1   0.09730 310787.520000
   7780   7782     1   0.10969 276646.080000
   7781   7783     1   0.10969 276646.080000
   7784   7788     1   0.10969 276646.080000
   7785   7787     1   0.10969 276646.080000
   7786   7789     1   0.10961 277566.560000
   7791   7797     1   0.09730 310787.520000
   7792   7795     1   0.09730 310787.520000
   7793   7796     1   0.09730 310787.520000
   7794   7798     1   0.10969 276646.080000
   7794   7799     1   0.10969 276646.080000
   7800   7801     1   0.09730 310787.520000
   7803   7805     1   0.10969 276646.080000
   7804   7806     1   0.10969 276646.080000
   7807   7811     1   0.10969 276646.080000
   7808   7810     1   0.10969 276646.080000
   7809   7812     1   0.10961 277566.560000
   7814   7820     1   0.09730 310787.520000
   7815   7818     1   0.09730 310787.520000
   7816   7819     1   0.09730 310787.520000
   7817   7821     1   0.10969 276646.080000
   7817   7822     1   0.10969 276646.080000
   7823   7824     1   0.09730 310787.520000
   7826   7828     1   0.10969 276646.080000
   7827   7829     1   0.10969 276646.080000
   7830   7834     1   0.10969 276646.080000
   7831   7833     1   0.10969 276646.080000
   7832   7835     1   0.10961 277566.560000
   7837   7843     1   0.09730 310787.520000
   7838   7841     1   0.09730 310787.520000
   7839   7842     1   0.09730 310787.520000
   7840   7844     1   0.10969 276646.080000
   7840   7845     1   0.10969 276646.080000
   7846   7847     1   0.09730 310787.520000
   7849   7851     1   0.10969 276646.080000
   7850   7852     1   0.10969 276646.080000
   7853   7857     1   0.10969 276646.080000
   7854   7856     1   0.10969 276646.080000
   7855   7858     1   0.10961 277566.560000
   7860   7866     1   0.09730 310787.520000
   7861   7864     1   0.09730 310787.520000
   7862   7865     1   0.09730 310787.520000
   7863   7867     1   0.10969 276646.080000
   7863   7868     1   0.10969 276646.080000
   7869   7870     1   0.09730 310787.520000
   7872   7874     1   0.10969 276646.080000
   7873   7875     1   0.10969 276646.080000
   7876   7880     1   0.10969 276646.080000
   7877   7879     1   0.10969 276646.080000
   7878   7881     1   0.10961 277566.560000
   7883   7889     1   0.09730 310787.520000
   7884   7887     1   0.09730 310787.520000
   7885   7888     1   0.09730 310787.520000
   7886   7890     1   0.10969 276646.080000
   7886   7891     1   0.10969 276646.080000
   7892   7893     1   0.09730 310787.520000
   7895   7897     1   0.10969 276646.080000
   7896   7898     1   0.10969 276646.080000
   7899   7903     1   0.10969 276646.080000
   7900   7902     1   0.10969 276646.080000
   7901   7904     1   0.10961 277566.560000
   7906   7912     1   0.09730 310787.520000
   7907   7910     1   0.09730 310787.520000
   7908   7911     1   0.09730 310787.520000
   7909   7913     1   0.10969 276646.080000
   7909   7914     1   0.10969 276646.080000
   7915   7916     1   0.09730 310787.520000
   7918   7920     1   0.10969 276646.080000
   7919   7921     1   0.10969 276646.080000
   7922   7926     1   0.10969 276646.080000
   7923   7925     1   0.10969 276646.080000
   7924   7927     1   0.10961 277566.560000
   7929   7935     1   0.09730 310787.520000
   7930   7933     1   0.09730 310787.520000
   7931   7934     1   0.09730 310787.520000
   7932   7936     1   0.10969 276646.080000
   7932   7937     1   0.10969 276646.080000
   7938   7939     1   0.09730 310787.520000
   7941   7943     1   0.10969 276646.080000
   7942   7944     1   0.10969 276646.080000
   7945   7949     1   0.10969 276646.080000
   7946   7948     1   0.10969 276646.080000
   7947   7950     1   0.10961 277566.560000
   7952   7958     1   0.09730 310787.520000
   7953   7956     1   0.09730 310787.520000
   7954   7957     1   0.09730 310787.520000
   7955   7959     1   0.10969 276646.080000
   7955   7960     1   0.10969 276646.080000
   7961   7962     1   0.09730 310787.520000
   7964   7966     1   0.10969 276646.080000
   7965   7967     1   0.10969 276646.080000
   7968   7972     1   0.10969 276646.080000
   7969   7971     1   0.10969 276646.080000
   7970   7973     1   0.10961 277566.560000
   7975   7981     1   0.09730 310787.520000
   7976   7979     1   0.09730 310787.520000
   7977   7980     1   0.09730 310787.520000
   7978   7982     1   0.10969 276646.080000
   7978   7983     1   0.10969 276646.080000
   7984   7985     1   0.09730 310787.520000
   7987   7989     1   0.10969 276646.080000
   7988   7990     1   0.10969 276646.080000
   7991   7995     1   0.10969 276646.080000
   7992   7994     1   0.10969 276646.080000
   7993   7996     1   0.10961 277566.560000
   7998   8004     1   0.09730 310787.520000
   7999   8002     1   0.09730 310787.520000
   8000   8003     1   0.09730 310787.520000
   8001   8005     1   0.10969 276646.080000
   8001   8006     1   0.10969 276646.080000
   8007   8008     1   0.09730 310787.520000
   8010   8012     1   0.10969 276646.080000
   8011   8013     1   0.10969 276646.080000
   8014   8018     1   0.10969 276646.080000
   8015   8017     1   0.10969 276646.080000
   8016   8019     1   0.10961 277566.560000
   8021   8027     1   0.09730 310787.520000
   8022   8025     1   0.09730 310787.520000
   8023   8026     1   0.09730 310787.520000
   8024   8028     1   0.10969 276646.080000
   8024   8029     1   0.10969 276646.080000
   8030   8031     1   0.09730 310787.520000
   8033   8035     1   0.10969 276646.080000
   8034   8036     1   0.10969 276646.080000
   8037   8041     1   0.10969 276646.080000
   8038   8040     1   0.10969 276646.080000
   8039   8042     1   0.10961 277566.560000
   8044   8050     1   0.09730 310787.520000
   8045   8048     1   0.09730 310787.520000
   8046   8049     1   0.09730 310787.520000
   8047   8051     1   0.10969 276646.080000
   8047   8052     1   0.10969 276646.080000
   8053   8054     1   0.09730 310787.520000
   8056   8058     1   0.10969 276646.080000
   8057   8059     1   0.10969 276646.080000
   8060   8064     1   0.10969 276646.080000
   8061   8063     1   0.10969 276646.080000
   8062   8065     1   0.10961 277566.560000
   8067   8073     1   0.09730 310787.520000
   8068   8071     1   0.09730 310787.520000
   8069   8072     1   0.09730 310787.520000
   8070   8074     1   0.10969 276646.080000
   8070   8075     1   0.10969 276646.080000
   8076   8077     1   0.09730 310787.520000
   8079   8081     1   0.10969 276646.080000
   8080   8082     1   0.10969 276646.080000
   8083   8087     1   0.10969 276646.080000
   8084   8086     1   0.10969 276646.080000
   8085   8088     1   0.10961 277566.560000
   8090   8096     1   0.09730 310787.520000
   8091   8094     1   0.09730 310787.520000
   8092   8095     1   0.09730 310787.520000
   8093   8097     1   0.10969 276646.080000
   8093   8098     1   0.10969 276646.080000
   8099   8100     1   0.09730 310787.520000
   8102   8104     1   0.10969 276646.080000
   8103   8105     1   0.10969 276646.080000
   8106   8110     1   0.10969 276646.080000
   8107   8109     1   0.10969 276646.080000
   8108   8111     1   0.10961 277566.560000
   8113   8119     1   0.09730 310787.520000
   8114   8117     1   0.09730 310787.520000
   8115   8118     1   0.09730 310787.520000
   8116   8120     1   0.10969 276646.080000
   8116   8121     1   0.10969 276646.080000
   8122   8123     1   0.09730 310787.520000
   8125   8127     1   0.10969 276646.080000
   8126   8128     1   0.10969 276646.080000
   8129   8133     1   0.10969 276646.080000
   8130   8132     1   0.10969 276646.080000
   8131   8134     1   0.10961 277566.560000
   8136   8142     1   0.09730 310787.520000
   8137   8140     1   0.09730 310787.520000
   8138   8141     1   0.09730 310787.520000
   8139   8143     1   0.10969 276646.080000
   8139   8144     1   0.10969 276646.080000
   8145   8146     1   0.09730 310787.520000
   8148   8150     1   0.10969 276646.080000
   8149   8151     1   0.10969 276646.080000
   8152   8156     1   0.10969 276646.080000
   8153   8155     1   0.10969 276646.080000
   8154   8157     1   0.10961 277566.560000
   8159   8165     1   0.09730 310787.520000
   8160   8163     1   0.09730 310787.520000
   8161   8164     1   0.09730 310787.520000
   8162   8166     1   0.10969 276646.080000
   8162   8167     1   0.10969 276646.080000
   8168   8169     1   0.09730 310787.520000
   8171   8173     1   0.10969 276646.080000
   8172   8174     1   0.10969 276646.080000
   8175   8179     1   0.10969 276646.080000
   8176   8178     1   0.10969 276646.080000
   8177   8180     1   0.10961 277566.560000
   8182   8188     1   0.09730 310787.520000
   8183   8186     1   0.09730 310787.520000
   8184   8187     1   0.09730 310787.520000
   8185   8189     1   0.10969 276646.080000
   8185   8190     1   0.10969 276646.080000
   8191   8192     1   0.09730 310787.520000
   8194   8196     1   0.10969 276646.080000
   8195   8197     1   0.10969 276646.080000
   8198   8202     1   0.10969 276646.080000
   8199   8201     1   0.10969 276646.080000
   8200   8203     1   0.10961 277566.560000
   8205   8211     1   0.09730 310787.520000
   8206   8209     1   0.09730 310787.520000
   8207   8210     1   0.09730 310787.520000
   8208   8212     1   0.10969 276646.080000
   8208   8213     1   0.10969 276646.080000
   8214   8215     1   0.09730 310787.520000
   8217   8219     1   0.10969 276646.080000
   8218   8220     1   0.10969 276646.080000
   8221   8225     1   0.10969 276646.080000
   8222   8224     1   0.10969 276646.080000
   8223   8226     1   0.10961 277566.560000
   8228   8234     1   0.09730 310787.520000
   8229   8232     1   0.09730 310787.520000
   8230   8233     1   0.09730 310787.520000
   8231   8235     1   0.10969 276646.080000
   8231   8236     1   0.10969 276646.080000
   8237   8238     1   0.09730 310787.520000
   8240   8242     1   0.10969 276646.080000
   8241   8243     1   0.10969 276646.080000
   8244   8248     1   0.10969 276646.080000
   8245   8247     1   0.10969 276646.080000
   8246   8249     1   0.10961 277566.560000
   8251   8257     1   0.09730 310787.520000
   8252   8255     1   0.09730 310787.520000
   8253   8256     1   0.09730 310787.520000
   8254   8258     1   0.10969 276646.080000
   8254   8259     1   0.10969 276646.080000
   8260   8261     1   0.09730 310787.520000
   8263   8265     1   0.10969 276646.080000
   8264   8266     1   0.10969 276646.080000
   8267   8271     1   0.10969 276646.080000
   8268   8270     1   0.10969 276646.080000
   8269   8272     1   0.10961 277566.560000
   8274   8280     1   0.09730 310787.520000
   8275   8278     1   0.09730 310787.520000
   8276   8279     1   0.09730 310787.520000
   8277   8281     1   0.10969 276646.080000
   8277   8282     1   0.10969 276646.080000
   8283   8284     1   0.09730 310787.520000
   8286   8288     1   0.10969 276646.080000
   8287   8289     1   0.10969 276646.080000
   8290   8294     1   0.10969 276646.080000
   8291   8293     1   0.10969 276646.080000
   8292   8295     1   0.10961 277566.560000
   8297   8303     1   0.09730 310787.520000
   8298   8301     1   0.09730 310787.520000
   8299   8302     1   0.09730 310787.520000
   8300   8304     1   0.10969 276646.080000
   8300   8305     1   0.10969 276646.080000
   8306   8307     1   0.09730 310787.520000
   8309   8311     1   0.10969 276646.080000
   8310   8312     1   0.10969 276646.080000
   8313   8317     1   0.10969 276646.080000
   8314   8316     1   0.10969 276646.080000
   8315   8318     1   0.10961 277566.560000
   8320   8326     1   0.09730 310787.520000
   8321   8324     1   0.09730 310787.520000
   8322   8325     1   0.09730 310787.520000
   8323   8327     1   0.10969 276646.080000
   8323   8328     1   0.10969 276646.080000
   8329   8330     1   0.09730 310787.520000
   8332   8334     1   0.10969 276646.080000
   8333   8335     1   0.10969 276646.080000
   8336   8340     1   0.10969 276646.080000
   8337   8339     1   0.10969 276646.080000
   8338   8341     1   0.10961 277566.560000
   8343   8349     1   0.09730 310787.520000
   8344   8347     1   0.09730 310787.520000
   8345   8348     1   0.09730 310787.520000
   8346   8350     1   0.10969 276646.080000
   8346   8351     1   0.10969 276646.080000
   8352   8353     1   0.09730 310787.520000
   8355   8357     1   0.10969 276646.080000
   8356   8358     1   0.10969 276646.080000
   8359   8363     1   0.10969 276646.080000
   8360   8362     1   0.10969 276646.080000
   8361   8364     1   0.10961 277566.560000
   8366   8372     1   0.09730 310787.520000
   8367   8370     1   0.09730 310787.520000
   8368   8371     1   0.09730 310787.520000
   8369   8373     1   0.10969 276646.080000
   8369   8374     1   0.10969 276646.080000
   8375   8376     1   0.09730 310787.520000
   8378   8380     1   0.10969 276646.080000
   8379   8381     1   0.10969 276646.080000
   8382   8386     1   0.10969 276646.080000
   8383   8385     1   0.10969 276646.080000
   8384   8387     1   0.10961 277566.560000
   8389   8395     1   0.09730 310787.520000
   8390   8393     1   0.09730 310787.520000
   8391   8394     1   0.09730 310787.520000
   8392   8396     1   0.10969 276646.080000
   8392   8397     1   0.10969 276646.080000
   8398   8399     1   0.09730 310787.520000
   8401   8403     1   0.10969 276646.080000
   8402   8404     1   0.10969 276646.080000
   8405   8409     1   0.10969 276646.080000
   8406   8408     1   0.10969 276646.080000
   8407   8410     1   0.10961 277566.560000
   8412   8418     1   0.09730 310787.520000
   8413   8416     1   0.09730 310787.520000
   8414   8417     1   0.09730 310787.520000
   8415   8419     1   0.10969 276646.080000
   8415   8420     1   0.10969 276646.080000
   8421   8422     1   0.09730 310787.520000
   8424   8426     1   0.10969 276646.080000
   8425   8427     1   0.10969 276646.080000
   8428   8432     1   0.10969 276646.080000
   8429   8431     1   0.10969 276646.080000
   8430   8433     1   0.10961 277566.560000
   8435   8441     1   0.09730 310787.520000
   8436   8439     1   0.09730 310787.520000
   8437   8440     1   0.09730 310787.520000
   8438   8442     1   0.10969 276646.080000
   8438   8443     1   0.10969 276646.080000
   8444   8445     1   0.09730 310787.520000
   8447   8449     1   0.10969 276646.080000
   8448   8450     1   0.10969 276646.080000
   8451   8455     1   0.10969 276646.080000
   8452   8454     1   0.10969 276646.080000
   8453   8456     1   0.10961 277566.560000
   8458   8464     1   0.09730 310787.520000
   8459   8462     1   0.09730 310787.520000
   8460   8463     1   0.09730 310787.520000
   8461   8465     1   0.10969 276646.080000
   8461   8466     1   0.10969 276646.080000
   8467   8468     1   0.09730 310787.520000
   8470   8472     1   0.10969 276646.080000
   8471   8473     1   0.10969 276646.080000
   8474   8478     1   0.10969 276646.080000
   8475   8477     1   0.10969 276646.080000
   8476   8479     1   0.10961 277566.560000
   8481   8487     1   0.09730 310787.520000
   8482   8485     1   0.09730 310787.520000
   8483   8486     1   0.09730 310787.520000
   8484   8488     1   0.10969 276646.080000
   8484   8489     1   0.10969 276646.080000
   8490   8491     1   0.09730 310787.520000
   8493   8495     1   0.10969 276646.080000
   8494   8496     1   0.10969 276646.080000
   8497   8501     1   0.10969 276646.080000
   8498   8500     1   0.10969 276646.080000
   8499   8502     1   0.10961 277566.560000
   8504   8510     1   0.09730 310787.520000
   8505   8508     1   0.09730 310787.520000
   8506   8509     1   0.09730 310787.520000
   8507   8511     1   0.10969 276646.080000
   8507   8512     1   0.10969 276646.080000
   8513   8514     1   0.09730 310787.520000
   8516   8518     1   0.10969 276646.080000
   8517   8519     1   0.10969 276646.080000
   8520   8524     1   0.10969 276646.080000
   8521   8523     1   0.10969 276646.080000
   8522   8525     1   0.10961 277566.560000
   8527   8533     1   0.09730 310787.520000
   8528   8531     1   0.09730 310787.520000
   8529   8532     1   0.09730 310787.520000
   8530   8534     1   0.10969 276646.080000
   8530   8535     1   0.10969 276646.080000
   8536   8537     1   0.09730 310787.520000
   8539   8541     1   0.10969 276646.080000
   8540   8542     1   0.10969 276646.080000
   8543   8547     1   0.10969 276646.080000
   8544   8546     1   0.10969 276646.080000
   8545   8548     1   0.10961 277566.560000
   8550   8556     1   0.09730 310787.520000
   8551   8554     1   0.09730 310787.520000
   8552   8555     1   0.09730 310787.520000
   8553   8557     1   0.10969 276646.080000
   8553   8558     1   0.10969 276646.080000
   8559   8560     1   0.09730 310787.520000
   8562   8564     1   0.10969 276646.080000
   8563   8565     1   0.10969 276646.080000
   8566   8570     1   0.10969 276646.080000
   8567   8569     1   0.10969 276646.080000
   8568   8571     1   0.10961 277566.560000
   8573   8579     1   0.09730 310787.520000
   8574   8577     1   0.09730 310787.520000
   8575   8578     1   0.09730 310787.520000
   8576   8580     1   0.10969 276646.080000
   8576   8581     1   0.10969 276646.080000
   8582   8583     1   0.09730 310787.520000
   8585   8587     1   0.10969 276646.080000
   8586   8588     1   0.10969 276646.080000
   8589   8593     1   0.10969 276646.080000
   8590   8592     1   0.10969 276646.080000
   8591   8594     1   0.10961 277566.560000
   8596   8602     1   0.09730 310787.520000
   8597   8600     1   0.09730 310787.520000
   8598   8601     1   0.09730 310787.520000
   8599   8603     1   0.10969 276646.080000
   8599   8604     1   0.10969 276646.080000
   8605   8606     1   0.09730 310787.520000
   8608   8610     1   0.10969 276646.080000
   8609   8611     1   0.10969 276646.080000
   8612   8616     1   0.10969 276646.080000
   8613   8615     1   0.10969 276646.080000
   8614   8617     1   0.10961 277566.560000
   8619   8625     1   0.09730 310787.520000
   8620   8623     1   0.09730 310787.520000
   8621   8624     1   0.09730 310787.520000
   8622   8626     1   0.10969 276646.080000
   8622   8627     1   0.10969 276646.080000
   8628   8629     1   0.09730 310787.520000
   8631   8633     1   0.10969 276646.080000
   8632   8634     1   0.10969 276646.080000
   8635   8639     1   0.10969 276646.080000
   8636   8638     1   0.10969 276646.080000
   8637   8640     1   0.10961 277566.560000
   8642   8648     1   0.09730 310787.520000
   8643   8646     1   0.09730 310787.520000
   8644   8647     1   0.09730 310787.520000
   8645   8649     1   0.10969 276646.080000
   8645   8650     1   0.10969 276646.080000
   8651   8652     1   0.09730 310787.520000
   8654   8656     1   0.10969 276646.080000
   8655   8657     1   0.10969 276646.080000
   8658   8662     1   0.10969 276646.080000
   8659   8661     1   0.10969 276646.080000
   8660   8663     1   0.10961 277566.560000
   8665   8671     1   0.09730 310787.520000
   8666   8669     1   0.09730 310787.520000
   8667   8670     1   0.09730 310787.520000
   8668   8672     1   0.10969 276646.080000
   8668   8673     1   0.10969 276646.080000
   8674   8675     1   0.09730 310787.520000
   8677   8679     1   0.10969 276646.080000
   8678   8680     1   0.10969 276646.080000
   8681   8685     1   0.10969 276646.080000
   8682   8684     1   0.10969 276646.080000
   8683   8686     1   0.10961 277566.560000
   8688   8694     1   0.09730 310787.520000
   8689   8692     1   0.09730 310787.520000
   8690   8693     1   0.09730 310787.520000
   8691   8695     1   0.10969 276646.080000
   8691   8696     1   0.10969 276646.080000
   8697   8698     1   0.09730 310787.520000
   8700   8702     1   0.10969 276646.080000
   8701   8703     1   0.10969 276646.080000
   8704   8708     1   0.10969 276646.080000
   8705   8707     1   0.10969 276646.080000
   8706   8709     1   0.10961 277566.560000
   8711   8717     1   0.09730 310787.520000
   8712   8715     1   0.09730 310787.520000
   8713   8716     1   0.09730 310787.520000
   8714   8718     1   0.10969 276646.080000
   8714   8719     1   0.10969 276646.080000
   8720   8721     1   0.09730 310787.520000
   8723   8725     1   0.10969 276646.080000
   8724   8726     1   0.10969 276646.080000
   8727   8731     1   0.10969 276646.080000
   8728   8730     1   0.10969 276646.080000
   8729   8732     1   0.10961 277566.560000
   8734   8740     1   0.09730 310787.520000
   8735   8738     1   0.09730 310787.520000
   8736   8739     1   0.09730 310787.520000
   8737   8741     1   0.10969 276646.080000
   8737   8742     1   0.10969 276646.080000
   8743   8744     1   0.09730 310787.520000
   8746   8748     1   0.10969 276646.080000
   8747   8749     1   0.10969 276646.080000
   8750   8754     1   0.10969 276646.080000
   8751   8753     1   0.10969 276646.080000
   8752   8755     1   0.10961 277566.560000
   8757   8763     1   0.09730 310787.520000
   8758   8761     1   0.09730 310787.520000
   8759   8762     1   0.09730 310787.520000
   8760   8764     1   0.10969 276646.080000
   8760   8765     1   0.10969 276646.080000
   8766   8767     1   0.09730 310787.520000
   8769   8771     1   0.10969 276646.080000
   8770   8772     1   0.10969 276646.080000
   8773   8777     1   0.10969 276646.080000
   8774   8776     1   0.10969 276646.080000
   8775   8778     1   0.10961 277566.560000
   8780   8786     1   0.09730 310787.520000
   8781   8784     1   0.09730 310787.520000
   8782   8785     1   0.09730 310787.520000
   8783   8787     1   0.10969 276646.080000
   8783   8788     1   0.10969 276646.080000
   8789   8790     1   0.09730 310787.520000
   8792   8794     1   0.10969 276646.080000
   8793   8795     1   0.10969 276646.080000
   8796   8800     1   0.10969 276646.080000
   8797   8799     1   0.10969 276646.080000
   8798   8801     1   0.10961 277566.560000
   8803   8809     1   0.09730 310787.520000
   8804   8807     1   0.09730 310787.520000
   8805   8808     1   0.09730 310787.520000
   8806   8810     1   0.10969 276646.080000
   8806   8811     1   0.10969 276646.080000
   8812   8813     1   0.09730 310787.520000
   8815   8817     1   0.10969 276646.080000
   8816   8818     1   0.10969 276646.080000
   8819   8823     1   0.10969 276646.080000
   8820   8822     1   0.10969 276646.080000
   8821   8824     1   0.10961 277566.560000
   8826   8832     1   0.09730 310787.520000
   8827   8830     1   0.09730 310787.520000
   8828   8831     1   0.09730 310787.520000
   8829   8833     1   0.10969 276646.080000
   8829   8834     1   0.10969 276646.080000
   8835   8836     1   0.09730 310787.520000
   8838   8840     1   0.10969 276646.080000
   8839   8841     1   0.10969 276646.080000
   8842   8846     1   0.10969 276646.080000
   8843   8845     1   0.10969 276646.080000
   8844   8847     1   0.10961 277566.560000
   8849   8855     1   0.09730 310787.520000
   8850   8853     1   0.09730 310787.520000
   8851   8854     1   0.09730 310787.520000
   8852   8856     1   0.10969 276646.080000
   8852   8857     1   0.10969 276646.080000
   8858   8859     1   0.09730 310787.520000
   8861   8863     1   0.10969 276646.080000
   8862   8864     1   0.10969 276646.080000
   8865   8869     1   0.10969 276646.080000
   8866   8868     1   0.10969 276646.080000
   8867   8870     1   0.10961 277566.560000
   8872   8878     1   0.09730 310787.520000
   8873   8876     1   0.09730 310787.520000
   8874   8877     1   0.09730 310787.520000
   8875   8879     1   0.10969 276646.080000
   8875   8880     1   0.10969 276646.080000
   8881   8882     1   0.09730 310787.520000
   8884   8886     1   0.10969 276646.080000
   8885   8887     1   0.10969 276646.080000
   8888   8892     1   0.10969 276646.080000
   8889   8891     1   0.10969 276646.080000
   8890   8893     1   0.10961 277566.560000
   8895   8901     1   0.09730 310787.520000
   8896   8899     1   0.09730 310787.520000
   8897   8900     1   0.09730 310787.520000
   8898   8902     1   0.10969 276646.080000
   8898   8903     1   0.10969 276646.080000
   8904   8905     1   0.09730 310787.520000
   8907   8909     1   0.10969 276646.080000
   8908   8910     1   0.10969 276646.080000
   8911   8915     1   0.10969 276646.080000
   8912   8914     1   0.10969 276646.080000
   8913   8916     1   0.10961 277566.560000
   8918   8924     1   0.09730 310787.520000
   8919   8922     1   0.09730 310787.520000
   8920   8923     1   0.09730 310787.520000
   8921   8925     1   0.10969 276646.080000
   8921   8926     1   0.10969 276646.080000
   8927   8928     1   0.09730 310787.520000
   8930   8932     1   0.10969 276646.080000
   8931   8933     1   0.10969 276646.080000
   8934   8938     1   0.10969 276646.080000
   8935   8937     1   0.10969 276646.080000
   8936   8939     1   0.10961 277566.560000
   8941   8947     1   0.09730 310787.520000
   8942   8945     1   0.09730 310787.520000
   8943   8946     1   0.09730 310787.520000
   8944   8948     1   0.10969 276646.080000
   8944   8949     1   0.10969 276646.080000
   8950   8951     1   0.09730 310787.520000
   8953   8955     1   0.10969 276646.080000
   8954   8956     1   0.10969 276646.080000
   8957   8961     1   0.10969 276646.080000
   8958   8960     1   0.10969 276646.080000
   8959   8962     1   0.10961 277566.560000
   8964   8970     1   0.09730 310787.520000
   8965   8968     1   0.09730 310787.520000
   8966   8969     1   0.09730 310787.520000
   8967   8971     1   0.10969 276646.080000
   8967   8972     1   0.10969 276646.080000
   8973   8974     1   0.09730 310787.520000
   8976   8978     1   0.10969 276646.080000
   8977   8979     1   0.10969 276646.080000
   8980   8984     1   0.10969 276646.080000
   8981   8983     1   0.10969 276646.080000
   8982   8985     1   0.10961 277566.560000
   8987   8993     1   0.09730 310787.520000
   8988   8991     1   0.09730 310787.520000
   8989   8992     1   0.09730 310787.520000
   8990   8994     1   0.10969 276646.080000
   8990   8995     1   0.10969 276646.080000
   8996   8997     1   0.09730 310787.520000
   8999   9001     1   0.10969 276646.080000
   9000   9002     1   0.10969 276646.080000
   9003   9007     1   0.10969 276646.080000
   9004   9006     1   0.10969 276646.080000
   9005   9008     1   0.10961 277566.560000
   9010   9016     1   0.09730 310787.520000
   9011   9014     1   0.09730 310787.520000
   9012   9015     1   0.09730 310787.520000
   9013   9017     1   0.10969 276646.080000
   9013   9018     1   0.10969 276646.080000
   9019   9020     1   0.09730 310787.520000
   9022   9024     1   0.10969 276646.080000
   9023   9025     1   0.10969 276646.080000
   9026   9030     1   0.10969 276646.080000
   9027   9029     1   0.10969 276646.080000
   9028   9031     1   0.10961 277566.560000
   9033   9039     1   0.09730 310787.520000
   9034   9037     1   0.09730 310787.520000
   9035   9038     1   0.09730 310787.520000
   9036   9040     1   0.10969 276646.080000
   9036   9041     1   0.10969 276646.080000
   9042   9043     1   0.09730 310787.520000
   9045   9047     1   0.10969 276646.080000
   9046   9048     1   0.10969 276646.080000
   9049   9053     1   0.10969 276646.080000
   9050   9052     1   0.10969 276646.080000
   9051   9054     1   0.10961 277566.560000
   9056   9062     1   0.09730 310787.520000
   9057   9060     1   0.09730 310787.520000
   9058   9061     1   0.09730 310787.520000
   9059   9063     1   0.10969 276646.080000
   9059   9064     1   0.10969 276646.080000
   9065   9066     1   0.09730 310787.520000
   9068   9070     1   0.10969 276646.080000
   9069   9071     1   0.10969 276646.080000
   9072   9076     1   0.10969 276646.080000
   9073   9075     1   0.10969 276646.080000
   9074   9077     1   0.10961 277566.560000
   9079   9085     1   0.09730 310787.520000
   9080   9083     1   0.09730 310787.520000
   9081   9084     1   0.09730 310787.520000
   9082   9086     1   0.10969 276646.080000
   9082   9087     1   0.10969 276646.080000
   9088   9089     1   0.09730 310787.520000
   9091   9093     1   0.10969 276646.080000
   9092   9094     1   0.10969 276646.080000
   9095   9099     1   0.10969 276646.080000
   9096   9098     1   0.10969 276646.080000
   9097   9100     1   0.10961 277566.560000
   9102   9108     1   0.09730 310787.520000
   9103   9106     1   0.09730 310787.520000
   9104   9107     1   0.09730 310787.520000
   9105   9109     1   0.10969 276646.080000
   9105   9110     1   0.10969 276646.080000
   9111   9112     1   0.09730 310787.520000
   9114   9116     1   0.10969 276646.080000
   9115   9117     1   0.10969 276646.080000
   9118   9122     1   0.10969 276646.080000
   9119   9121     1   0.10969 276646.080000
   9120   9123     1   0.10961 277566.560000
   9125   9131     1   0.09730 310787.520000
   9126   9129     1   0.09730 310787.520000
   9127   9130     1   0.09730 310787.520000
   9128   9132     1   0.10969 276646.080000
   9128   9133     1   0.10969 276646.080000
   9134   9135     1   0.09730 310787.520000
   9137   9139     1   0.10969 276646.080000
   9138   9140     1   0.10969 276646.080000
   9141   9145     1   0.10969 276646.080000
   9142   9144     1   0.10969 276646.080000
   9143   9146     1   0.10961 277566.560000
   9148   9154     1   0.09730 310787.520000
   9149   9152     1   0.09730 310787.520000
   9150   9153     1   0.09730 310787.520000
   9151   9155     1   0.10969 276646.080000
   9151   9156     1   0.10969 276646.080000
   9157   9158     1   0.09730 310787.520000
   9160   9162     1   0.10969 276646.080000
   9161   9163     1   0.10969 276646.080000
   9164   9168     1   0.10969 276646.080000
   9165   9167     1   0.10969 276646.080000
   9166   9169     1   0.10961 277566.560000
   9171   9177     1   0.09730 310787.520000
   9172   9175     1   0.09730 310787.520000
   9173   9176     1   0.09730 310787.520000
   9174   9178     1   0.10969 276646.080000
   9174   9179     1   0.10969 276646.080000
   9180   9181     1   0.09730 310787.520000
   9183   9185     1   0.10969 276646.080000
   9184   9186     1   0.10969 276646.080000
   9187   9191     1   0.10969 276646.080000
   9188   9190     1   0.10969 276646.080000
   9189   9192     1   0.10961 277566.560000
   9194   9200     1   0.09730 310787.520000
   9195   9198     1   0.09730 310787.520000
   9196   9199     1   0.09730 310787.520000
   9197   9201     1   0.10969 276646.080000
   9197   9202     1   0.10969 276646.080000
   9203   9204     1   0.09730 310787.520000
   9206   9208     1   0.10969 276646.080000
   9207   9209     1   0.10969 276646.080000
   9210   9214     1   0.10969 276646.080000
   9211   9213     1   0.10969 276646.080000
   9212   9215     1   0.10961 277566.560000
   9217   9223     1   0.09730 310787.520000
   9218   9221     1   0.09730 310787.520000
   9219   9222     1   0.09730 310787.520000
   9220   9224     1   0.10969 276646.080000
   9220   9225     1   0.10969 276646.080000
   9226   9227     1   0.09730 310787.520000
   9229   9231     1   0.10969 276646.080000
   9230   9232     1   0.10969 276646.080000
   9233   9237     1   0.10969 276646.080000
   9234   9236     1   0.10969 276646.080000
   9235   9238     1   0.10961 277566.560000
   9240   9246     1   0.09730 310787.520000
   9241   9244     1   0.09730 310787.520000
   9242   9245     1   0.09730 310787.520000
   9243   9247     1   0.10969 276646.080000
   9243   9248     1   0.10969 276646.080000
   9249   9250     1   0.09730 310787.520000
   9252   9254     1   0.10969 276646.080000
   9253   9255     1   0.10969 276646.080000
   9256   9260     1   0.10969 276646.080000
   9257   9259     1   0.10969 276646.080000
   9258   9261     1   0.10961 277566.560000
   9263   9269     1   0.09730 310787.520000
   9264   9267     1   0.09730 310787.520000
   9265   9268     1   0.09730 310787.520000
   9266   9270     1   0.10969 276646.080000
   9266   9271     1   0.10969 276646.080000
   9272   9273     1   0.09730 310787.520000
   9275   9277     1   0.10969 276646.080000
   9276   9278     1   0.10969 276646.080000
   9279   9283     1   0.10969 276646.080000
   9280   9282     1   0.10969 276646.080000
   9281   9284     1   0.10961 277566.560000
   9286   9292     1   0.09730 310787.520000
   9287   9290     1   0.09730 310787.520000
   9288   9291     1   0.09730 310787.520000
   9289   9293     1   0.10969 276646.080000
   9289   9294     1   0.10969 276646.080000
   9295   9296     1   0.09730 310787.520000
   9298   9300     1   0.10969 276646.080000
   9299   9301     1   0.10969 276646.080000
   9302   9306     1   0.10969 276646.080000
   9303   9305     1   0.10969 276646.080000
   9304   9307     1   0.10961 277566.560000
   9309   9315     1   0.09730 310787.520000
   9310   9313     1   0.09730 310787.520000
   9311   9314     1   0.09730 310787.520000
   9312   9316     1   0.10969 276646.080000
   9312   9317     1   0.10969 276646.080000
   9318   9319     1   0.09730 310787.520000
   9321   9323     1   0.10969 276646.080000
   9322   9324     1   0.10969 276646.080000
   9325   9329     1   0.10969 276646.080000
   9326   9328     1   0.10969 276646.080000
   9327   9330     1   0.10961 277566.560000
   9332   9338     1   0.09730 310787.520000
   9333   9336     1   0.09730 310787.520000
   9334   9337     1   0.09730 310787.520000
   9335   9339     1   0.10969 276646.080000
   9335   9340     1   0.10969 276646.080000
   9341   9342     1   0.09730 310787.520000
   9344   9346     1   0.10969 276646.080000
   9345   9347     1   0.10969 276646.080000
   9348   9352     1   0.10969 276646.080000
   9349   9351     1   0.10969 276646.080000
   9350   9353     1   0.10961 277566.560000
   9355   9361     1   0.09730 310787.520000
   9356   9359     1   0.09730 310787.520000
   9357   9360     1   0.09730 310787.520000
   9358   9362     1   0.10969 276646.080000
   9358   9363     1   0.10969 276646.080000
   9364   9365     1   0.09730 310787.520000
   9367   9369     1   0.10969 276646.080000
   9368   9370     1   0.10969 276646.080000
   9371   9375     1   0.10969 276646.080000
   9372   9374     1   0.10969 276646.080000
   9373   9376     1   0.10961 277566.560000
   9378   9384     1   0.09730 310787.520000
   9379   9382     1   0.09730 310787.520000
   9380   9383     1   0.09730 310787.520000
   9381   9385     1   0.10969 276646.080000
   9381   9386     1   0.10969 276646.080000
   9387   9388     1   0.09730 310787.520000
   9390   9392     1   0.10969 276646.080000
   9391   9393     1   0.10969 276646.080000
   9394   9398     1   0.10969 276646.080000
   9395   9397     1   0.10969 276646.080000
   9396   9399     1   0.10961 277566.560000
   9401   9407     1   0.09730 310787.520000
   9402   9405     1   0.09730 310787.520000
   9403   9406     1   0.09730 310787.520000
   9404   9408     1   0.10969 276646.080000
   9404   9409     1   0.10969 276646.080000
   9410   9411     1   0.09730 310787.520000
   9413   9415     1   0.10969 276646.080000
   9414   9416     1   0.10969 276646.080000
   9417   9421     1   0.10969 276646.080000
   9418   9420     1   0.10969 276646.080000
   9419   9422     1   0.10961 277566.560000
   9424   9430     1   0.09730 310787.520000
   9425   9428     1   0.09730 310787.520000
   9426   9429     1   0.09730 310787.520000
   9427   9431     1   0.10969 276646.080000
   9427   9432     1   0.10969 276646.080000
   9433   9434     1   0.09730 310787.520000
   9436   9438     1   0.10969 276646.080000
   9437   9439     1   0.10969 276646.080000
   9440   9444     1   0.10969 276646.080000
   9441   9443     1   0.10969 276646.080000
   9442   9445     1   0.10961 277566.560000
   9447   9453     1   0.09730 310787.520000
   9448   9451     1   0.09730 310787.520000
   9449   9452     1   0.09730 310787.520000
   9450   9454     1   0.10969 276646.080000
   9450   9455     1   0.10969 276646.080000
   9456   9457     1   0.09730 310787.520000
   9459   9461     1   0.10969 276646.080000
   9460   9462     1   0.10969 276646.080000
   9463   9467     1   0.10969 276646.080000
   9464   9466     1   0.10969 276646.080000
   9465   9468     1   0.10961 277566.560000
   9470   9476     1   0.09730 310787.520000
   9471   9474     1   0.09730 310787.520000
   9472   9475     1   0.09730 310787.520000
   9473   9477     1   0.10969 276646.080000
   9473   9478     1   0.10969 276646.080000
   9479   9480     1   0.09730 310787.520000
   9482   9484     1   0.10969 276646.080000
   9483   9485     1   0.10969 276646.080000
   9486   9490     1   0.10969 276646.080000
   9487   9489     1   0.10969 276646.080000
   9488   9491     1   0.10961 277566.560000
   9493   9499     1   0.09730 310787.520000
   9494   9497     1   0.09730 310787.520000
   9495   9498     1   0.09730 310787.520000
   9496   9500     1   0.10969 276646.080000
   9496   9501     1   0.10969 276646.080000
   9502   9503     1   0.09730 310787.520000
   9505   9507     1   0.10969 276646.080000
   9506   9508     1   0.10969 276646.080000
   9509   9513     1   0.10969 276646.080000
   9510   9512     1   0.10969 276646.080000
   9511   9514     1   0.10961 277566.560000
   9516   9522     1   0.09730 310787.520000
   9517   9520     1   0.09730 310787.520000
   9518   9521     1   0.09730 310787.520000
   9519   9523     1   0.10969 276646.080000
   9519   9524     1   0.10969 276646.080000
   9525   9526     1   0.09730 310787.520000
   9528   9530     1   0.10969 276646.080000
   9529   9531     1   0.10969 276646.080000
   9532   9536     1   0.10969 276646.080000
   9533   9535     1   0.10969 276646.080000
   9534   9537     1   0.10961 277566.560000
   9539   9545     1   0.09730 310787.520000
   9540   9543     1   0.09730 310787.520000
   9541   9544     1   0.09730 310787.520000
   9542   9546     1   0.10969 276646.080000
   9542   9547     1   0.10969 276646.080000
   9548   9549     1   0.09730 310787.520000
   9551   9553     1   0.10969 276646.080000
   9552   9554     1   0.10969 276646.080000
   9555   9559     1   0.10969 276646.080000
   9556   9558     1   0.10969 276646.080000
   9557   9560     1   0.10961 277566.560000
   9562   9568     1   0.09730 310787.520000
   9563   9566     1   0.09730 310787.520000
   9564   9567     1   0.09730 310787.520000
   9565   9569     1   0.10969 276646.080000
   9565   9570     1   0.10969 276646.080000
   9571   9572     1   0.09730 310787.520000
   9574   9576     1   0.10969 276646.080000
   9575   9577     1   0.10969 276646.080000
   9578   9582     1   0.10969 276646.080000
   9579   9581     1   0.10969 276646.080000
   9580   9583     1   0.10961 277566.560000
   9585   9591     1   0.09730 310787.520000
   9586   9589     1   0.09730 310787.520000
   9587   9590     1   0.09730 310787.520000
   9588   9592     1   0.10969 276646.080000
   9588   9593     1   0.10969 276646.080000
   9594   9595     1   0.09730 310787.520000
   9597   9599     1   0.10969 276646.080000
   9598   9600     1   0.10969 276646.080000
   9601   9605     1   0.10969 276646.080000
   9602   9604     1   0.10969 276646.080000
   9603   9606     1   0.10961 277566.560000
   9608   9614     1   0.09730 310787.520000
   9609   9612     1   0.09730 310787.520000
   9610   9613     1   0.09730 310787.520000
   9611   9615     1   0.10969 276646.080000
   9611   9616     1   0.10969 276646.080000
   9617   9618     1   0.09730 310787.520000
   9620   9622     1   0.10969 276646.080000
   9621   9623     1   0.10969 276646.080000
   9624   9628     1   0.10969 276646.080000
   9625   9627     1   0.10969 276646.080000
   9626   9629     1   0.10961 277566.560000
   9631   9637     1   0.09730 310787.520000
   9632   9635     1   0.09730 310787.520000
   9633   9636     1   0.09730 310787.520000
   9634   9638     1   0.10969 276646.080000
   9634   9639     1   0.10969 276646.080000
   9640   9641     1   0.09730 310787.520000
   9643   9645     1   0.10969 276646.080000
   9644   9646     1   0.10969 276646.080000
   9647   9651     1   0.10969 276646.080000
   9648   9650     1   0.10969 276646.080000
   9649   9652     1   0.10961 277566.560000
   9654   9660     1   0.09730 310787.520000
   9655   9658     1   0.09730 310787.520000
   9656   9659     1   0.09730 310787.520000
   9657   9661     1   0.10969 276646.080000
   9657   9662     1   0.10969 276646.080000
   9663   9664     1   0.09730 310787.520000
   9666   9668     1   0.10969 276646.080000
   9667   9669     1   0.10969 276646.080000
   9670   9674     1   0.10969 276646.080000
   9671   9673     1   0.10969 276646.080000
   9672   9675     1   0.10961 277566.560000
   9677   9683     1   0.09730 310787.520000
   9678   9681     1   0.09730 310787.520000
   9679   9682     1   0.09730 310787.520000
   9680   9684     1   0.10969 276646.080000
   9680   9685     1   0.10969 276646.080000
   9686   9687     1   0.09730 310787.520000
   9689   9691     1   0.10969 276646.080000
   9690   9692     1   0.10969 276646.080000
   9693   9697     1   0.10969 276646.080000
   9694   9696     1   0.10969 276646.080000
   9695   9698     1   0.10961 277566.560000
   9700   9706     1   0.09730 310787.520000
   9701   9704     1   0.09730 310787.520000
   9702   9705     1   0.09730 310787.520000
   9703   9707     1   0.10969 276646.080000
   9703   9708     1   0.10969 276646.080000
   9709   9710     1   0.09730 310787.520000
   9712   9714     1   0.10969 276646.080000
   9713   9715     1   0.10969 276646.080000
   9716   9720     1   0.10969 276646.080000
   9717   9719     1   0.10969 276646.080000
   9718   9721     1   0.10961 277566.560000
   9723   9729     1   0.09730 310787.520000
   9724   9727     1   0.09730 310787.520000
   9725   9728     1   0.09730 310787.520000
   9726   9730     1   0.10969 276646.080000
   9726   9731     1   0.10969 276646.080000
   9732   9733     1   0.09730 310787.520000
   9735   9737     1   0.10969 276646.080000
   9736   9738     1   0.10969 276646.080000
   9739   9743     1   0.10969 276646.080000
   9740   9742     1   0.10969 276646.080000
   9741   9744     1   0.10961 277566.560000
   9746   9752     1   0.09730 310787.520000
   9747   9750     1   0.09730 310787.520000
   9748   9751     1   0.09730 310787.520000
   9749   9753     1   0.10969 276646.080000
   9749   9754     1   0.10969 276646.080000
   9755   9756     1   0.09730 310787.520000
   9758   9760     1   0.10969 276646.080000
   9759   9761     1   0.10969 276646.080000
   9762   9766     1   0.10969 276646.080000
   9763   9765     1   0.10969 276646.080000
   9764   9767     1   0.10961 277566.560000
   9769   9775     1   0.09730 310787.520000
   9770   9773     1   0.09730 310787.520000
   9771   9774     1   0.09730 310787.520000
   9772   9776     1   0.10969 276646.080000
   9772   9777     1   0.10969 276646.080000
   9778   9779     1   0.09730 310787.520000
   9781   9783     1   0.10969 276646.080000
   9782   9784     1   0.10969 276646.080000
   9785   9789     1   0.10969 276646.080000
   9786   9788     1   0.10969 276646.080000
   9787   9790     1   0.10961 277566.560000
   9792   9798     1   0.09730 310787.520000
   9793   9796     1   0.09730 310787.520000
   9794   9797     1   0.09730 310787.520000
   9795   9799     1   0.10969 276646.080000
   9795   9800     1   0.10969 276646.080000
   9801   9802     1   0.09730 310787.520000
   9804   9806     1   0.10969 276646.080000
   9805   9807     1   0.10969 276646.080000
   9808   9812     1   0.10969 276646.080000
   9809   9811     1   0.10969 276646.080000
   9810   9813     1   0.10961 277566.560000
   9815   9821     1   0.09730 310787.520000
   9816   9819     1   0.09730 310787.520000
   9817   9820     1   0.09730 310787.520000
   9818   9822     1   0.10969 276646.080000
   9818   9823     1   0.10969 276646.080000
   9824   9825     1   0.09730 310787.520000
   9827   9829     1   0.10969 276646.080000
   9828   9830     1   0.10969 276646.080000
   9831   9835     1   0.10969 276646.080000
   9832   9834     1   0.10969 276646.080000
   9833   9836     1   0.10961 277566.560000
   9838   9844     1   0.09730 310787.520000
   9839   9842     1   0.09730 310787.520000
   9840   9843     1   0.09730 310787.520000
   9841   9845     1   0.10969 276646.080000
   9841   9846     1   0.10969 276646.080000
   9847   9848     1   0.09730 310787.520000
   9850   9852     1   0.10969 276646.080000
   9851   9853     1   0.10969 276646.080000
   9854   9858     1   0.10969 276646.080000
   9855   9857     1   0.10969 276646.080000
   9856   9859     1   0.10961 277566.560000
   9861   9867     1   0.09730 310787.520000
   9862   9865     1   0.09730 310787.520000
   9863   9866     1   0.09730 310787.520000
   9864   9868     1   0.10969 276646.080000
   9864   9869     1   0.10969 276646.080000
   9870   9871     1   0.09730 310787.520000
   9873   9875     1   0.10969 276646.080000
   9874   9876     1   0.10969 276646.080000
   9877   9881     1   0.10969 276646.080000
   9878   9880     1   0.10969 276646.080000
   9879   9882     1   0.10961 277566.560000
   9884   9890     1   0.09730 310787.520000
   9885   9888     1   0.09730 310787.520000
   9886   9889     1   0.09730 310787.520000
   9887   9891     1   0.10969 276646.080000
   9887   9892     1   0.10969 276646.080000
   9893   9894     1   0.09730 310787.520000
   9896   9898     1   0.10969 276646.080000
   9897   9899     1   0.10969 276646.080000
   9900   9904     1   0.10969 276646.080000
   9901   9903     1   0.10969 276646.080000
   9902   9905     1   0.10961 277566.560000
   9907   9913     1   0.09730 310787.520000
   9908   9911     1   0.09730 310787.520000
   9909   9912     1   0.09730 310787.520000
   9910   9914     1   0.10969 276646.080000
   9910   9915     1   0.10969 276646.080000
   9916   9917     1   0.09730 310787.520000
   9919   9921     1   0.10969 276646.080000
   9920   9922     1   0.10969 276646.080000
   9923   9927     1   0.10969 276646.080000
   9924   9926     1   0.10969 276646.080000
   9925   9928     1   0.10961 277566.560000
   9930   9936     1   0.09730 310787.520000
   9931   9934     1   0.09730 310787.520000
   9932   9935     1   0.09730 310787.520000
   9933   9937     1   0.10969 276646.080000
   9933   9938     1   0.10969 276646.080000
   9939   9940     1   0.09730 310787.520000
   9942   9944     1   0.10969 276646.080000
   9943   9945     1   0.10969 276646.080000
   9946   9950     1   0.10969 276646.080000
   9947   9949     1   0.10969 276646.080000
   9948   9951     1   0.10961 277566.560000
   9953   9959     1   0.09730 310787.520000
   9954   9957     1   0.09730 310787.520000
   9955   9958     1   0.09730 310787.520000
   9956   9960     1   0.10969 276646.080000
   9956   9961     1   0.10969 276646.080000
   9962   9963     1   0.09730 310787.520000
   9965   9967     1   0.10969 276646.080000
   9966   9968     1   0.10969 276646.080000
   9969   9973     1   0.10969 276646.080000
   9970   9972     1   0.10969 276646.080000
   9971   9974     1   0.10961 277566.560000
   9976   9982     1   0.09730 310787.520000
   9977   9980     1   0.09730 310787.520000
   9978   9981     1   0.09730 310787.520000
   9979   9983     1   0.10969 276646.080000
   9979   9984     1   0.10969 276646.080000
   9985   9986     1   0.09730 310787.520000
   9988   9990     1   0.10969 276646.080000
   9989   9991     1   0.10969 276646.080000
   9992   9996     1   0.10969 276646.080000
   9993   9995     1   0.10969 276646.080000
   9994   9997     1   0.10961 277566.560000
   9999  10005     1   0.09730 310787.520000
  10000  10003     1   0.09730 310787.520000
  10001  10004     1   0.09730 310787.520000
  10002  10006     1   0.10969 276646.080000
  10002  10007     1   0.10969 276646.080000
  10008  10009     1   0.09730 310787.520000
  10011  10013     1   0.10969 276646.080000
  10012  10014     1   0.10969 276646.080000
  10015  10019     1   0.10969 276646.080000
  10016  10018     1   0.10969 276646.080000
  10017  10020     1   0.10961 277566.560000
  10022  10028     1   0.09730 310787.520000
  10023  10026     1   0.09730 310787.520000
  10024  10027     1   0.09730 310787.520000
  10025  10029     1   0.10969 276646.080000
  10025  10030     1   0.10969 276646.080000
  10031  10032     1   0.09730 310787.520000
  10034  10036     1   0.10969 276646.080000
  10035  10037     1   0.10969 276646.080000
  10038  10042     1   0.10969 276646.080000
  10039  10041     1   0.10969 276646.080000
  10040  10043     1   0.10961 277566.560000
  10045  10051     1   0.09730 310787.520000
  10046  10049     1   0.09730 310787.520000
  10047  10050     1   0.09730 310787.520000
  10048  10052     1   0.10969 276646.080000
  10048  10053     1   0.10969 276646.080000
  10054  10055     1   0.09730 310787.520000
  10057  10059     1   0.10969 276646.080000
  10058  10060     1   0.10969 276646.080000
  10061  10065     1   0.10969 276646.080000
  10062  10064     1   0.10969 276646.080000
  10063  10066     1   0.10961 277566.560000
  10068  10074     1   0.09730 310787.520000
  10069  10072     1   0.09730 310787.520000
  10070  10073     1   0.09730 310787.520000
  10071  10075     1   0.10969 276646.080000
  10071  10076     1   0.10969 276646.080000
  10077  10078     1   0.09730 310787.520000
  10080  10082     1   0.10969 276646.080000
  10081  10083     1   0.10969 276646.080000
  10084  10088     1   0.10969 276646.080000
  10085  10087     1   0.10969 276646.080000
  10086  10089     1   0.10961 277566.560000
  10091  10097     1   0.09730 310787.520000
  10092  10095     1   0.09730 310787.520000
  10093  10096     1   0.09730 310787.520000
  10094  10098     1   0.10969 276646.080000
  10094  10099     1   0.10969 276646.080000
  10100  10101     1   0.09730 310787.520000
  10103  10105     1   0.10969 276646.080000
  10104  10106     1   0.10969 276646.080000
  10107  10111     1   0.10969 276646.080000
  10108  10110     1   0.10969 276646.080000
  10109  10112     1   0.10961 277566.560000
  10114  10120     1   0.09730 310787.520000
  10115  10118     1   0.09730 310787.520000
  10116  10119     1   0.09730 310787.520000
  10117  10121     1   0.10969 276646.080000
  10117  10122     1   0.10969 276646.080000
  10123  10124     1   0.09730 310787.520000
  10126  10128     1   0.10969 276646.080000
  10127  10129     1   0.10969 276646.080000
  10130  10134     1   0.10969 276646.080000
  10131  10133     1   0.10969 276646.080000
  10132  10135     1   0.10961 277566.560000
  10137  10143     1   0.09730 310787.520000
  10138  10141     1   0.09730 310787.520000
  10139  10142     1   0.09730 310787.520000
  10140  10144     1   0.10969 276646.080000
  10140  10145     1   0.10969 276646.080000
  10146  10147     1   0.09730 310787.520000
  10149  10151     1   0.10969 276646.080000
  10150  10152     1   0.10969 276646.080000
  10153  10157     1   0.10969 276646.080000
  10154  10156     1   0.10969 276646.080000
  10155  10158     1   0.10961 277566.560000
  10160  10166     1   0.09730 310787.520000
  10161  10164     1   0.09730 310787.520000
  10162  10165     1   0.09730 310787.520000
  10163  10167     1   0.10969 276646.080000
  10163  10168     1   0.10969 276646.080000
  10169  10170     1   0.09730 310787.520000
  10172  10174     1   0.10969 276646.080000
  10173  10175     1   0.10969 276646.080000
  10176  10180     1   0.10969 276646.080000
  10177  10179     1   0.10969 276646.080000
  10178  10181     1   0.10961 277566.560000
  10183  10189     1   0.09730 310787.520000
  10184  10187     1   0.09730 310787.520000
  10185  10188     1   0.09730 310787.520000
  10186  10190     1   0.10969 276646.080000
  10186  10191     1   0.10969 276646.080000
  10192  10193     1   0.09730 310787.520000
  10195  10197     1   0.10969 276646.080000
  10196  10198     1   0.10969 276646.080000
  10199  10203     1   0.10969 276646.080000
  10200  10202     1   0.10969 276646.080000
  10201  10204     1   0.10961 277566.560000
  10206  10212     1   0.09730 310787.520000
  10207  10210     1   0.09730 310787.520000
  10208  10211     1   0.09730 310787.520000
  10209  10213     1   0.10969 276646.080000
  10209  10214     1   0.10969 276646.080000
  10215  10216     1   0.09730 310787.520000
  10218  10220     1   0.10969 276646.080000
  10219  10221     1   0.10969 276646.080000
  10222  10226     1   0.10969 276646.080000
  10223  10225     1   0.10969 276646.080000
  10224  10227     1   0.10961 277566.560000
  10229  10235     1   0.09730 310787.520000
  10230  10233     1   0.09730 310787.520000
  10231  10234     1   0.09730 310787.520000
  10232  10236     1   0.10969 276646.080000
  10232  10237     1   0.10969 276646.080000
  10238  10239     1   0.09730 310787.520000
  10241  10243     1   0.10969 276646.080000
  10242  10244     1   0.10969 276646.080000
  10245  10249     1   0.10969 276646.080000
  10246  10248     1   0.10969 276646.080000
  10247  10250     1   0.10961 277566.560000
  10252  10258     1   0.09730 310787.520000
  10253  10256     1   0.09730 310787.520000
  10254  10257     1   0.09730 310787.520000
  10255  10259     1   0.10969 276646.080000
  10255  10260     1   0.10969 276646.080000
  10261  10262     1   0.09730 310787.520000
  10264  10266     1   0.10969 276646.080000
  10265  10267     1   0.10969 276646.080000
  10268  10272     1   0.10969 276646.080000
  10269  10271     1   0.10969 276646.080000
  10270  10273     1   0.10961 277566.560000
  10275  10281     1   0.09730 310787.520000
  10276  10279     1   0.09730 310787.520000
  10277  10280     1   0.09730 310787.520000
  10278  10282     1   0.10969 276646.080000
  10278  10283     1   0.10969 276646.080000
  10284  10285     1   0.09730 310787.520000
  10287  10289     1   0.10969 276646.080000
  10288  10290     1   0.10969 276646.080000
  10291  10295     1   0.10969 276646.080000
  10292  10294     1   0.10969 276646.080000
  10293  10296     1   0.10961 277566.560000
  10298  10304     1   0.09730 310787.520000
  10299  10302     1   0.09730 310787.520000
  10300  10303     1   0.09730 310787.520000
  10301  10305     1   0.10969 276646.080000
  10301  10306     1   0.10969 276646.080000
  10307  10308     1   0.09730 310787.520000
  10310  10312     1   0.10969 276646.080000
  10311  10313     1   0.10969 276646.080000
  10314  10318     1   0.10969 276646.080000
  10315  10317     1   0.10969 276646.080000
  10316  10319     1   0.10961 277566.560000
  10321  10327     1   0.09730 310787.520000
  10322  10325     1   0.09730 310787.520000
  10323  10326     1   0.09730 310787.520000
  10324  10328     1   0.10969 276646.080000
  10324  10329     1   0.10969 276646.080000
  10330  10331     1   0.09730 310787.520000
  10333  10335     1   0.10969 276646.080000
  10334  10336     1   0.10969 276646.080000
  10337  10341     1   0.10969 276646.080000
  10338  10340     1   0.10969 276646.080000
  10339  10342     1   0.10961 277566.560000
  10344  10350     1   0.09730 310787.520000
  10345  10348     1   0.09730 310787.520000
  10346  10349     1   0.09730 310787.520000
  10347  10351     1   0.10969 276646.080000
  10347  10352     1   0.10969 276646.080000
  10353  10354     1   0.09730 310787.520000
  10356  10358     1   0.10969 276646.080000
  10357  10359     1   0.10969 276646.080000
  10360  10364     1   0.10969 276646.080000
  10361  10363     1   0.10969 276646.080000
  10362  10365     1   0.10961 277566.560000
  10367  10373     1   0.09730 310787.520000
  10368  10371     1   0.09730 310787.520000
  10369  10372     1   0.09730 310787.520000
  10370  10374     1   0.10969 276646.080000
  10370  10375     1   0.10969 276646.080000
  10376  10377     1   0.09730 310787.520000
  10379  10381     1   0.10969 276646.080000
  10380  10382     1   0.10969 276646.080000
  10383  10387     1   0.10969 276646.080000
  10384  10386     1   0.10969 276646.080000
  10385  10388     1   0.10961 277566.560000
  10390  10396     1   0.09730 310787.520000
  10391  10394     1   0.09730 310787.520000
  10392  10395     1   0.09730 310787.520000
  10393  10397     1   0.10969 276646.080000
  10393  10398     1   0.10969 276646.080000
  10399  10400     1   0.09730 310787.520000
  10402  10404     1   0.10969 276646.080000
  10403  10405     1   0.10969 276646.080000
  10406  10410     1   0.10969 276646.080000
  10407  10409     1   0.10969 276646.080000
  10408  10411     1   0.10961 277566.560000
  10413  10419     1   0.09730 310787.520000
  10414  10417     1   0.09730 310787.520000
  10415  10418     1   0.09730 310787.520000
  10416  10420     1   0.10969 276646.080000
  10416  10421     1   0.10969 276646.080000
  10422  10423     1   0.09730 310787.520000
  10425  10427     1   0.10969 276646.080000
  10426  10428     1   0.10969 276646.080000
  10429  10433     1   0.10969 276646.080000
  10430  10432     1   0.10969 276646.080000
  10431  10434     1   0.10961 277566.560000
  10436  10442     1   0.09730 310787.520000
  10437  10440     1   0.09730 310787.520000
  10438  10441     1   0.09730 310787.520000
  10439  10443     1   0.10969 276646.080000
  10439  10444     1   0.10969 276646.080000
  10445  10446     1   0.09730 310787.520000
  10448  10450     1   0.10969 276646.080000
  10449  10451     1   0.10969 276646.080000
  10452  10456     1   0.10969 276646.080000
  10453  10455     1   0.10969 276646.080000
  10454  10457     1   0.10961 277566.560000
  10459  10465     1   0.09730 310787.520000
  10460  10463     1   0.09730 310787.520000
  10461  10464     1   0.09730 310787.520000
  10462  10466     1   0.10969 276646.080000
  10462  10467     1   0.10969 276646.080000
  10468  10469     1   0.09730 310787.520000
  10471  10473     1   0.10969 276646.080000
  10472  10474     1   0.10969 276646.080000
  10475  10479     1   0.10969 276646.080000
  10476  10478     1   0.10969 276646.080000
  10477  10480     1   0.10961 277566.560000
  10482  10488     1   0.09730 310787.520000
  10483  10486     1   0.09730 310787.520000
  10484  10487     1   0.09730 310787.520000
  10485  10489     1   0.10969 276646.080000
  10485  10490     1   0.10969 276646.080000
  10491  10492     1   0.09730 310787.520000
  10494  10496     1   0.10969 276646.080000
  10495  10497     1   0.10969 276646.080000
  10498  10502     1   0.10969 276646.080000
  10499  10501     1   0.10969 276646.080000
  10500  10503     1   0.10961 277566.560000
  10505  10511     1   0.09730 310787.520000
  10506  10509     1   0.09730 310787.520000
  10507  10510     1   0.09730 310787.520000
  10508  10512     1   0.10969 276646.080000
  10508  10513     1   0.10969 276646.080000
  10514  10515     1   0.09730 310787.520000
  10517  10519     1   0.10969 276646.080000
  10518  10520     1   0.10969 276646.080000
  10521  10525     1   0.10969 276646.080000
  10522  10524     1   0.10969 276646.080000
  10523  10526     1   0.10961 277566.560000
  10528  10534     1   0.09730 310787.520000
  10529  10532     1   0.09730 310787.520000
  10530  10533     1   0.09730 310787.520000
  10531  10535     1   0.10969 276646.080000
  10531  10536     1   0.10969 276646.080000
  10537  10538     1   0.09730 310787.520000
  10540  10542     1   0.10969 276646.080000
  10541  10543     1   0.10969 276646.080000
  10544  10548     1   0.10969 276646.080000
  10545  10547     1   0.10969 276646.080000
  10546  10549     1   0.10961 277566.560000
  10551  10557     1   0.09730 310787.520000
  10552  10555     1   0.09730 310787.520000
  10553  10556     1   0.09730 310787.520000
  10554  10558     1   0.10969 276646.080000
  10554  10559     1   0.10969 276646.080000
  10560  10561     1   0.09730 310787.520000
  10563  10565     1   0.10969 276646.080000
  10564  10566     1   0.10969 276646.080000
  10567  10571     1   0.10969 276646.080000
  10568  10570     1   0.10969 276646.080000
  10569  10572     1   0.10961 277566.560000
  10574  10580     1   0.09730 310787.520000
  10575  10578     1   0.09730 310787.520000
  10576  10579     1   0.09730 310787.520000
  10577  10581     1   0.10969 276646.080000
  10577  10582     1   0.10969 276646.080000
  10583  10584     1   0.09730 310787.520000
  10586  10588     1   0.10969 276646.080000
  10587  10589     1   0.10969 276646.080000
  10590  10594     1   0.10969 276646.080000
  10591  10593     1   0.10969 276646.080000
  10592  10595     1   0.10961 277566.560000
  10597  10603     1   0.09730 310787.520000
  10598  10601     1   0.09730 310787.520000
  10599  10602     1   0.09730 310787.520000
  10600  10604     1   0.10969 276646.080000
  10600  10605     1   0.10969 276646.080000
  10606  10607     1   0.09730 310787.520000
  10609  10611     1   0.10969 276646.080000
  10610  10612     1   0.10969 276646.080000
  10613  10617     1   0.10969 276646.080000
  10614  10616     1   0.10969 276646.080000
  10615  10618     1   0.10961 277566.560000
  10620  10626     1   0.09730 310787.520000
  10621  10624     1   0.09730 310787.520000
  10622  10625     1   0.09730 310787.520000
  10623  10627     1   0.10969 276646.080000
  10623  10628     1   0.10969 276646.080000
  10629  10630     1   0.09730 310787.520000
  10632  10634     1   0.10969 276646.080000
  10633  10635     1   0.10969 276646.080000
  10636  10640     1   0.10969 276646.080000
  10637  10639     1   0.10969 276646.080000
  10638  10641     1   0.10961 277566.560000
  10643  10649     1   0.09730 310787.520000
  10644  10647     1   0.09730 310787.520000
  10645  10648     1   0.09730 310787.520000
  10646  10650     1   0.10969 276646.080000
  10646  10651     1   0.10969 276646.080000
  10652  10653     1   0.09730 310787.520000
  10655  10657     1   0.10969 276646.080000
  10656  10658     1   0.10969 276646.080000
  10659  10663     1   0.10969 276646.080000
  10660  10662     1   0.10969 276646.080000
  10661  10664     1   0.10961 277566.560000
  10666  10672     1   0.09730 310787.520000
  10667  10670     1   0.09730 310787.520000
  10668  10671     1   0.09730 310787.520000
  10669  10673     1   0.10969 276646.080000
  10669  10674     1   0.10969 276646.080000
  10675  10676     1   0.09730 310787.520000
  10678  10680     1   0.10969 276646.080000
  10679  10681     1   0.10969 276646.080000
  10682  10686     1   0.10969 276646.080000
  10683  10685     1   0.10969 276646.080000
  10684  10687     1   0.10961 277566.560000
  10689  10695     1   0.09730 310787.520000
  10690  10693     1   0.09730 310787.520000
  10691  10694     1   0.09730 310787.520000
  10692  10696     1   0.10969 276646.080000
  10692  10697     1   0.10969 276646.080000
  10698  10699     1   0.09730 310787.520000
  10701  10703     1   0.10969 276646.080000
  10702  10704     1   0.10969 276646.080000
  10705  10709     1   0.10969 276646.080000
  10706  10708     1   0.10969 276646.080000
  10707  10710     1   0.10961 277566.560000
  10712  10718     1   0.09730 310787.520000
  10713  10716     1   0.09730 310787.520000
  10714  10717     1   0.09730 310787.520000
  10715  10719     1   0.10969 276646.080000
  10715  10720     1   0.10969 276646.080000
  10721  10722     1   0.09730 310787.520000
  10724  10726     1   0.10969 276646.080000
  10725  10727     1   0.10969 276646.080000
  10728  10732     1   0.10969 276646.080000
  10729  10731     1   0.10969 276646.080000
  10730  10733     1   0.10961 277566.560000
  10735  10741     1   0.09730 310787.520000
  10736  10739     1   0.09730 310787.520000
  10737  10740     1   0.09730 310787.520000
  10738  10742     1   0.10969 276646.080000
  10738  10743     1   0.10969 276646.080000
  10744  10745     1   0.09730 310787.520000
  10747  10749     1   0.10969 276646.080000
  10748  10750     1   0.10969 276646.080000
  10751  10755     1   0.10969 276646.080000
  10752  10754     1   0.10969 276646.080000
  10753  10756     1   0.10961 277566.560000
  10758  10764     1   0.09730 310787.520000
  10759  10762     1   0.09730 310787.520000
  10760  10763     1   0.09730 310787.520000
  10761  10765     1   0.10969 276646.080000
  10761  10766     1   0.10969 276646.080000
  10767  10768     1   0.09730 310787.520000
  10770  10772     1   0.10969 276646.080000
  10771  10773     1   0.10969 276646.080000
  10774  10778     1   0.10969 276646.080000
  10775  10777     1   0.10969 276646.080000
  10776  10779     1   0.10961 277566.560000
  10781  10787     1   0.09730 310787.520000
  10782  10785     1   0.09730 310787.520000
  10783  10786     1   0.09730 310787.520000
  10784  10788     1   0.10969 276646.080000
  10784  10789     1   0.10969 276646.080000
  10790  10791     1   0.09730 310787.520000
  10793  10795     1   0.10969 276646.080000
  10794  10796     1   0.10969 276646.080000
  10797  10801     1   0.10969 276646.080000
  10798  10800     1   0.10969 276646.080000
  10799  10802     1   0.10961 277566.560000
  10804  10810     1   0.09730 310787.520000
  10805  10808     1   0.09730 310787.520000
  10806  10809     1   0.09730 310787.520000
  10807  10811     1   0.10969 276646.080000
  10807  10812     1   0.10969 276646.080000
  10813  10814     1   0.09730 310787.520000
  10816  10818     1   0.10969 276646.080000
  10817  10819     1   0.10969 276646.080000
  10820  10824     1   0.10969 276646.080000
  10821  10823     1   0.10969 276646.080000
  10822  10825     1   0.10961 277566.560000
  10827  10833     1   0.09730 310787.520000
  10828  10831     1   0.09730 310787.520000
  10829  10832     1   0.09730 310787.520000
  10830  10834     1   0.10969 276646.080000
  10830  10835     1   0.10969 276646.080000
  10836  10837     1   0.09730 310787.520000
  10839  10841     1   0.10969 276646.080000
  10840  10842     1   0.10969 276646.080000
  10843  10847     1   0.10969 276646.080000
  10844  10846     1   0.10969 276646.080000
  10845  10848     1   0.10961 277566.560000
  10850  10856     1   0.09730 310787.520000
  10851  10854     1   0.09730 310787.520000
  10852  10855     1   0.09730 310787.520000
  10853  10857     1   0.10969 276646.080000
  10853  10858     1   0.10969 276646.080000
  10859  10860     1   0.09730 310787.520000
  10862  10864     1   0.10969 276646.080000
  10863  10865     1   0.10969 276646.080000
  10866  10870     1   0.10969 276646.080000
  10867  10869     1   0.10969 276646.080000
  10868  10871     1   0.10961 277566.560000
  10873  10879     1   0.09730 310787.520000
  10874  10877     1   0.09730 310787.520000
  10875  10878     1   0.09730 310787.520000
  10876  10880     1   0.10969 276646.080000
  10876  10881     1   0.10969 276646.080000
  10882  10883     1   0.09730 310787.520000
  10885  10887     1   0.10969 276646.080000
  10886  10888     1   0.10969 276646.080000
  10889  10893     1   0.10969 276646.080000
  10890  10892     1   0.10969 276646.080000
  10891  10894     1   0.10961 277566.560000
  10896  10902     1   0.09730 310787.520000
  10897  10900     1   0.09730 310787.520000
  10898  10901     1   0.09730 310787.520000
  10899  10903     1   0.10969 276646.080000
  10899  10904     1   0.10969 276646.080000
  10905  10906     1   0.09730 310787.520000
  10908  10910     1   0.10969 276646.080000
  10909  10911     1   0.10969 276646.080000
  10912  10916     1   0.10969 276646.080000
  10913  10915     1   0.10969 276646.080000
  10914  10917     1   0.10961 277566.560000
  10919  10925     1   0.09730 310787.520000
  10920  10923     1   0.09730 310787.520000
  10921  10924     1   0.09730 310787.520000
  10922  10926     1   0.10969 276646.080000
  10922  10927     1   0.10969 276646.080000
  10928  10929     1   0.09730 310787.520000
  10931  10933     1   0.10969 276646.080000
  10932  10934     1   0.10969 276646.080000
  10935  10939     1   0.10969 276646.080000
  10936  10938     1   0.10969 276646.080000
  10937  10940     1   0.10961 277566.560000
  10942  10948     1   0.09730 310787.520000
  10943  10946     1   0.09730 310787.520000
  10944  10947     1   0.09730 310787.520000
  10945  10949     1   0.10969 276646.080000
  10945  10950     1   0.10969 276646.080000
  10951  10952     1   0.09730 310787.520000
  10954  10956     1   0.10969 276646.080000
  10955  10957     1   0.10969 276646.080000
  10958  10962     1   0.10969 276646.080000
  10959  10961     1   0.10969 276646.080000
  10960  10963     1   0.10961 277566.560000
  10965  10971     1   0.09730 310787.520000
  10966  10969     1   0.09730 310787.520000
  10967  10970     1   0.09730 310787.520000
  10968  10972     1   0.10969 276646.080000
  10968  10973     1   0.10969 276646.080000
  10974  10975     1   0.09730 310787.520000
  10977  10979     1   0.10969 276646.080000
  10978  10980     1   0.10969 276646.080000
  10981  10985     1   0.10969 276646.080000
  10982  10984     1   0.10969 276646.080000
  10983  10986     1   0.10961 277566.560000
  10988  10994     1   0.09730 310787.520000
  10989  10992     1   0.09730 310787.520000
  10990  10993     1   0.09730 310787.520000
  10991  10995     1   0.10969 276646.080000
  10991  10996     1   0.10969 276646.080000
  10997  10998     1   0.09730 310787.520000
  11000  11002     1   0.10969 276646.080000
  11001  11003     1   0.10969 276646.080000
  11004  11008     1   0.10969 276646.080000
  11005  11007     1   0.10969 276646.080000
  11006  11009     1   0.10961 277566.560000
  11011  11017     1   0.09730 310787.520000
  11012  11015     1   0.09730 310787.520000
  11013  11016     1   0.09730 310787.520000
  11014  11018     1   0.10969 276646.080000
  11014  11019     1   0.10969 276646.080000
  11020  11021     1   0.09730 310787.520000
  11023  11025     1   0.10969 276646.080000
  11024  11026     1   0.10969 276646.080000
  11027  11031     1   0.10969 276646.080000
  11028  11030     1   0.10969 276646.080000
  11029  11032     1   0.10961 277566.560000
  11034  11040     1   0.09730 310787.520000
  11035  11038     1   0.09730 310787.520000
  11036  11039     1   0.09730 310787.520000
  11037  11041     1   0.10969 276646.080000
  11037  11042     1   0.10969 276646.080000
  11043  11044     1   0.09730 310787.520000
  11046  11048     1   0.10969 276646.080000
  11047  11049     1   0.10969 276646.080000
  11050  11054     1   0.10969 276646.080000
  11051  11053     1   0.10969 276646.080000
  11052  11055     1   0.10961 277566.560000
  11057  11063     1   0.09730 310787.520000
  11058  11061     1   0.09730 310787.520000
  11059  11062     1   0.09730 310787.520000
  11060  11064     1   0.10969 276646.080000
  11060  11065     1   0.10969 276646.080000
  11066  11067     1   0.09730 310787.520000
  11069  11071     1   0.10969 276646.080000
  11070  11072     1   0.10969 276646.080000
  11073  11077     1   0.10969 276646.080000
  11074  11076     1   0.10969 276646.080000
  11075  11078     1   0.10961 277566.560000
  11080  11086     1   0.09730 310787.520000
  11081  11084     1   0.09730 310787.520000
  11082  11085     1   0.09730 310787.520000
  11083  11087     1   0.10969 276646.080000
  11083  11088     1   0.10969 276646.080000
  11089  11090     1   0.09730 310787.520000
  11092  11094     1   0.10969 276646.080000
  11093  11095     1   0.10969 276646.080000
  11096  11100     1   0.10969 276646.080000
  11097  11099     1   0.10969 276646.080000
  11098  11101     1   0.10961 277566.560000
  11103  11109     1   0.09730 310787.520000
  11104  11107     1   0.09730 310787.520000
  11105  11108     1   0.09730 310787.520000
  11106  11110     1   0.10969 276646.080000
  11106  11111     1   0.10969 276646.080000
  11112  11113     1   0.09730 310787.520000
  11115  11117     1   0.10969 276646.080000
  11116  11118     1   0.10969 276646.080000
  11119  11123     1   0.10969 276646.080000
  11120  11122     1   0.10969 276646.080000
  11121  11124     1   0.10961 277566.560000
  11126  11132     1   0.09730 310787.520000
  11127  11130     1   0.09730 310787.520000
  11128  11131     1   0.09730 310787.520000
  11129  11133     1   0.10969 276646.080000
  11129  11134     1   0.10969 276646.080000
  11135  11136     1   0.09730 310787.520000
  11138  11140     1   0.10969 276646.080000
  11139  11141     1   0.10969 276646.080000
  11142  11146     1   0.10969 276646.080000
  11143  11145     1   0.10969 276646.080000
  11144  11147     1   0.10961 277566.560000
  11149  11155     1   0.09730 310787.520000
  11150  11153     1   0.09730 310787.520000
  11151  11154     1   0.09730 310787.520000
  11152  11156     1   0.10969 276646.080000
  11152  11157     1   0.10969 276646.080000
  11158  11159     1   0.09730 310787.520000
  11161  11163     1   0.10969 276646.080000
  11162  11164     1   0.10969 276646.080000
  11165  11169     1   0.10969 276646.080000
  11166  11168     1   0.10969 276646.080000
  11167  11170     1   0.10961 277566.560000
  11172  11178     1   0.09730 310787.520000
  11173  11176     1   0.09730 310787.520000
  11174  11177     1   0.09730 310787.520000
  11175  11179     1   0.10969 276646.080000
  11175  11180     1   0.10969 276646.080000
  11181  11182     1   0.09730 310787.520000
  11184  11186     1   0.10969 276646.080000
  11185  11187     1   0.10969 276646.080000
  11188  11192     1   0.10969 276646.080000
  11189  11191     1   0.10969 276646.080000
  11190  11193     1   0.10961 277566.560000
  11195  11201     1   0.09730 310787.520000
  11196  11199     1   0.09730 310787.520000
  11197  11200     1   0.09730 310787.520000
  11198  11202     1   0.10969 276646.080000
  11198  11203     1   0.10969 276646.080000
  11204  11205     1   0.09730 310787.520000
  11207  11209     1   0.10969 276646.080000
  11208  11210     1   0.10969 276646.080000
  11211  11215     1   0.10969 276646.080000
  11212  11214     1   0.10969 276646.080000
  11213  11216     1   0.10961 277566.560000
  11218  11224     1   0.09730 310787.520000
  11219  11222     1   0.09730 310787.520000
  11220  11223     1   0.09730 310787.520000
  11221  11225     1   0.10969 276646.080000
  11221  11226     1   0.10969 276646.080000
  11227  11228     1   0.09730 310787.520000
  11230  11232     1   0.10969 276646.080000
  11231  11233     1   0.10969 276646.080000
  11234  11238     1   0.10969 276646.080000
  11235  11237     1   0.10969 276646.080000
  11236  11239     1   0.10961 277566.560000
  11241  11247     1   0.09730 310787.520000
  11242  11245     1   0.09730 310787.520000
  11243  11246     1   0.09730 310787.520000
  11244  11248     1   0.10969 276646.080000
  11244  11249     1   0.10969 276646.080000
  11250  11251     1   0.09730 310787.520000
  11253  11255     1   0.10969 276646.080000
  11254  11256     1   0.10969 276646.080000
  11257  11261     1   0.10969 276646.080000
  11258  11260     1   0.10969 276646.080000
  11259  11262     1   0.10961 277566.560000
  11264  11270     1   0.09730 310787.520000
  11265  11268     1   0.09730 310787.520000
  11266  11269     1   0.09730 310787.520000
  11267  11271     1   0.10969 276646.080000
  11267  11272     1   0.10969 276646.080000
  11273  11274     1   0.09730 310787.520000
  11276  11278     1   0.10969 276646.080000
  11277  11279     1   0.10969 276646.080000
  11280  11284     1   0.10969 276646.080000
  11281  11283     1   0.10969 276646.080000
  11282  11285     1   0.10961 277566.560000
  11287  11293     1   0.09730 310787.520000
  11288  11291     1   0.09730 310787.520000
  11289  11292     1   0.09730 310787.520000
  11290  11294     1   0.10969 276646.080000
  11290  11295     1   0.10969 276646.080000
  11296  11297     1   0.09730 310787.520000
  11299  11301     1   0.10969 276646.080000
  11300  11302     1   0.10969 276646.080000
  11303  11307     1   0.10969 276646.080000
  11304  11306     1   0.10969 276646.080000
  11305  11308     1   0.10961 277566.560000
  11310  11316     1   0.09730 310787.520000
  11311  11314     1   0.09730 310787.520000
  11312  11315     1   0.09730 310787.520000
  11313  11317     1   0.10969 276646.080000
  11313  11318     1   0.10969 276646.080000
  11319  11320     1   0.09730 310787.520000
  11322  11324     1   0.10969 276646.080000
  11323  11325     1   0.10969 276646.080000
  11326  11330     1   0.10969 276646.080000
  11327  11329     1   0.10969 276646.080000
  11328  11331     1   0.10961 277566.560000
  11333  11339     1   0.09730 310787.520000
  11334  11337     1   0.09730 310787.520000
  11335  11338     1   0.09730 310787.520000
  11336  11340     1   0.10969 276646.080000
  11336  11341     1   0.10969 276646.080000
  11342  11343     1   0.09730 310787.520000
  11345  11347     1   0.10969 276646.080000
  11346  11348     1   0.10969 276646.080000
  11349  11353     1   0.10969 276646.080000
  11350  11352     1   0.10969 276646.080000
  11351  11354     1   0.10961 277566.560000
  11356  11362     1   0.09730 310787.520000
  11357  11360     1   0.09730 310787.520000
  11358  11361     1   0.09730 310787.520000
  11359  11363     1   0.10969 276646.080000
  11359  11364     1   0.10969 276646.080000
  11365  11366     1   0.09730 310787.520000
  11368  11370     1   0.10969 276646.080000
  11369  11371     1   0.10969 276646.080000
  11372  11376     1   0.10969 276646.080000
  11373  11375     1   0.10969 276646.080000
  11374  11377     1   0.10961 277566.560000
  11379  11385     1   0.09730 310787.520000
  11380  11383     1   0.09730 310787.520000
  11381  11384     1   0.09730 310787.520000
  11382  11386     1   0.10969 276646.080000
  11382  11387     1   0.10969 276646.080000
  11388  11389     1   0.09730 310787.520000
  11391  11393     1   0.10969 276646.080000
  11392  11394     1   0.10969 276646.080000
  11395  11399     1   0.10969 276646.080000
  11396  11398     1   0.10969 276646.080000
  11397  11400     1   0.10961 277566.560000
  11402  11408     1   0.09730 310787.520000
  11403  11406     1   0.09730 310787.520000
  11404  11407     1   0.09730 310787.520000
  11405  11409     1   0.10969 276646.080000
  11405  11410     1   0.10969 276646.080000
  11411  11412     1   0.09730 310787.520000
  11414  11416     1   0.10969 276646.080000
  11415  11417     1   0.10969 276646.080000
  11418  11422     1   0.10969 276646.080000
  11419  11421     1   0.10969 276646.080000
  11420  11423     1   0.10961 277566.560000
  11425  11431     1   0.09730 310787.520000
  11426  11429     1   0.09730 310787.520000
  11427  11430     1   0.09730 310787.520000
  11428  11432     1   0.10969 276646.080000
  11428  11433     1   0.10969 276646.080000
  11434  11435     1   0.09730 310787.520000
  11437  11439     1   0.10969 276646.080000
  11438  11440     1   0.10969 276646.080000
  11441  11445     1   0.10969 276646.080000
  11442  11444     1   0.10969 276646.080000
  11443  11446     1   0.10961 277566.560000
  11448  11454     1   0.09730 310787.520000
  11449  11452     1   0.09730 310787.520000
  11450  11453     1   0.09730 310787.520000
  11451  11455     1   0.10969 276646.080000
  11451  11456     1   0.10969 276646.080000
  11457  11458     1   0.09730 310787.520000
  11460  11462     1   0.10969 276646.080000
  11461  11463     1   0.10969 276646.080000
  11464  11468     1   0.10969 276646.080000
  11465  11467     1   0.10969 276646.080000
  11466  11469     1   0.10961 277566.560000
  11471  11477     1   0.09730 310787.520000
  11472  11475     1   0.09730 310787.520000
  11473  11476     1   0.09730 310787.520000
  11474  11478     1   0.10969 276646.080000
  11474  11479     1   0.10969 276646.080000
  11480  11481     1   0.09730 310787.520000
  11483  11485     1   0.10969 276646.080000
  11484  11486     1   0.10969 276646.080000
  11487  11491     1   0.10969 276646.080000
  11488  11490     1   0.10969 276646.080000
  11489  11492     1   0.10961 277566.560000
  11494  11500     1   0.09730 310787.520000
  11495  11498     1   0.09730 310787.520000
  11496  11499     1   0.09730 310787.520000
  11497  11501     1   0.10969 276646.080000
  11497  11502     1   0.10969 276646.080000
  11503  11504     1   0.09730 310787.520000
  11506  11508     1   0.10969 276646.080000
  11507  11509     1   0.10969 276646.080000
  11510  11514     1   0.10969 276646.080000
  11511  11513     1   0.10969 276646.080000
  11512  11515     1   0.10961 277566.560000
  11517  11523     1   0.09730 310787.520000
  11518  11521     1   0.09730 310787.520000
  11519  11522     1   0.09730 310787.520000
  11520  11524     1   0.10969 276646.080000
  11520  11525     1   0.10969 276646.080000
  11526  11527     1   0.09730 310787.520000
  11529  11531     1   0.10969 276646.080000
  11530  11532     1   0.10969 276646.080000
  11533  11537     1   0.10969 276646.080000
  11534  11536     1   0.10969 276646.080000
  11535  11538     1   0.10961 277566.560000
  11540  11546     1   0.09730 310787.520000
  11541  11544     1   0.09730 310787.520000
  11542  11545     1   0.09730 310787.520000
  11543  11547     1   0.10969 276646.080000
  11543  11548     1   0.10969 276646.080000
  11549  11550     1   0.09730 310787.520000
  11552  11554     1   0.10969 276646.080000
  11553  11555     1   0.10969 276646.080000
  11556  11560     1   0.10969 276646.080000
  11557  11559     1   0.10969 276646.080000
  11558  11561     1   0.10961 277566.560000
  11563  11569     1   0.09730 310787.520000
  11564  11567     1   0.09730 310787.520000
  11565  11568     1   0.09730 310787.520000
  11566  11570     1   0.10969 276646.080000
  11566  11571     1   0.10969 276646.080000
  11572  11573     1   0.09730 310787.520000
  11575  11577     1   0.10969 276646.080000
  11576  11578     1   0.10969 276646.080000
  11579  11583     1   0.10969 276646.080000
  11580  11582     1   0.10969 276646.080000
  11581  11584     1   0.10961 277566.560000
  11586  11592     1   0.09730 310787.520000
  11587  11590     1   0.09730 310787.520000
  11588  11591     1   0.09730 310787.520000
  11589  11593     1   0.10969 276646.080000
  11589  11594     1   0.10969 276646.080000
  11595  11596     1   0.09730 310787.520000
  11598  11600     1   0.10969 276646.080000
  11599  11601     1   0.10969 276646.080000
  11602  11606     1   0.10969 276646.080000
  11603  11605     1   0.10969 276646.080000
  11604  11607     1   0.10961 277566.560000
  11609  11615     1   0.09730 310787.520000
  11610  11613     1   0.09730 310787.520000
  11611  11614     1   0.09730 310787.520000
  11612  11616     1   0.10969 276646.080000
  11612  11617     1   0.10969 276646.080000
  11618  11619     1   0.09730 310787.520000
  11621  11623     1   0.10969 276646.080000
  11622  11624     1   0.10969 276646.080000
  11625  11629     1   0.10969 276646.080000
  11626  11628     1   0.10969 276646.080000
  11627  11630     1   0.10961 277566.560000
  11632  11638     1   0.09730 310787.520000
  11633  11636     1   0.09730 310787.520000
  11634  11637     1   0.09730 310787.520000
  11635  11639     1   0.10969 276646.080000
  11635  11640     1   0.10969 276646.080000
  11641  11642     1   0.09730 310787.520000
  11644  11646     1   0.10969 276646.080000
  11645  11647     1   0.10969 276646.080000
  11648  11652     1   0.10969 276646.080000
  11649  11651     1   0.10969 276646.080000
  11650  11653     1   0.10961 277566.560000
  11655  11661     1   0.09730 310787.520000
  11656  11659     1   0.09730 310787.520000
  11657  11660     1   0.09730 310787.520000
  11658  11662     1   0.10969 276646.080000
  11658  11663     1   0.10969 276646.080000
  11664  11665     1   0.09730 310787.520000
  11667  11669     1   0.10969 276646.080000
  11668  11670     1   0.10969 276646.080000
  11671  11675     1   0.10969 276646.080000
  11672  11674     1   0.10969 276646.080000
  11673  11676     1   0.10961 277566.560000
  11678  11684     1   0.09730 310787.520000
  11679  11682     1   0.09730 310787.520000
  11680  11683     1   0.09730 310787.520000
  11681  11685     1   0.10969 276646.080000
  11681  11686     1   0.10969 276646.080000
  11687  11688     1   0.09730 310787.520000
  11690  11692     1   0.10969 276646.080000
  11691  11693     1   0.10969 276646.080000
  11694  11698     1   0.10969 276646.080000
  11695  11697     1   0.10969 276646.080000
  11696  11699     1   0.10961 277566.560000
  11701  11707     1   0.09730 310787.520000
  11702  11705     1   0.09730 310787.520000
  11703  11706     1   0.09730 310787.520000
  11704  11708     1   0.10969 276646.080000
  11704  11709     1   0.10969 276646.080000
  11710  11711     1   0.09730 310787.520000
  11713  11715     1   0.10969 276646.080000
  11714  11716     1   0.10969 276646.080000
  11717  11721     1   0.10969 276646.080000
  11718  11720     1   0.10969 276646.080000
  11719  11722     1   0.10961 277566.560000
  11724  11730     1   0.09730 310787.520000
  11725  11728     1   0.09730 310787.520000
  11726  11729     1   0.09730 310787.520000
  11727  11731     1   0.10969 276646.080000
  11727  11732     1   0.10969 276646.080000
  11733  11734     1   0.09730 310787.520000
  11736  11738     1   0.10969 276646.080000
  11737  11739     1   0.10969 276646.080000
  11740  11744     1   0.10969 276646.080000
  11741  11743     1   0.10969 276646.080000
  11742  11745     1   0.10961 277566.560000
  11747  11753     1   0.09730 310787.520000
  11748  11751     1   0.09730 310787.520000
  11749  11752     1   0.09730 310787.520000
  11750  11754     1   0.10969 276646.080000
  11750  11755     1   0.10969 276646.080000
  11756  11757     1   0.09730 310787.520000
  11759  11761     1   0.10969 276646.080000
  11760  11762     1   0.10969 276646.080000
  11763  11767     1   0.10969 276646.080000
  11764  11766     1   0.10969 276646.080000
  11765  11768     1   0.10961 277566.560000
  11770  11776     1   0.09730 310787.520000
  11771  11774     1   0.09730 310787.520000
  11772  11775     1   0.09730 310787.520000
  11773  11777     1   0.10969 276646.080000
  11773  11778     1   0.10969 276646.080000
  11779  11780     1   0.09730 310787.520000
  11782  11784     1   0.10969 276646.080000
  11783  11785     1   0.10969 276646.080000
  11786  11790     1   0.10969 276646.080000
  11787  11789     1   0.10969 276646.080000
  11788  11791     1   0.10961 277566.560000
  11793  11799     1   0.09730 310787.520000
  11794  11797     1   0.09730 310787.520000
  11795  11798     1   0.09730 310787.520000
  11796  11800     1   0.10969 276646.080000
  11796  11801     1   0.10969 276646.080000
  11802  11803     1   0.09730 310787.520000
  11805  11807     1   0.10969 276646.080000
  11806  11808     1   0.10969 276646.080000
  11809  11813     1   0.10969 276646.080000
  11810  11812     1   0.10969 276646.080000
  11811  11814     1   0.10961 277566.560000
  11816  11822     1   0.09730 310787.520000
  11817  11820     1   0.09730 310787.520000
  11818  11821     1   0.09730 310787.520000
  11819  11823     1   0.10969 276646.080000
  11819  11824     1   0.10969 276646.080000
  11825  11826     1   0.09730 310787.520000
  11828  11830     1   0.10969 276646.080000
  11829  11831     1   0.10969 276646.080000
  11832  11836     1   0.10969 276646.080000
  11833  11835     1   0.10969 276646.080000
  11834  11837     1   0.10961 277566.560000
  11839  11845     1   0.09730 310787.520000
  11840  11843     1   0.09730 310787.520000
  11841  11844     1   0.09730 310787.520000
  11842  11846     1   0.10969 276646.080000
  11842  11847     1   0.10969 276646.080000
  11848  11849     1   0.09730 310787.520000
  11851  11853     1   0.10969 276646.080000
  11852  11854     1   0.10969 276646.080000
  11855  11859     1   0.10969 276646.080000
  11856  11858     1   0.10969 276646.080000
  11857  11860     1   0.10961 277566.560000
  11862  11868     1   0.09730 310787.520000
  11863  11866     1   0.09730 310787.520000
  11864  11867     1   0.09730 310787.520000
  11865  11869     1   0.10969 276646.080000
  11865  11870     1   0.10969 276646.080000
  11871  11872     1   0.09730 310787.520000
  11874  11876     1   0.10969 276646.080000
  11875  11877     1   0.10969 276646.080000
  11878  11882     1   0.10969 276646.080000
  11879  11881     1   0.10969 276646.080000
  11880  11883     1   0.10961 277566.560000
  11885  11891     1   0.09730 310787.520000
  11886  11889     1   0.09730 310787.520000
  11887  11890     1   0.09730 310787.520000
  11888  11892     1   0.10969 276646.080000
  11888  11893     1   0.10969 276646.080000
  11894  11895     1   0.09730 310787.520000
  11897  11899     1   0.10969 276646.080000
  11898  11900     1   0.10969 276646.080000
  11901  11905     1   0.10969 276646.080000
  11902  11904     1   0.10969 276646.080000
  11903  11906     1   0.10961 277566.560000
  11908  11914     1   0.09730 310787.520000
  11909  11912     1   0.09730 310787.520000
  11910  11913     1   0.09730 310787.520000
  11911  11915     1   0.10969 276646.080000
  11911  11916     1   0.10969 276646.080000
  11917  11918     1   0.09730 310787.520000
  11920  11922     1   0.10969 276646.080000
  11921  11923     1   0.10969 276646.080000
  11924  11928     1   0.10969 276646.080000
  11925  11927     1   0.10969 276646.080000
  11926  11929     1   0.10961 277566.560000
  11931  11937     1   0.09730 310787.520000
  11932  11935     1   0.09730 310787.520000
  11933  11936     1   0.09730 310787.520000
  11934  11938     1   0.10969 276646.080000
  11934  11939     1   0.10969 276646.080000
  11940  11941     1   0.09730 310787.520000
  11943  11945     1   0.10969 276646.080000
  11944  11946     1   0.10969 276646.080000
  11947  11951     1   0.10969 276646.080000
  11948  11950     1   0.10969 276646.080000
  11949  11952     1   0.10961 277566.560000
  11954  11960     1   0.09730 310787.520000
  11955  11958     1   0.09730 310787.520000
  11956  11959     1   0.09730 310787.520000
  11957  11961     1   0.10969 276646.080000
  11957  11962     1   0.10969 276646.080000
  11963  11964     1   0.09730 310787.520000
  11966  11968     1   0.10969 276646.080000
  11967  11969     1   0.10969 276646.080000
  11970  11974     1   0.10969 276646.080000
  11971  11973     1   0.10969 276646.080000
  11972  11975     1   0.10961 277566.560000
  11977  11983     1   0.09730 310787.520000
  11978  11981     1   0.09730 310787.520000
  11979  11982     1   0.09730 310787.520000
  11980  11984     1   0.10969 276646.080000
  11980  11985     1   0.10969 276646.080000
  11986  11987     1   0.09730 310787.520000
  11989  11991     1   0.10969 276646.080000
  11990  11992     1   0.10969 276646.080000
  11993  11997     1   0.10969 276646.080000
  11994  11996     1   0.10969 276646.080000
  11995  11998     1   0.10961 277566.560000
  12000  12006     1   0.09730 310787.520000
  12001  12004     1   0.09730 310787.520000
  12002  12005     1   0.09730 310787.520000
  12003  12007     1   0.10969 276646.080000
  12003  12008     1   0.10969 276646.080000
  12009  12010     1   0.09730 310787.520000
  12012  12014     1   0.10969 276646.080000
  12013  12015     1   0.10969 276646.080000
  12016  12020     1   0.10969 276646.080000
  12017  12019     1   0.10969 276646.080000
  12018  12021     1   0.10961 277566.560000
  12023  12029     1   0.09730 310787.520000
  12024  12027     1   0.09730 310787.520000
  12025  12028     1   0.09730 310787.520000
  12026  12030     1   0.10969 276646.080000
  12026  12031     1   0.10969 276646.080000
  12032  12033     1   0.09730 310787.520000
  12035  12037     1   0.10969 276646.080000
  12036  12038     1   0.10969 276646.080000
  12039  12043     1   0.10969 276646.080000
  12040  12042     1   0.10969 276646.080000
  12041  12044     1   0.10961 277566.560000
  12046  12052     1   0.09730 310787.520000
  12047  12050     1   0.09730 310787.520000
  12048  12051     1   0.09730 310787.520000
  12049  12053     1   0.10969 276646.080000
  12049  12054     1   0.10969 276646.080000
  12055  12056     1   0.09730 310787.520000
  12058  12060     1   0.10969 276646.080000
  12059  12061     1   0.10969 276646.080000
  12062  12066     1   0.10969 276646.080000
  12063  12065     1   0.10969 276646.080000
  12064  12067     1   0.10961 277566.560000
  12069  12075     1   0.09730 310787.520000
  12070  12073     1   0.09730 310787.520000
  12071  12074     1   0.09730 310787.520000
  12072  12076     1   0.10969 276646.080000
  12072  12077     1   0.10969 276646.080000
  12078  12079     1   0.09730 310787.520000
  12081  12083     1   0.10969 276646.080000
  12082  12084     1   0.10969 276646.080000
  12085  12089     1   0.10969 276646.080000
  12086  12088     1   0.10969 276646.080000
  12087  12090     1   0.10961 277566.560000
  12092  12098     1   0.09730 310787.520000
  12093  12096     1   0.09730 310787.520000
  12094  12097     1   0.09730 310787.520000
  12095  12099     1   0.10969 276646.080000
  12095  12100     1   0.10969 276646.080000
  12101  12102     1   0.09730 310787.520000
  12104  12106     1   0.10969 276646.080000
  12105  12107     1   0.10969 276646.080000
  12108  12112     1   0.10969 276646.080000
  12109  12111     1   0.10969 276646.080000
  12110  12113     1   0.10961 277566.560000
  12115  12121     1   0.09730 310787.520000
  12116  12119     1   0.09730 310787.520000
  12117  12120     1   0.09730 310787.520000
  12118  12122     1   0.10969 276646.080000
  12118  12123     1   0.10969 276646.080000
  12124  12125     1   0.09730 310787.520000
  12127  12129     1   0.10969 276646.080000
  12128  12130     1   0.10969 276646.080000
  12131  12135     1   0.10969 276646.080000
  12132  12134     1   0.10969 276646.080000
  12133  12136     1   0.10961 277566.560000
  12138  12144     1   0.09730 310787.520000
  12139  12142     1   0.09730 310787.520000
  12140  12143     1   0.09730 310787.520000
  12141  12145     1   0.10969 276646.080000
  12141  12146     1   0.10969 276646.080000
  12147  12148     1   0.09730 310787.520000
  12150  12152     1   0.10969 276646.080000
  12151  12153     1   0.10969 276646.080000
  12154  12158     1   0.10969 276646.080000
  12155  12157     1   0.10969 276646.080000
  12156  12159     1   0.10961 277566.560000
  12161  12167     1   0.09730 310787.520000
  12162  12165     1   0.09730 310787.520000
  12163  12166     1   0.09730 310787.520000
  12164  12168     1   0.10969 276646.080000
  12164  12169     1   0.10969 276646.080000
  12170  12171     1   0.09730 310787.520000
  12173  12175     1   0.10969 276646.080000
  12174  12176     1   0.10969 276646.080000
  12177  12181     1   0.10969 276646.080000
  12178  12180     1   0.10969 276646.080000
  12179  12182     1   0.10961 277566.560000
  12184  12190     1   0.09730 310787.520000
  12185  12188     1   0.09730 310787.520000
  12186  12189     1   0.09730 310787.520000
  12187  12191     1   0.10969 276646.080000
  12187  12192     1   0.10969 276646.080000
  12193  12194     1   0.09730 310787.520000
  12196  12198     1   0.10969 276646.080000
  12197  12199     1   0.10969 276646.080000
  12200  12204     1   0.10969 276646.080000
  12201  12203     1   0.10969 276646.080000
  12202  12205     1   0.10961 277566.560000
  12207  12213     1   0.09730 310787.520000
  12208  12211     1   0.09730 310787.520000
  12209  12212     1   0.09730 310787.520000
  12210  12214     1   0.10969 276646.080000
  12210  12215     1   0.10969 276646.080000
  12216  12217     1   0.09730 310787.520000
  12219  12221     1   0.10969 276646.080000
  12220  12222     1   0.10969 276646.080000
  12223  12227     1   0.10969 276646.080000
  12224  12226     1   0.10969 276646.080000
  12225  12228     1   0.10961 277566.560000
  12230  12236     1   0.09730 310787.520000
  12231  12234     1   0.09730 310787.520000
  12232  12235     1   0.09730 310787.520000
  12233  12237     1   0.10969 276646.080000
  12233  12238     1   0.10969 276646.080000
  12239  12240     1   0.09730 310787.520000
  12242  12244     1   0.10969 276646.080000
  12243  12245     1   0.10969 276646.080000
  12246  12250     1   0.10969 276646.080000
  12247  12249     1   0.10969 276646.080000
  12248  12251     1   0.10961 277566.560000
  12253  12259     1   0.09730 310787.520000
  12254  12257     1   0.09730 310787.520000
  12255  12258     1   0.09730 310787.520000
  12256  12260     1   0.10969 276646.080000
  12256  12261     1   0.10969 276646.080000
  12262  12263     1   0.09730 310787.520000
  12265  12267     1   0.10969 276646.080000
  12266  12268     1   0.10969 276646.080000
  12269  12273     1   0.10969 276646.080000
  12270  12272     1   0.10969 276646.080000
  12271  12274     1   0.10961 277566.560000
  12276  12282     1   0.09730 310787.520000
  12277  12280     1   0.09730 310787.520000
  12278  12281     1   0.09730 310787.520000
  12279  12283     1   0.10969 276646.080000
  12279  12284     1   0.10969 276646.080000
  12285  12286     1   0.09730 310787.520000
  12288  12290     1   0.10969 276646.080000
  12289  12291     1   0.10969 276646.080000
  12292  12296     1   0.10969 276646.080000
  12293  12295     1   0.10969 276646.080000
  12294  12297     1   0.10961 277566.560000
  12299  12305     1   0.09730 310787.520000
  12300  12303     1   0.09730 310787.520000
  12301  12304     1   0.09730 310787.520000
  12302  12306     1   0.10969 276646.080000
  12302  12307     1   0.10969 276646.080000
  12308  12309     1   0.09730 310787.520000
  12311  12313     1   0.10969 276646.080000
  12312  12314     1   0.10969 276646.080000
  12315  12319     1   0.10969 276646.080000
  12316  12318     1   0.10969 276646.080000
  12317  12320     1   0.10961 277566.560000
  12322  12328     1   0.09730 310787.520000
  12323  12326     1   0.09730 310787.520000
  12324  12327     1   0.09730 310787.520000
  12325  12329     1   0.10969 276646.080000
  12325  12330     1   0.10969 276646.080000
  12331  12332     1   0.09730 310787.520000
  12334  12336     1   0.10969 276646.080000
  12335  12337     1   0.10969 276646.080000
  12338  12342     1   0.10969 276646.080000
  12339  12341     1   0.10969 276646.080000
  12340  12343     1   0.10961 277566.560000
  12345  12351     1   0.09730 310787.520000
  12346  12349     1   0.09730 310787.520000
  12347  12350     1   0.09730 310787.520000
  12348  12352     1   0.10969 276646.080000
  12348  12353     1   0.10969 276646.080000
  12354  12355     1   0.09730 310787.520000
  12357  12359     1   0.10969 276646.080000
  12358  12360     1   0.10969 276646.080000
  12361  12365     1   0.10969 276646.080000
  12362  12364     1   0.10969 276646.080000
  12363  12366     1   0.10961 277566.560000
  12368  12374     1   0.09730 310787.520000
  12369  12372     1   0.09730 310787.520000
  12370  12373     1   0.09730 310787.520000
  12371  12375     1   0.10969 276646.080000
  12371  12376     1   0.10969 276646.080000
  12377  12378     1   0.09730 310787.520000
  12380  12382     1   0.10969 276646.080000
  12381  12383     1   0.10969 276646.080000
  12384  12388     1   0.10969 276646.080000
  12385  12387     1   0.10969 276646.080000
  12386  12389     1   0.10961 277566.560000
  12391  12397     1   0.09730 310787.520000
  12392  12395     1   0.09730 310787.520000
  12393  12396     1   0.09730 310787.520000
  12394  12398     1   0.10969 276646.080000
  12394  12399     1   0.10969 276646.080000
  12400  12401     1   0.09730 310787.520000
  12403  12405     1   0.10969 276646.080000
  12404  12406     1   0.10969 276646.080000
  12407  12411     1   0.10969 276646.080000
  12408  12410     1   0.10969 276646.080000
  12409  12412     1   0.10961 277566.560000
  12414  12420     1   0.09730 310787.520000
  12415  12418     1   0.09730 310787.520000
  12416  12419     1   0.09730 310787.520000
  12417  12421     1   0.10969 276646.080000
  12417  12422     1   0.10969 276646.080000
  12423  12424     1   0.09730 310787.520000
  12426  12428     1   0.10969 276646.080000
  12427  12429     1   0.10969 276646.080000
  12430  12434     1   0.10969 276646.080000
  12431  12433     1   0.10969 276646.080000
  12432  12435     1   0.10961 277566.560000
  12437  12443     1   0.09730 310787.520000
  12438  12441     1   0.09730 310787.520000
  12439  12442     1   0.09730 310787.520000
  12440  12444     1   0.10969 276646.080000
  12440  12445     1   0.10969 276646.080000
  12446  12447     1   0.09730 310787.520000
  12449  12451     1   0.10969 276646.080000
  12450  12452     1   0.10969 276646.080000
  12453  12457     1   0.10969 276646.080000
  12454  12456     1   0.10969 276646.080000
  12455  12458     1   0.10961 277566.560000
  12460  12466     1   0.09730 310787.520000
  12461  12464     1   0.09730 310787.520000
  12462  12465     1   0.09730 310787.520000
  12463  12467     1   0.10969 276646.080000
  12463  12468     1   0.10969 276646.080000
  12469  12470     1   0.09730 310787.520000
  12472  12474     1   0.10969 276646.080000
  12473  12475     1   0.10969 276646.080000
  12476  12480     1   0.10969 276646.080000
  12477  12479     1   0.10969 276646.080000
  12478  12481     1   0.10961 277566.560000
  12483  12489     1   0.09730 310787.520000
  12484  12487     1   0.09730 310787.520000
  12485  12488     1   0.09730 310787.520000
  12486  12490     1   0.10969 276646.080000
  12486  12491     1   0.10969 276646.080000
  12492  12493     1   0.09730 310787.520000
  12495  12497     1   0.10969 276646.080000
  12496  12498     1   0.10969 276646.080000
  12499  12503     1   0.10969 276646.080000
  12500  12502     1   0.10969 276646.080000
  12501  12504     1   0.10961 277566.560000
  12506  12512     1   0.09730 310787.520000
  12507  12510     1   0.09730 310787.520000
  12508  12511     1   0.09730 310787.520000
  12509  12513     1   0.10969 276646.080000
  12509  12514     1   0.10969 276646.080000
  12515  12516     1   0.09730 310787.520000
  12518  12520     1   0.10969 276646.080000
  12519  12521     1   0.10969 276646.080000
  12522  12526     1   0.10969 276646.080000
  12523  12525     1   0.10969 276646.080000
  12524  12527     1   0.10961 277566.560000
  12529  12535     1   0.09730 310787.520000
  12530  12533     1   0.09730 310787.520000
  12531  12534     1   0.09730 310787.520000
  12532  12536     1   0.10969 276646.080000
  12532  12537     1   0.10969 276646.080000
  12538  12539     1   0.09730 310787.520000
  12541  12543     1   0.10969 276646.080000
  12542  12544     1   0.10969 276646.080000
  12545  12549     1   0.10969 276646.080000
  12546  12548     1   0.10969 276646.080000
  12547  12550     1   0.10961 277566.560000
  12552  12558     1   0.09730 310787.520000
  12553  12556     1   0.09730 310787.520000
  12554  12557     1   0.09730 310787.520000
  12555  12559     1   0.10969 276646.080000
  12555  12560     1   0.10969 276646.080000
  12561  12562     1   0.09730 310787.520000
  12564  12566     1   0.10969 276646.080000
  12565  12567     1   0.10969 276646.080000
  12568  12572     1   0.10969 276646.080000
  12569  12571     1   0.10969 276646.080000
  12570  12573     1   0.10961 277566.560000
  12575  12581     1   0.09730 310787.520000
  12576  12579     1   0.09730 310787.520000
  12577  12580     1   0.09730 310787.520000
  12578  12582     1   0.10969 276646.080000
  12578  12583     1   0.10969 276646.080000
  12584  12585     1   0.09730 310787.520000
  12587  12589     1   0.10969 276646.080000
  12588  12590     1   0.10969 276646.080000
  12591  12595     1   0.10969 276646.080000
  12592  12594     1   0.10969 276646.080000
  12593  12596     1   0.10961 277566.560000
  12598  12604     1   0.09730 310787.520000
  12599  12602     1   0.09730 310787.520000
  12600  12603     1   0.09730 310787.520000
  12601  12605     1   0.10969 276646.080000
  12601  12606     1   0.10969 276646.080000
  12607  12608     1   0.09730 310787.520000
  12610  12612     1   0.10969 276646.080000
  12611  12613     1   0.10969 276646.080000
  12614  12618     1   0.10969 276646.080000
  12615  12617     1   0.10969 276646.080000
  12616  12619     1   0.10961 277566.560000
  12621  12627     1   0.09730 310787.520000
  12622  12625     1   0.09730 310787.520000
  12623  12626     1   0.09730 310787.520000
  12624  12628     1   0.10969 276646.080000
  12624  12629     1   0.10969 276646.080000
  12630  12631     1   0.09730 310787.520000
  12633  12635     1   0.10969 276646.080000
  12634  12636     1   0.10969 276646.080000
  12637  12641     1   0.10969 276646.080000
  12638  12640     1   0.10969 276646.080000
  12639  12642     1   0.10961 277566.560000
  12644  12650     1   0.09730 310787.520000
  12645  12648     1   0.09730 310787.520000
  12646  12649     1   0.09730 310787.520000
  12647  12651     1   0.10969 276646.080000
  12647  12652     1   0.10969 276646.080000
  12653  12654     1   0.09730 310787.520000
  12656  12658     1   0.10969 276646.080000
  12657  12659     1   0.10969 276646.080000
  12660  12664     1   0.10969 276646.080000
  12661  12663     1   0.10969 276646.080000
  12662  12665     1   0.10961 277566.560000
  12667  12673     1   0.09730 310787.520000
  12668  12671     1   0.09730 310787.520000
  12669  12672     1   0.09730 310787.520000
  12670  12674     1   0.10969 276646.080000
  12670  12675     1   0.10969 276646.080000
  12676  12677     1   0.09730 310787.520000
  12679  12681     1   0.10969 276646.080000
  12680  12682     1   0.10969 276646.080000
  12683  12687     1   0.10969 276646.080000
  12684  12686     1   0.10969 276646.080000
  12685  12688     1   0.10961 277566.560000
  12690  12696     1   0.09730 310787.520000
  12691  12694     1   0.09730 310787.520000
  12692  12695     1   0.09730 310787.520000
  12693  12697     1   0.10969 276646.080000
  12693  12698     1   0.10969 276646.080000
  12699  12700     1   0.09730 310787.520000
  12702  12704     1   0.10969 276646.080000
  12703  12705     1   0.10969 276646.080000
  12706  12710     1   0.10969 276646.080000
  12707  12709     1   0.10969 276646.080000
  12708  12711     1   0.10961 277566.560000
  12713  12719     1   0.09730 310787.520000
  12714  12717     1   0.09730 310787.520000
  12715  12718     1   0.09730 310787.520000
  12716  12720     1   0.10969 276646.080000
  12716  12721     1   0.10969 276646.080000
  12722  12723     1   0.09730 310787.520000
  12725  12727     1   0.10969 276646.080000
  12726  12728     1   0.10969 276646.080000
  12729  12733     1   0.10969 276646.080000
  12730  12732     1   0.10969 276646.080000
  12731  12734     1   0.10961 277566.560000
  12736  12742     1   0.09730 310787.520000
  12737  12740     1   0.09730 310787.520000
  12738  12741     1   0.09730 310787.520000
  12739  12743     1   0.10969 276646.080000
  12739  12744     1   0.10969 276646.080000
  12745  12746     1   0.09730 310787.520000
  12748  12750     1   0.10969 276646.080000
  12749  12751     1   0.10969 276646.080000
  12752  12756     1   0.10969 276646.080000
  12753  12755     1   0.10969 276646.080000
  12754  12757     1   0.10961 277566.560000
  12759  12765     1   0.09730 310787.520000
  12760  12763     1   0.09730 310787.520000
  12761  12764     1   0.09730 310787.520000
  12762  12766     1   0.10969 276646.080000
  12762  12767     1   0.10969 276646.080000
  12768  12769     1   0.09730 310787.520000
  12771  12773     1   0.10969 276646.080000
  12772  12774     1   0.10969 276646.080000
  12775  12779     1   0.10969 276646.080000
  12776  12778     1   0.10969 276646.080000
  12777  12780     1   0.10961 277566.560000
  12782  12788     1   0.09730 310787.520000
  12783  12786     1   0.09730 310787.520000
  12784  12787     1   0.09730 310787.520000
  12785  12789     1   0.10969 276646.080000
  12785  12790     1   0.10969 276646.080000
  12791  12792     1   0.09730 310787.520000
  12794  12796     1   0.10969 276646.080000
  12795  12797     1   0.10969 276646.080000
  12798  12802     1   0.10969 276646.080000
  12799  12801     1   0.10969 276646.080000
  12800  12803     1   0.10961 277566.560000
  12805  12811     1   0.09730 310787.520000
  12806  12809     1   0.09730 310787.520000
  12807  12810     1   0.09730 310787.520000
  12808  12812     1   0.10969 276646.080000
  12808  12813     1   0.10969 276646.080000
  12814  12815     1   0.09730 310787.520000
  12817  12819     1   0.10969 276646.080000
  12818  12820     1   0.10969 276646.080000
  12821  12825     1   0.10969 276646.080000
  12822  12824     1   0.10969 276646.080000
  12823  12826     1   0.10961 277566.560000
  12828  12834     1   0.09730 310787.520000
  12829  12832     1   0.09730 310787.520000
  12830  12833     1   0.09730 310787.520000
  12831  12835     1   0.10969 276646.080000
  12831  12836     1   0.10969 276646.080000
  12837  12838     1   0.09730 310787.520000
  12840  12842     1   0.10969 276646.080000
  12841  12843     1   0.10969 276646.080000
  12844  12848     1   0.10969 276646.080000
  12845  12847     1   0.10969 276646.080000
  12846  12849     1   0.10961 277566.560000
  12851  12857     1   0.09730 310787.520000
  12852  12855     1   0.09730 310787.520000
  12853  12856     1   0.09730 310787.520000
  12854  12858     1   0.10969 276646.080000
  12854  12859     1   0.10969 276646.080000
  12860  12861     1   0.09730 310787.520000
  12863  12865     1   0.10969 276646.080000
  12864  12866     1   0.10969 276646.080000
  12867  12871     1   0.10969 276646.080000
  12868  12870     1   0.10969 276646.080000
  12869  12872     1   0.10961 277566.560000
  12874  12880     1   0.09730 310787.520000
  12875  12878     1   0.09730 310787.520000
  12876  12879     1   0.09730 310787.520000
  12877  12881     1   0.10969 276646.080000
  12877  12882     1   0.10969 276646.080000
  12883  12884     1   0.09730 310787.520000
  12886  12888     1   0.10969 276646.080000
  12887  12889     1   0.10969 276646.080000
  12890  12894     1   0.10969 276646.080000
  12891  12893     1   0.10969 276646.080000
  12892  12895     1   0.10961 277566.560000
  12897  12903     1   0.09730 310787.520000
  12898  12901     1   0.09730 310787.520000
  12899  12902     1   0.09730 310787.520000
  12900  12904     1   0.10969 276646.080000
  12900  12905     1   0.10969 276646.080000
  12906  12907     1   0.09730 310787.520000
  12909  12911     1   0.10969 276646.080000
  12910  12912     1   0.10969 276646.080000
  12913  12917     1   0.10969 276646.080000
  12914  12916     1   0.10969 276646.080000
  12915  12918     1   0.10961 277566.560000
  12920  12926     1   0.09730 310787.520000
  12921  12924     1   0.09730 310787.520000
  12922  12925     1   0.09730 310787.520000
  12923  12927     1   0.10969 276646.080000
  12923  12928     1   0.10969 276646.080000
  12929  12930     1   0.09730 310787.520000
  12932  12934     1   0.10969 276646.080000
  12933  12935     1   0.10969 276646.080000
  12936  12940     1   0.10969 276646.080000
  12937  12939     1   0.10969 276646.080000
  12938  12941     1   0.10961 277566.560000
  12943  12949     1   0.09730 310787.520000
  12944  12947     1   0.09730 310787.520000
  12945  12948     1   0.09730 310787.520000
  12946  12950     1   0.10969 276646.080000
  12946  12951     1   0.10969 276646.080000
  12952  12953     1   0.09730 310787.520000
  12955  12957     1   0.10969 276646.080000
  12956  12958     1   0.10969 276646.080000
  12959  12963     1   0.10969 276646.080000
  12960  12962     1   0.10969 276646.080000
  12961  12964     1   0.10961 277566.560000
  12966  12972     1   0.09730 310787.520000
  12967  12970     1   0.09730 310787.520000
  12968  12971     1   0.09730 310787.520000
  12969  12973     1   0.10969 276646.080000
  12969  12974     1   0.10969 276646.080000
  12975  12976     1   0.09730 310787.520000
  12978  12980     1   0.10969 276646.080000
  12979  12981     1   0.10969 276646.080000
  12982  12986     1   0.10969 276646.080000
  12983  12985     1   0.10969 276646.080000
  12984  12987     1   0.10961 277566.560000
  12989  12995     1   0.09730 310787.520000
  12990  12993     1   0.09730 310787.520000
  12991  12994     1   0.09730 310787.520000
  12992  12996     1   0.10969 276646.080000
  12992  12997     1   0.10969 276646.080000
  12998  12999     1   0.09730 310787.520000
  13001  13003     1   0.10969 276646.080000
  13002  13004     1   0.10969 276646.080000
  13005  13009     1   0.10969 276646.080000
  13006  13008     1   0.10969 276646.080000
  13007  13010     1   0.10961 277566.560000
  13012  13018     1   0.09730 310787.520000
  13013  13016     1   0.09730 310787.520000
  13014  13017     1   0.09730 310787.520000
  13015  13019     1   0.10969 276646.080000
  13015  13020     1   0.10969 276646.080000
  13021  13022     1   0.09730 310787.520000
  13024  13026     1   0.10969 276646.080000
  13025  13027     1   0.10969 276646.080000
  13028  13032     1   0.10969 276646.080000
  13029  13031     1   0.10969 276646.080000
  13030  13033     1   0.10961 277566.560000
  13035  13041     1   0.09730 310787.520000
  13036  13039     1   0.09730 310787.520000
  13037  13040     1   0.09730 310787.520000
  13038  13042     1   0.10969 276646.080000
  13038  13043     1   0.10969 276646.080000
  13044  13045     1   0.09730 310787.520000
  13047  13049     1   0.10969 276646.080000
  13048  13050     1   0.10969 276646.080000
  13051  13055     1   0.10969 276646.080000
  13052  13054     1   0.10969 276646.080000
  13053  13056     1   0.10961 277566.560000
  13058  13064     1   0.09730 310787.520000
  13059  13062     1   0.09730 310787.520000
  13060  13063     1   0.09730 310787.520000
  13061  13065     1   0.10969 276646.080000
  13061  13066     1   0.10969 276646.080000
  13067  13068     1   0.09730 310787.520000
  13070  13072     1   0.10969 276646.080000
  13071  13073     1   0.10969 276646.080000
  13074  13078     1   0.10969 276646.080000
  13075  13077     1   0.10969 276646.080000
  13076  13079     1   0.10961 277566.560000
  13081  13087     1   0.09730 310787.520000
  13082  13085     1   0.09730 310787.520000
  13083  13086     1   0.09730 310787.520000
  13084  13088     1   0.10969 276646.080000
  13084  13089     1   0.10969 276646.080000
  13090  13091     1   0.09730 310787.520000
  13093  13095     1   0.10969 276646.080000
  13094  13096     1   0.10969 276646.080000
  13097  13101     1   0.10969 276646.080000
  13098  13100     1   0.10969 276646.080000
  13099  13102     1   0.10961 277566.560000
  13104  13110     1   0.09730 310787.520000
  13105  13108     1   0.09730 310787.520000
  13106  13109     1   0.09730 310787.520000
  13107  13111     1   0.10969 276646.080000
  13107  13112     1   0.10969 276646.080000
  13113  13114     1   0.09730 310787.520000
  13116  13118     1   0.10969 276646.080000
  13117  13119     1   0.10969 276646.080000
  13120  13124     1   0.10969 276646.080000
  13121  13123     1   0.10969 276646.080000
  13122  13125     1   0.10961 277566.560000
  13127  13133     1   0.09730 310787.520000
  13128  13131     1   0.09730 310787.520000
  13129  13132     1   0.09730 310787.520000
  13130  13134     1   0.10969 276646.080000
  13130  13135     1   0.10969 276646.080000
  13136  13137     1   0.09730 310787.520000
  13139  13141     1   0.10969 276646.080000
  13140  13142     1   0.10969 276646.080000
  13143  13147     1   0.10969 276646.080000
  13144  13146     1   0.10969 276646.080000
  13145  13148     1   0.10961 277566.560000
  13150  13156     1   0.09730 310787.520000
  13151  13154     1   0.09730 310787.520000
  13152  13155     1   0.09730 310787.520000
  13153  13157     1   0.10969 276646.080000
  13153  13158     1   0.10969 276646.080000
  13159  13160     1   0.09730 310787.520000
  13162  13164     1   0.10969 276646.080000
  13163  13165     1   0.10969 276646.080000
  13166  13170     1   0.10969 276646.080000
  13167  13169     1   0.10969 276646.080000
  13168  13171     1   0.10961 277566.560000
  13173  13179     1   0.09730 310787.520000
  13174  13177     1   0.09730 310787.520000
  13175  13178     1   0.09730 310787.520000
  13176  13180     1   0.10969 276646.080000
  13176  13181     1   0.10969 276646.080000
  13182  13183     1   0.09730 310787.520000
  13185  13187     1   0.10969 276646.080000
  13186  13188     1   0.10969 276646.080000
  13189  13193     1   0.10969 276646.080000
  13190  13192     1   0.10969 276646.080000
  13191  13194     1   0.10961 277566.560000
  13196  13202     1   0.09730 310787.520000
  13197  13200     1   0.09730 310787.520000
  13198  13201     1   0.09730 310787.520000
  13199  13203     1   0.10969 276646.080000
  13199  13204     1   0.10969 276646.080000
  13205  13206     1   0.09730 310787.520000
  13208  13210     1   0.10969 276646.080000
  13209  13211     1   0.10969 276646.080000
  13212  13216     1   0.10969 276646.080000
  13213  13215     1   0.10969 276646.080000
  13214  13217     1   0.10961 277566.560000
  13219  13225     1   0.09730 310787.520000
  13220  13223     1   0.09730 310787.520000
  13221  13224     1   0.09730 310787.520000
  13222  13226     1   0.10969 276646.080000
  13222  13227     1   0.10969 276646.080000
  13228  13229     1   0.09730 310787.520000
  13231  13233     1   0.10969 276646.080000
  13232  13234     1   0.10969 276646.080000
  13235  13239     1   0.10969 276646.080000
  13236  13238     1   0.10969 276646.080000
  13237  13240     1   0.10961 277566.560000
  13242  13248     1   0.09730 310787.520000
  13243  13246     1   0.09730 310787.520000
  13244  13247     1   0.09730 310787.520000
  13245  13249     1   0.10969 276646.080000
  13245  13250     1   0.10969 276646.080000
  13251  13252     1   0.09730 310787.520000

[ pairs ]
;    ai     aj funct         c0         c1         c2         c3
      1     14     1
      1     17     1
      2     11     1
      2     20     1
      5      8     1
      5     21     1
      8     28     1
      8     31     1
     11     22     1
     11     25     1
     14     40     1
     14     43     1
     17     34     1
     17     37     1
     20     49     1
     20     46     1
     21     55     1
     21     52     1
     22     37     1
     22    173     1
     25     34     1
     25    144     1
     28     43     1
     28    115     1
     31     40     1
     31     86     1
     34    164     1
     37    135     1
     40    106     1
     43     77     1
     46     68     1
     49     97     1
     52    126     1
     55    155     1
     58     83     1
     58     80     1
     58     77     1
     59     74     1
     59     68     1
     59    231     1
     62     71     1
     62     68     1
     62    202     1
     65     71     1
     65     74     1
     65     86     1
     71    222     1
     74    193     1
     80    184     1
     83    213     1
     87    112     1
     87    109     1
     87    106     1
     88    103     1
     88     97     1
     88    289     1
     91    100     1
     91     97     1
     91    260     1
     94    100     1
     94    103     1
     94    115     1
    100    280     1
    103    251     1
    109    242     1
    112    271     1
    116    141     1
    116    138     1
    116    135     1
    117    132     1
    117    126     1
    117    347     1
    120    129     1
    120    126     1
    120    318     1
    123    129     1
    123    132     1
    123    144     1
    129    338     1
    132    309     1
    138    300     1
    141    329     1
    145    170     1
    145    167     1
    145    164     1
    146    161     1
    146    155     1
    146    405     1
    149    158     1
    149    155     1
    149    376     1
    152    158     1
    152    161     1
    152    173     1
    158    396     1
    161    367     1
    167    358     1
    170    387     1
    174    199     1
    174    196     1
    174    193     1
    175    190     1
    175    184     1
    175    463     1
    178    187     1
    178    184     1
    178    434     1
    181    187     1
    181    190     1
    181    202     1
    187    454     1
    190    425     1
    196    416     1
    199    445     1
    203    228     1
    203    225     1
    203    222     1
    204    219     1
    204    213     1
    204    521     1
    207    216     1
    207    213     1
    207    492     1
    210    216     1
    210    219     1
    210    231     1
    216    512     1
    219    483     1
    225    474     1
    228    503     1
    232    257     1
    232    254     1
    232    251     1
    233    248     1
    233    242     1
    233    579     1
    236    245     1
    236    242     1
    236    550     1
    239    245     1
    239    248     1
    239    260     1
    245    570     1
    248    541     1
    254    532     1
    257    561     1
    261    286     1
    261    283     1
    261    280     1
    262    277     1
    262    271     1
    262    637     1
    265    274     1
    265    271     1
    265    608     1
    268    274     1
    268    277     1
    268    289     1
    274    628     1
    277    599     1
    283    590     1
    286    619     1
    290    315     1
    290    312     1
    290    309     1
    291    306     1
    291    300     1
    291    695     1
    294    303     1
    294    300     1
    294    666     1
    297    303     1
    297    306     1
    297    318     1
    303    686     1
    306    657     1
    312    648     1
    315    677     1
    319    344     1
    319    341     1
    319    338     1
    320    335     1
    320    329     1
    320    753     1
    323    332     1
    323    329     1
    323    724     1
    326    332     1
    326    335     1
    326    347     1
    332    744     1
    335    715     1
    341    706     1
    344    735     1
    348    373     1
    348    370     1
    348    367     1
    349    364     1
    349    358     1
    349    811     1
    352    361     1
    352    358     1
    352    782     1
    355    361     1
    355    364     1
    355    376     1
    361    802     1
    364    773     1
    370    764     1
    373    793     1
    377    402     1
    377    399     1
    377    396     1
    378    393     1
    378    387     1
    378    869     1
    381    390     1
    381    387     1
    381    840     1
    384    390     1
    384    393     1
    384    405     1
    390    860     1
    393    831     1
    399    822     1
    402    851     1
    406    431     1
    406    428     1
    406    425     1
    407    422     1
    407    416     1
    407    927     1
    410    419     1
    410    416     1
    410    898     1
    413    419     1
    413    422     1
    413    434     1
    419    918     1
    422    889     1
    428    880     1
    431    909     1
    435    460     1
    435    457     1
    435    454     1
    436    451     1
    436    445     1
    436    985     1
    439    448     1
    439    445     1
    439    956     1
    442    448     1
    442    451     1
    442    463     1
    448    976     1
    451    947     1
    457    938     1
    460    967     1
    464    489     1
    464    486     1
    464    483     1
    465    480     1
    465    474     1
    465   1043     1
    468    477     1
    468    474     1
    468   1014     1
    471    477     1
    471    480     1
    471    492     1
    477   1034     1
    480   1005     1
    486    996     1
    489   1025     1
    493    518     1
    493    515     1
    493    512     1
    494    509     1
    494    503     1
    494   1101     1
    497    506     1
    497    503     1
    497   1072     1
    500    506     1
    500    509     1
    500    521     1
    506   1092     1
    509   1063     1
    515   1054     1
    518   1083     1
    522    547     1
    522    544     1
    522    541     1
    523    538     1
    523    532     1
    523   1159     1
    526    535     1
    526    532     1
    526   1130     1
    529    535     1
    529    538     1
    529    550     1
    535   1150     1
    538   1121     1
    544   1112     1
    547   1141     1
    551    576     1
    551    573     1
    551    570     1
    552    567     1
    552    561     1
    552   1217     1
    555    564     1
    555    561     1
    555   1188     1
    558    564     1
    558    567     1
    558    579     1
    564   1208     1
    567   1179     1
    573   1170     1
    576   1199     1
    580    605     1
    580    602     1
    580    599     1
    581    596     1
    581    590     1
    581   1275     1
    584    593     1
    584    590     1
    584   1246     1
    587    593     1
    587    596     1
    587    608     1
    593   1266     1
    596   1237     1
    602   1228     1
    605   1257     1
    609    634     1
    609    631     1
    609    628     1
    610    625     1
    610    619     1
    610   1333     1
    613    622     1
    613    619     1
    613   1304     1
    616    622     1
    616    625     1
    616    637     1
    622   1324     1
    625   1295     1
    631   1286     1
    634   1315     1
    638    663     1
    638    660     1
    638    657     1
    639    654     1
    639    648     1
    639   1391     1
    642    651     1
    642    648     1
    642   1362     1
    645    651     1
    645    654     1
    645    666     1
    651   1382     1
    654   1353     1
    660   1344     1
    663   1373     1
    667    692     1
    667    689     1
    667    686     1
    668    683     1
    668    677     1
    668   1449     1
    671    680     1
    671    677     1
    671   1420     1
    674    680     1
    674    683     1
    674    695     1
    680   1440     1
    683   1411     1
    689   1402     1
    692   1431     1
    696    721     1
    696    718     1
    696    715     1
    697    712     1
    697    706     1
    697   1507     1
    700    709     1
    700    706     1
    700   1478     1
    703    709     1
    703    712     1
    703    724     1
    709   1498     1
    712   1469     1
    718   1460     1
    721   1489     1
    725    750     1
    725    747     1
    725    744     1
    726    741     1
    726    735     1
    726   1565     1
    729    738     1
    729    735     1
    729   1536     1
    732    738     1
    732    741     1
    732    753     1
    738   1556     1
    741   1527     1
    747   1518     1
    750   1547     1
    754    779     1
    754    776     1
    754    773     1
    755    770     1
    755    764     1
    755   1623     1
    758    767     1
    758    764     1
    758   1594     1
    761    767     1
    761    770     1
    761    782     1
    767   1614     1
    770   1585     1
    776   1576     1
    779   1605     1
    783    808     1
    783    805     1
    783    802     1
    784    799     1
    784    793     1
    784   1681     1
    787    796     1
    787    793     1
    787   1652     1
    790    796     1
    790    799     1
    790    811     1
    796   1672     1
    799   1643     1
    805   1634     1
    808   1663     1
    812    837     1
    812    834     1
    812    831     1
    813    828     1
    813    822     1
    813   1739     1
    816    825     1
    816    822     1
    816   1710     1
    819    825     1
    819    828     1
    819    840     1
    825   1730     1
    828   1701     1
    834   1692     1
    837   1721     1
    841    866     1
    841    863     1
    841    860     1
    842    857     1
    842    851     1
    842   1797     1
    845    854     1
    845    851     1
    845   1768     1
    848    854     1
    848    857     1
    848    869     1
    854   1788     1
    857   1759     1
    863   1750     1
    866   1779     1
    870    895     1
    870    892     1
    870    889     1
    871    886     1
    871    880     1
    871   1855     1
    874    883     1
    874    880     1
    874   1826     1
    877    883     1
    877    886     1
    877    898     1
    883   1846     1
    886   1817     1
    892   1808     1
    895   1837     1
    899    924     1
    899    921     1
    899    918     1
    900    915     1
    900    909     1
    900   1913     1
    903    912     1
    903    909     1
    903   1884     1
    906    912     1
    906    915     1
    906    927     1
    912   1904     1
    915   1875     1
    921   1866     1
    924   1895     1
    928    953     1
    928    950     1
    928    947     1
    929    944     1
    929    938     1
    929   1971     1
    932    941     1
    932    938     1
    932   1942     1
    935    941     1
    935    944     1
    935    956     1
    941   1962     1
    944   1933     1
    950   1924     1
    953   1953     1
    957    982     1
    957    979     1
    957    976     1
    958    973     1
    958    967     1
    958   2029     1
    961    970     1
    961    967     1
    961   2000     1
    964    970     1
    964    973     1
    964    985     1
    970   2020     1
    973   1991     1
    979   1982     1
    982   2011     1
    986   1011     1
    986   1008     1
    986   1005     1
    987   1002     1
    987    996     1
    987   2087     1
    990    999     1
    990    996     1
    990   2058     1
    993    999     1
    993   1002     1
    993   1014     1
    999   2078     1
   1002   2049     1
   1008   2040     1
   1011   2069     1
   1015   1040     1
   1015   1037     1
   1015   1034     1
   1016   1031     1
   1016   1025     1
   1016   2145     1
   1019   1028     1
   1019   1025     1
   1019   2116     1
   1022   1028     1
   1022   1031     1
   1022   1043     1
   1028   2136     1
   1031   2107     1
   1037   2098     1
   1040   2127     1
   1044   1069     1
   1044   1066     1
   1044   1063     1
   1045   1060     1
   1045   1054     1
   1045   2203     1
   1048   1057     1
   1048   1054     1
   1048   2174     1
   1051   1057     1
   1051   1060     1
   1051   1072     1
   1057   2194     1
   1060   2165     1
   1066   2156     1
   1069   2185     1
   1073   1098     1
   1073   1095     1
   1073   1092     1
   1074   1089     1
   1074   1083     1
   1074   2261     1
   1077   1086     1
   1077   1083     1
   1077   2232     1
   1080   1086     1
   1080   1089     1
   1080   1101     1
   1086   2252     1
   1089   2223     1
   1095   2214     1
   1098   2243     1
   1102   1127     1
   1102   1124     1
   1102   1121     1
   1103   1118     1
   1103   1112     1
   1103   2319     1
   1106   1115     1
   1106   1112     1
   1106   2290     1
   1109   1115     1
   1109   1118     1
   1109   1130     1
   1115   2310     1
   1118   2281     1
   1124   2272     1
   1127   2301     1
   1131   1156     1
   1131   1153     1
   1131   1150     1
   1132   1147     1
   1132   1141     1
   1132   2377     1
   1135   1144     1
   1135   1141     1
   1135   2348     1
   1138   1144     1
   1138   1147     1
   1138   1159     1
   1144   2368     1
   1147   2339     1
   1153   2330     1
   1156   2359     1
   1160   1185     1
   1160   1182     1
   1160   1179     1
   1161   1176     1
   1161   1170     1
   1161   2435     1
   1164   1173     1
   1164   1170     1
   1164   2406     1
   1167   1173     1
   1167   1176     1
   1167   1188     1
   1173   2426     1
   1176   2397     1
   1182   2388     1
   1185   2417     1
   1189   1214     1
   1189   1211     1
   1189   1208     1
   1190   1205     1
   1190   1199     1
   1190   2493     1
   1193   1202     1
   1193   1199     1
   1193   2464     1
   1196   1202     1
   1196   1205     1
   1196   1217     1
   1202   2484     1
   1205   2455     1
   1211   2446     1
   1214   2475     1
   1218   1243     1
   1218   1240     1
   1218   1237     1
   1219   1234     1
   1219   1228     1
   1219   2551     1
   1222   1231     1
   1222   1228     1
   1222   2522     1
   1225   1231     1
   1225   1234     1
   1225   1246     1
   1231   2542     1
   1234   2513     1
   1240   2504     1
   1243   2533     1
   1247   1272     1
   1247   1269     1
   1247   1266     1
   1248   1263     1
   1248   1257     1
   1248   2609     1
   1251   1260     1
   1251   1257     1
   1251   2580     1
   1254   1260     1
   1254   1263     1
   1254   1275     1
   1260   2600     1
   1263   2571     1
   1269   2562     1
   1272   2591     1
   1276   1301     1
   1276   1298     1
   1276   1295     1
   1277   1292     1
   1277   1286     1
   1277   2667     1
   1280   1289     1
   1280   1286     1
   1280   2638     1
   1283   1289     1
   1283   1292     1
   1283   1304     1
   1289   2658     1
   1292   2629     1
   1298   2620     1
   1301   2649     1
   1305   1330     1
   1305   1327     1
   1305   1324     1
   1306   1321     1
   1306   1315     1
   1306   2725     1
   1309   1318     1
   1309   1315     1
   1309   2696     1
   1312   1318     1
   1312   1321     1
   1312   1333     1
   1318   2716     1
   1321   2687     1
   1327   2678     1
   1330   2707     1
   1334   1359     1
   1334   1356     1
   1334   1353     1
   1335   1350     1
   1335   1344     1
   1335   2783     1
   1338   1347     1
   1338   1344     1
   1338   2754     1
   1341   1347     1
   1341   1350     1
   1341   1362     1
   1347   2774     1
   1350   2745     1
   1356   2736     1
   1359   2765     1
   1363   1388     1
   1363   1385     1
   1363   1382     1
   1364   1379     1
   1364   1373     1
   1364   2841     1
   1367   1376     1
   1367   1373     1
   1367   2812     1
   1370   1376     1
   1370   1379     1
   1370   1391     1
   1376   2832     1
   1379   2803     1
   1385   2794     1
   1388   2823     1
   1392   1417     1
   1392   1414     1
   1392   1411     1
   1393   1408     1
   1393   1402     1
   1393   2899     1
   1396   1405     1
   1396   1402     1
   1396   2870     1
   1399   1405     1
   1399   1408     1
   1399   1420     1
   1405   2890     1
   1408   2861     1
   1414   2852     1
   1417   2881     1
   1421   1446     1
   1421   1443     1
   1421   1440     1
   1422   1437     1
   1422   1431     1
   1422   2957     1
   1425   1434     1
   1425   1431     1
   1425   2928     1
   1428   1434     1
   1428   1437     1
   1428   1449     1
   1434   2948     1
   1437   2919     1
   1443   2910     1
   1446   2939     1
   1450   1475     1
   1450   1472     1
   1450   1469     1
   1451   1466     1
   1451   1460     1
   1451   3015     1
   1454   1463     1
   1454   1460     1
   1454   2986     1
   1457   1463     1
   1457   1466     1
   1457   1478     1
   1463   3006     1
   1466   2977     1
   1472   2968     1
   1475   2997     1
   1479   1504     1
   1479   1501     1
   1479   1498     1
   1480   1495     1
   1480   1489     1
   1480   3073     1
   1483   1492     1
   1483   1489     1
   1483   3044     1
   1486   1492     1
   1486   1495     1
   1486   1507     1
   1492   3064     1
   1495   3035     1
   1501   3026     1
   1504   3055     1
   1508   1533     1
   1508   1530     1
   1508   1527     1
   1509   1524     1
   1509   1518     1
   1509   3131     1
   1512   1521     1
   1512   1518     1
   1512   3102     1
   1515   1521     1
   1515   1524     1
   1515   1536     1
   1521   3122     1
   1524   3093     1
   1530   3084     1
   1533   3113     1
   1537   1562     1
   1537   1559     1
   1537   1556     1
   1538   1553     1
   1538   1547     1
   1538   3189     1
   1541   1550     1
   1541   1547     1
   1541   3160     1
   1544   1550     1
   1544   1553     1
   1544   1565     1
   1550   3180     1
   1553   3151     1
   1559   3142     1
   1562   3171     1
   1566   1591     1
   1566   1588     1
   1566   1585     1
   1567   1582     1
   1567   1576     1
   1567   3247     1
   1570   1579     1
   1570   1576     1
   1570   3218     1
   1573   1579     1
   1573   1582     1
   1573   1594     1
   1579   3238     1
   1582   3209     1
   1588   3200     1
   1591   3229     1
   1595   1620     1
   1595   1617     1
   1595   1614     1
   1596   1611     1
   1596   1605     1
   1596   3305     1
   1599   1608     1
   1599   1605     1
   1599   3276     1
   1602   1608     1
   1602   1611     1
   1602   1623     1
   1608   3296     1
   1611   3267     1
   1617   3258     1
   1620   3287     1
   1624   1649     1
   1624   1646     1
   1624   1643     1
   1625   1640     1
   1625   1634     1
   1625   3363     1
   1628   1637     1
   1628   1634     1
   1628   3334     1
   1631   1637     1
   1631   1640     1
   1631   1652     1
   1637   3354     1
   1640   3325     1
   1646   3316     1
   1649   3345     1
   1653   1678     1
   1653   1675     1
   1653   1672     1
   1654   1669     1
   1654   1663     1
   1654   3421     1
   1657   1666     1
   1657   1663     1
   1657   3392     1
   1660   1666     1
   1660   1669     1
   1660   1681     1
   1666   3412     1
   1669   3383     1
   1675   3374     1
   1678   3403     1
   1682   1707     1
   1682   1704     1
   1682   1701     1
   1683   1698     1
   1683   1692     1
   1683   3479     1
   1686   1695     1
   1686   1692     1
   1686   3450     1
   1689   1695     1
   1689   1698     1
   1689   1710     1
   1695   3470     1
   1698   3441     1
   1704   3432     1
   1707   3461     1
   1711   1736     1
   1711   1733     1
   1711   1730     1
   1712   1727     1
   1712   1721     1
   1712   3537     1
   1715   1724     1
   1715   1721     1
   1715   3508     1
   1718   1724     1
   1718   1727     1
   1718   1739     1
   1724   3528     1
   1727   3499     1
   1733   3490     1
   1736   3519     1
   1740   1765     1
   1740   1762     1
   1740   1759     1
   1741   1756     1
   1741   1750     1
   1741   3595     1
   1744   1753     1
   1744   1750     1
   1744   3566     1
   1747   1753     1
   1747   1756     1
   1747   1768     1
   1753   3586     1
   1756   3557     1
   1762   3548     1
   1765   3577     1
   1769   1794     1
   1769   1791     1
   1769   1788     1
   1770   1785     1
   1770   1779     1
   1770   3653     1
   1773   1782     1
   1773   1779     1
   1773   3624     1
   1776   1782     1
   1776   1785     1
   1776   1797     1
   1782   3644     1
   1785   3615     1
   1791   3606     1
   1794   3635     1
   1798   1823     1
   1798   1820     1
   1798   1817     1
   1799   1814     1
   1799   1808     1
   1799   3711     1
   1802   1811     1
   1802   1808     1
   1802   3682     1
   1805   1811     1
   1805   1814     1
   1805   1826     1
   1811   3702     1
   1814   3673     1
   1820   3664     1
   1823   3693     1
   1827   1852     1
   1827   1849     1
   1827   1846     1
   1828   1843     1
   1828   1837     1
   1828   3769     1
   1831   1840     1
   1831   1837     1
   1831   3740     1
   1834   1840     1
   1834   1843     1
   1834   1855     1
   1840   3760     1
   1843   3731     1
   1849   3722     1
   1852   3751     1
   1856   1881     1
   1856   1878     1
   1856   1875     1
   1857   1872     1
   1857   1866     1
   1857   3827     1
   1860   1869     1
   1860   1866     1
   1860   3798     1
   1863   1869     1
   1863   1872     1
   1863   1884     1
   1869   3818     1
   1872   3789     1
   1878   3780     1
   1881   3809     1
   1885   1910     1
   1885   1907     1
   1885   1904     1
   1886   1901     1
   1886   1895     1
   1886   3885     1
   1889   1898     1
   1889   1895     1
   1889   3856     1
   1892   1898     1
   1892   1901     1
   1892   1913     1
   1898   3876     1
   1901   3847     1
   1907   3838     1
   1910   3867     1
   1914   1939     1
   1914   1936     1
   1914   1933     1
   1915   1930     1
   1915   1924     1
   1915   3943     1
   1918   1927     1
   1918   1924     1
   1918   3914     1
   1921   1927     1
   1921   1930     1
   1921   1942     1
   1927   3934     1
   1930   3905     1
   1936   3896     1
   1939   3925     1
   1943   1968     1
   1943   1965     1
   1943   1962     1
   1944   1959     1
   1944   1953     1
   1944   4001     1
   1947   1956     1
   1947   1953     1
   1947   3972     1
   1950   1956     1
   1950   1959     1
   1950   1971     1
   1956   3992     1
   1959   3963     1
   1965   3954     1
   1968   3983     1
   1972   1997     1
   1972   1994     1
   1972   1991     1
   1973   1988     1
   1973   1982     1
   1973   4059     1
   1976   1985     1
   1976   1982     1
   1976   4030     1
   1979   1985     1
   1979   1988     1
   1979   2000     1
   1985   4050     1
   1988   4021     1
   1994   4012     1
   1997   4041     1
   2001   2026     1
   2001   2023     1
   2001   2020     1
   2002   2017     1
   2002   2011     1
   2002   4117     1
   2005   2014     1
   2005   2011     1
   2005   4088     1
   2008   2014     1
   2008   2017     1
   2008   2029     1
   2014   4108     1
   2017   4079     1
   2023   4070     1
   2026   4099     1
   2030   2055     1
   2030   2052     1
   2030   2049     1
   2031   2046     1
   2031   2040     1
   2031   4175     1
   2034   2043     1
   2034   2040     1
   2034   4146     1
   2037   2043     1
   2037   2046     1
   2037   2058     1
   2043   4166     1
   2046   4137     1
   2052   4128     1
   2055   4157     1
   2059   2084     1
   2059   2081     1
   2059   2078     1
   2060   2075     1
   2060   2069     1
   2060   4233     1
   2063   2072     1
   2063   2069     1
   2063   4204     1
   2066   2072     1
   2066   2075     1
   2066   2087     1
   2072   4224     1
   2075   4195     1
   2081   4186     1
   2084   4215     1
   2088   2113     1
   2088   2110     1
   2088   2107     1
   2089   2104     1
   2089   2098     1
   2089   4291     1
   2092   2101     1
   2092   2098     1
   2092   4262     1
   2095   2101     1
   2095   2104     1
   2095   2116     1
   2101   4282     1
   2104   4253     1
   2110   4244     1
   2113   4273     1
   2117   2142     1
   2117   2139     1
   2117   2136     1
   2118   2133     1
   2118   2127     1
   2118   4349     1
   2121   2130     1
   2121   2127     1
   2121   4320     1
   2124   2130     1
   2124   2133     1
   2124   2145     1
   2130   4340     1
   2133   4311     1
   2139   4302     1
   2142   4331     1
   2146   2171     1
   2146   2168     1
   2146   2165     1
   2147   2162     1
   2147   2156     1
   2147   4407     1
   2150   2159     1
   2150   2156     1
   2150   4378     1
   2153   2159     1
   2153   2162     1
   2153   2174     1
   2159   4398     1
   2162   4369     1
   2168   4360     1
   2171   4389     1
   2175   2200     1
   2175   2197     1
   2175   2194     1
   2176   2191     1
   2176   2185     1
   2176   4465     1
   2179   2188     1
   2179   2185     1
   2179   4436     1
   2182   2188     1
   2182   2191     1
   2182   2203     1
   2188   4456     1
   2191   4427     1
   2197   4418     1
   2200   4447     1
   2204   2229     1
   2204   2226     1
   2204   2223     1
   2205   2220     1
   2205   2214     1
   2205   4523     1
   2208   2217     1
   2208   2214     1
   2208   4494     1
   2211   2217     1
   2211   2220     1
   2211   2232     1
   2217   4514     1
   2220   4485     1
   2226   4476     1
   2229   4505     1
   2233   2258     1
   2233   2255     1
   2233   2252     1
   2234   2249     1
   2234   2243     1
   2234   4581     1
   2237   2246     1
   2237   2243     1
   2237   4552     1
   2240   2246     1
   2240   2249     1
   2240   2261     1
   2246   4572     1
   2249   4543     1
   2255   4534     1
   2258   4563     1
   2262   2287     1
   2262   2284     1
   2262   2281     1
   2263   2278     1
   2263   2272     1
   2263   4639     1
   2266   2275     1
   2266   2272     1
   2266   4610     1
   2269   2275     1
   2269   2278     1
   2269   2290     1
   2275   4630     1
   2278   4601     1
   2284   4592     1
   2287   4621     1
   2291   2316     1
   2291   2313     1
   2291   2310     1
   2292   2307     1
   2292   2301     1
   2292   4697     1
   2295   2304     1
   2295   2301     1
   2295   4668     1
   2298   2304     1
   2298   2307     1
   2298   2319     1
   2304   4688     1
   2307   4659     1
   2313   4650     1
   2316   4679     1
   2320   2345     1
   2320   2342     1
   2320   2339     1
   2321   2336     1
   2321   2330     1
   2321   4755     1
   2324   2333     1
   2324   2330     1
   2324   4726     1
   2327   2333     1
   2327   2336     1
   2327   2348     1
   2333   4746     1
   2336   4717     1
   2342   4708     1
   2345   4737     1
   2349   2374     1
   2349   2371     1
   2349   2368     1
   2350   2365     1
   2350   2359     1
   2350   4813     1
   2353   2362     1
   2353   2359     1
   2353   4784     1
   2356   2362     1
   2356   2365     1
   2356   2377     1
   2362   4804     1
   2365   4775     1
   2371   4766     1
   2374   4795     1
   2378   2403     1
   2378   2400     1
   2378   2397     1
   2379   2394     1
   2379   2388     1
   2379   4871     1
   2382   2391     1
   2382   2388     1
   2382   4842     1
   2385   2391     1
   2385   2394     1
   2385   2406     1
   2391   4862     1
   2394   4833     1
   2400   4824     1
   2403   4853     1
   2407   2432     1
   2407   2429     1
   2407   2426     1
   2408   2423     1
   2408   2417     1
   2408   4929     1
   2411   2420     1
   2411   2417     1
   2411   4900     1
   2414   2420     1
   2414   2423     1
   2414   2435     1
   2420   4920     1
   2423   4891     1
   2429   4882     1
   2432   4911     1
   2436   2461     1
   2436   2458     1
   2436   2455     1
   2437   2452     1
   2437   2446     1
   2437   4987     1
   2440   2449     1
   2440   2446     1
   2440   4958     1
   2443   2449     1
   2443   2452     1
   2443   2464     1
   2449   4978     1
   2452   4949     1
   2458   4940     1
   2461   4969     1
   2465   2490     1
   2465   2487     1
   2465   2484     1
   2466   2481     1
   2466   2475     1
   2466   5045     1
   2469   2478     1
   2469   2475     1
   2469   5016     1
   2472   2478     1
   2472   2481     1
   2472   2493     1
   2478   5036     1
   2481   5007     1
   2487   4998     1
   2490   5027     1
   2494   2519     1
   2494   2516     1
   2494   2513     1
   2495   2510     1
   2495   2504     1
   2495   5103     1
   2498   2507     1
   2498   2504     1
   2498   5074     1
   2501   2507     1
   2501   2510     1
   2501   2522     1
   2507   5094     1
   2510   5065     1
   2516   5056     1
   2519   5085     1
   2523   2548     1
   2523   2545     1
   2523   2542     1
   2524   2539     1
   2524   2533     1
   2524   5161     1
   2527   2536     1
   2527   2533     1
   2527   5132     1
   2530   2536     1
   2530   2539     1
   2530   2551     1
   2536   5152     1
   2539   5123     1
   2545   5114     1
   2548   5143     1
   2552   2577     1
   2552   2574     1
   2552   2571     1
   2553   2568     1
   2553   2562     1
   2553   5219     1
   2556   2565     1
   2556   2562     1
   2556   5190     1
   2559   2565     1
   2559   2568     1
   2559   2580     1
   2565   5210     1
   2568   5181     1
   2574   5172     1
   2577   5201     1
   2581   2606     1
   2581   2603     1
   2581   2600     1
   2582   2597     1
   2582   2591     1
   2582   5277     1
   2585   2594     1
   2585   2591     1
   2585   5248     1
   2588   2594     1
   2588   2597     1
   2588   2609     1
   2594   5268     1
   2597   5239     1
   2603   5230     1
   2606   5259     1
   2610   2635     1
   2610   2632     1
   2610   2629     1
   2611   2626     1
   2611   2620     1
   2611   5335     1
   2614   2623     1
   2614   2620     1
   2614   5306     1
   2617   2623     1
   2617   2626     1
   2617   2638     1
   2623   5326     1
   2626   5297     1
   2632   5288     1
   2635   5317     1
   2639   2664     1
   2639   2661     1
   2639   2658     1
   2640   2655     1
   2640   2649     1
   2640   5393     1
   2643   2652     1
   2643   2649     1
   2643   5364     1
   2646   2652     1
   2646   2655     1
   2646   2667     1
   2652   5384     1
   2655   5355     1
   2661   5346     1
   2664   5375     1
   2668   2693     1
   2668   2690     1
   2668   2687     1
   2669   2684     1
   2669   2678     1
   2669   5451     1
   2672   2681     1
   2672   2678     1
   2672   5422     1
   2675   2681     1
   2675   2684     1
   2675   2696     1
   2681   5442     1
   2684   5413     1
   2690   5404     1
   2693   5433     1
   2697   2722     1
   2697   2719     1
   2697   2716     1
   2698   2713     1
   2698   2707     1
   2698   5509     1
   2701   2710     1
   2701   2707     1
   2701   5480     1
   2704   2710     1
   2704   2713     1
   2704   2725     1
   2710   5500     1
   2713   5471     1
   2719   5462     1
   2722   5491     1
   2726   2751     1
   2726   2748     1
   2726   2745     1
   2727   2742     1
   2727   2736     1
   2727   5567     1
   2730   2739     1
   2730   2736     1
   2730   5538     1
   2733   2739     1
   2733   2742     1
   2733   2754     1
   2739   5558     1
   2742   5529     1
   2748   5520     1
   2751   5549     1
   2755   2780     1
   2755   2777     1
   2755   2774     1
   2756   2771     1
   2756   2765     1
   2756   5625     1
   2759   2768     1
   2759   2765     1
   2759   5596     1
   2762   2768     1
   2762   2771     1
   2762   2783     1
   2768   5616     1
   2771   5587     1
   2777   5578     1
   2780   5607     1
   2784   2809     1
   2784   2806     1
   2784   2803     1
   2785   2800     1
   2785   2794     1
   2785   5683     1
   2788   2797     1
   2788   2794     1
   2788   5654     1
   2791   2797     1
   2791   2800     1
   2791   2812     1
   2797   5674     1
   2800   5645     1
   2806   5636     1
   2809   5665     1
   2813   2838     1
   2813   2835     1
   2813   2832     1
   2814   2829     1
   2814   2823     1
   2814   5741     1
   2817   2826     1
   2817   2823     1
   2817   5712     1
   2820   2826     1
   2820   2829     1
   2820   2841     1
   2826   5732     1
   2829   5703     1
   2835   5694     1
   2838   5723     1
   2842   2867     1
   2842   2864     1
   2842   2861     1
   2843   2858     1
   2843   2852     1
   2843   5799     1
   2846   2855     1
   2846   2852     1
   2846   5770     1
   2849   2855     1
   2849   2858     1
   2849   2870     1
   2855   5790     1
   2858   5761     1
   2864   5752     1
   2867   5781     1
   2871   2896     1
   2871   2893     1
   2871   2890     1
   2872   2887     1
   2872   2881     1
   2872   5857     1
   2875   2884     1
   2875   2881     1
   2875   5828     1
   2878   2884     1
   2878   2887     1
   2878   2899     1
   2884   5848     1
   2887   5819     1
   2893   5810     1
   2896   5839     1
   2900   2925     1
   2900   2922     1
   2900   2919     1
   2901   2916     1
   2901   2910     1
   2901   5915     1
   2904   2913     1
   2904   2910     1
   2904   5886     1
   2907   2913     1
   2907   2916     1
   2907   2928     1
   2913   5906     1
   2916   5877     1
   2922   5868     1
   2925   5897     1
   2929   2954     1
   2929   2951     1
   2929   2948     1
   2930   2945     1
   2930   2939     1
   2930   5973     1
   2933   2942     1
   2933   2939     1
   2933   5944     1
   2936   2942     1
   2936   2945     1
   2936   2957     1
   2942   5964     1
   2945   5935     1
   2951   5926     1
   2954   5955     1
   2958   2983     1
   2958   2980     1
   2958   2977     1
   2959   2974     1
   2959   2968     1
   2959   6031     1
   2962   2971     1
   2962   2968     1
   2962   6002     1
   2965   2971     1
   2965   2974     1
   2965   2986     1
   2971   6022     1
   2974   5993     1
   2980   5984     1
   2983   6013     1
   2987   3012     1
   2987   3009     1
   2987   3006     1
   2988   3003     1
   2988   2997     1
   2988   6089     1
   2991   3000     1
   2991   2997     1
   2991   6060     1
   2994   3000     1
   2994   3003     1
   2994   3015     1
   3000   6080     1
   3003   6051     1
   3009   6042     1
   3012   6071     1
   3016   3041     1
   3016   3038     1
   3016   3035     1
   3017   3032     1
   3017   3026     1
   3017   6147     1
   3020   3029     1
   3020   3026     1
   3020   6118     1
   3023   3029     1
   3023   3032     1
   3023   3044     1
   3029   6138     1
   3032   6109     1
   3038   6100     1
   3041   6129     1
   3045   3070     1
   3045   3067     1
   3045   3064     1
   3046   3061     1
   3046   3055     1
   3046   6205     1
   3049   3058     1
   3049   3055     1
   3049   6176     1
   3052   3058     1
   3052   3061     1
   3052   3073     1
   3058   6196     1
   3061   6167     1
   3067   6158     1
   3070   6187     1
   3074   3099     1
   3074   3096     1
   3074   3093     1
   3075   3090     1
   3075   3084     1
   3075   6263     1
   3078   3087     1
   3078   3084     1
   3078   6234     1
   3081   3087     1
   3081   3090     1
   3081   3102     1
   3087   6254     1
   3090   6225     1
   3096   6216     1
   3099   6245     1
   3103   3128     1
   3103   3125     1
   3103   3122     1
   3104   3119     1
   3104   3113     1
   3104   6321     1
   3107   3116     1
   3107   3113     1
   3107   6292     1
   3110   3116     1
   3110   3119     1
   3110   3131     1
   3116   6312     1
   3119   6283     1
   3125   6274     1
   3128   6303     1
   3132   3157     1
   3132   3154     1
   3132   3151     1
   3133   3148     1
   3133   3142     1
   3133   6379     1
   3136   3145     1
   3136   3142     1
   3136   6350     1
   3139   3145     1
   3139   3148     1
   3139   3160     1
   3145   6370     1
   3148   6341     1
   3154   6332     1
   3157   6361     1
   3161   3186     1
   3161   3183     1
   3161   3180     1
   3162   3177     1
   3162   3171     1
   3162   6437     1
   3165   3174     1
   3165   3171     1
   3165   6408     1
   3168   3174     1
   3168   3177     1
   3168   3189     1
   3174   6428     1
   3177   6399     1
   3183   6390     1
   3186   6419     1
   3190   3215     1
   3190   3212     1
   3190   3209     1
   3191   3206     1
   3191   3200     1
   3191   6495     1
   3194   3203     1
   3194   3200     1
   3194   6466     1
   3197   3203     1
   3197   3206     1
   3197   3218     1
   3203   6486     1
   3206   6457     1
   3212   6448     1
   3215   6477     1
   3219   3244     1
   3219   3241     1
   3219   3238     1
   3220   3235     1
   3220   3229     1
   3220   6553     1
   3223   3232     1
   3223   3229     1
   3223   6524     1
   3226   3232     1
   3226   3235     1
   3226   3247     1
   3232   6544     1
   3235   6515     1
   3241   6506     1
   3244   6535     1
   3248   3273     1
   3248   3270     1
   3248   3267     1
   3249   3264     1
   3249   3258     1
   3249   6611     1
   3252   3261     1
   3252   3258     1
   3252   6582     1
   3255   3261     1
   3255   3264     1
   3255   3276     1
   3261   6602     1
   3264   6573     1
   3270   6564     1
   3273   6593     1
   3277   3302     1
   3277   3299     1
   3277   3296     1
   3278   3293     1
   3278   3287     1
   3278   6669     1
   3281   3290     1
   3281   3287     1
   3281   6640     1
   3284   3290     1
   3284   3293     1
   3284   3305     1
   3290   6660     1
   3293   6631     1
   3299   6622     1
   3302   6651     1
   3306   3331     1
   3306   3328     1
   3306   3325     1
   3307   3322     1
   3307   3316     1
   3307   6727     1
   3310   3319     1
   3310   3316     1
   3310   6698     1
   3313   3319     1
   3313   3322     1
   3313   3334     1
   3319   6718     1
   3322   6689     1
   3328   6680     1
   3331   6709     1
   3335   3360     1
   3335   3357     1
   3335   3354     1
   3336   3351     1
   3336   3345     1
   3336   6785     1
   3339   3348     1
   3339   3345     1
   3339   6756     1
   3342   3348     1
   3342   3351     1
   3342   3363     1
   3348   6776     1
   3351   6747     1
   3357   6738     1
   3360   6767     1
   3364   3389     1
   3364   3386     1
   3364   3383     1
   3365   3380     1
   3365   3374     1
   3365   6843     1
   3368   3377     1
   3368   3374     1
   3368   6814     1
   3371   3377     1
   3371   3380     1
   3371   3392     1
   3377   6834     1
   3380   6805     1
   3386   6796     1
   3389   6825     1
   3393   3418     1
   3393   3415     1
   3393   3412     1
   3394   3409     1
   3394   3403     1
   3394   6901     1
   3397   3406     1
   3397   3403     1
   3397   6872     1
   3400   3406     1
   3400   3409     1
   3400   3421     1
   3406   6892     1
   3409   6863     1
   3415   6854     1
   3418   6883     1
   3422   3447     1
   3422   3444     1
   3422   3441     1
   3423   3438     1
   3423   3432     1
   3423   6959     1
   3426   3435     1
   3426   3432     1
   3426   6930     1
   3429   3435     1
   3429   3438     1
   3429   3450     1
   3435   6950     1
   3438   6921     1
   3444   6912     1
   3447   6941     1
   3451   3476     1
   3451   3473     1
   3451   3470     1
   3452   3467     1
   3452   3461     1
   3452   7017     1
   3455   3464     1
   3455   3461     1
   3455   6988     1
   3458   3464     1
   3458   3467     1
   3458   3479     1
   3464   7008     1
   3467   6979     1
   3473   6970     1
   3476   6999     1
   3480   3505     1
   3480   3502     1
   3480   3499     1
   3481   3496     1
   3481   3490     1
   3481   7075     1
   3484   3493     1
   3484   3490     1
   3484   7046     1
   3487   3493     1
   3487   3496     1
   3487   3508     1
   3493   7066     1
   3496   7037     1
   3502   7028     1
   3505   7057     1
   3509   3534     1
   3509   3531     1
   3509   3528     1
   3510   3525     1
   3510   3519     1
   3510   7133     1
   3513   3522     1
   3513   3519     1
   3513   7104     1
   3516   3522     1
   3516   3525     1
   3516   3537     1
   3522   7124     1
   3525   7095     1
   3531   7086     1
   3534   7115     1
   3538   3563     1
   3538   3560     1
   3538   3557     1
   3539   3554     1
   3539   3548     1
   3539   7191     1
   3542   3551     1
   3542   3548     1
   3542   7162     1
   3545   3551     1
   3545   3554     1
   3545   3566     1
   3551   7182     1
   3554   7153     1
   3560   7144     1
   3563   7173     1
   3567   3592     1
   3567   3589     1
   3567   3586     1
   3568   3583     1
   3568   3577     1
   3568   7249     1
   3571   3580     1
   3571   3577     1
   3571   7220     1
   3574   3580     1
   3574   3583     1
   3574   3595     1
   3580   7240     1
   3583   7211     1
   3589   7202     1
   3592   7231     1
   3596   3621     1
   3596   3618     1
   3596   3615     1
   3597   3612     1
   3597   3606     1
   3597   7307     1
   3600   3609     1
   3600   3606     1
   3600   7278     1
   3603   3609     1
   3603   3612     1
   3603   3624     1
   3609   7298     1
   3612   7269     1
   3618   7260     1
   3621   7289     1
   3625   3650     1
   3625   3647     1
   3625   3644     1
   3626   3641     1
   3626   3635     1
   3626   7365     1
   3629   3638     1
   3629   3635     1
   3629   7336     1
   3632   3638     1
   3632   3641     1
   3632   3653     1
   3638   7356     1
   3641   7327     1
   3647   7318     1
   3650   7347     1
   3654   3679     1
   3654   3676     1
   3654   3673     1
   3655   3670     1
   3655   3664     1
   3655   7399     1
   3658   3667     1
   3658   3664     1
   3658   7376     1
   3661   3667     1
   3661   3670     1
   3661   3682     1
   3667   7395     1
   3670   7372     1
   3676   7371     1
   3676   7388     1
   3679   7411     1
   3679   7394     1
   3683   3708     1
   3683   3705     1
   3683   3702     1
   3684   3699     1
   3684   3693     1
   3684   7445     1
   3687   3696     1
   3687   3693     1
   3687   7422     1
   3690   3696     1
   3690   3699     1
   3690   3711     1
   3696   7441     1
   3699   7418     1
   3705   7417     1
   3705   7434     1
   3708   7457     1
   3708   7440     1
   3712   3737     1
   3712   3734     1
   3712   3731     1
   3713   3728     1
   3713   3722     1
   3713   7491     1
   3716   3725     1
   3716   3722     1
   3716   7468     1
   3719   3725     1
   3719   3728     1
   3719   3740     1
   3725   7487     1
   3728   7464     1
   3734   7463     1
   3734   7480     1
   3737   7503     1
   3737   7486     1
   3741   3766     1
   3741   3763     1
   3741   3760     1
   3742   3757     1
   3742   3751     1
   3742   7537     1
   3745   3754     1
   3745   3751     1
   3745   7514     1
   3748   3754     1
   3748   3757     1
   3748   3769     1
   3754   7533     1
   3757   7510     1
   3763   7509     1
   3763   7526     1
   3766   7549     1
   3766   7532     1
   3770   3795     1
   3770   3792     1
   3770   3789     1
   3771   3786     1
   3771   3780     1
   3771   7583     1
   3774   3783     1
   3774   3780     1
   3774   7560     1
   3777   3783     1
   3777   3786     1
   3777   3798     1
   3783   7579     1
   3786   7556     1
   3792   7555     1
   3792   7572     1
   3795   7595     1
   3795   7578     1
   3799   3824     1
   3799   3821     1
   3799   3818     1
   3800   3815     1
   3800   3809     1
   3800   7629     1
   3803   3812     1
   3803   3809     1
   3803   7606     1
   3806   3812     1
   3806   3815     1
   3806   3827     1
   3812   7625     1
   3815   7602     1
   3821   7601     1
   3821   7618     1
   3824   7641     1
   3824   7624     1
   3828   3853     1
   3828   3850     1
   3828   3847     1
   3829   3844     1
   3829   3838     1
   3829   7675     1
   3832   3841     1
   3832   3838     1
   3832   7652     1
   3835   3841     1
   3835   3844     1
   3835   3856     1
   3841   7671     1
   3844   7648     1
   3850   7647     1
   3850   7664     1
   3853   7687     1
   3853   7670     1
   3857   3882     1
   3857   3879     1
   3857   3876     1
   3858   3873     1
   3858   3867     1
   3858   7721     1
   3861   3870     1
   3861   3867     1
   3861   7698     1
   3864   3870     1
   3864   3873     1
   3864   3885     1
   3870   7717     1
   3873   7694     1
   3879   7693     1
   3879   7710     1
   3882   7733     1
   3882   7716     1
   3886   3911     1
   3886   3908     1
   3886   3905     1
   3887   3902     1
   3887   3896     1
   3887   7767     1
   3890   3899     1
   3890   3896     1
   3890   7744     1
   3893   3899     1
   3893   3902     1
   3893   3914     1
   3899   7763     1
   3902   7740     1
   3908   7739     1
   3908   7756     1
   3911   7779     1
   3911   7762     1
   3915   3940     1
   3915   3937     1
   3915   3934     1
   3916   3931     1
   3916   3925     1
   3916   7813     1
   3919   3928     1
   3919   3925     1
   3919   7790     1
   3922   3928     1
   3922   3931     1
   3922   3943     1
   3928   7809     1
   3931   7786     1
   3937   7785     1
   3937   7802     1
   3940   7825     1
   3940   7808     1
   3944   3969     1
   3944   3966     1
   3944   3963     1
   3945   3960     1
   3945   3954     1
   3945   7859     1
   3948   3957     1
   3948   3954     1
   3948   7836     1
   3951   3957     1
   3951   3960     1
   3951   3972     1
   3957   7855     1
   3960   7832     1
   3966   7831     1
   3966   7848     1
   3969   7871     1
   3969   7854     1
   3973   3998     1
   3973   3995     1
   3973   3992     1
   3974   3989     1
   3974   3983     1
   3974   7905     1
   3977   3986     1
   3977   3983     1
   3977   7882     1
   3980   3986     1
   3980   3989     1
   3980   4001     1
   3986   7901     1
   3989   7878     1
   3995   7877     1
   3995   7894     1
   3998   7917     1
   3998   7900     1
   4002   4027     1
   4002   4024     1
   4002   4021     1
   4003   4018     1
   4003   4012     1
   4003   7951     1
   4006   4015     1
   4006   4012     1
   4006   7928     1
   4009   4015     1
   4009   4018     1
   4009   4030     1
   4015   7947     1
   4018   7924     1
   4024   7923     1
   4024   7940     1
   4027   7963     1
   4027   7946     1
   4031   4056     1
   4031   4053     1
   4031   4050     1
   4032   4047     1
   4032   4041     1
   4032   7997     1
   4035   4044     1
   4035   4041     1
   4035   7974     1
   4038   4044     1
   4038   4047     1
   4038   4059     1
   4044   7993     1
   4047   7970     1
   4053   7969     1
   4053   7986     1
   4056   8009     1
   4056   7992     1
   4060   4085     1
   4060   4082     1
   4060   4079     1
   4061   4076     1
   4061   4070     1
   4061   8043     1
   4064   4073     1
   4064   4070     1
   4064   8020     1
   4067   4073     1
   4067   4076     1
   4067   4088     1
   4073   8039     1
   4076   8016     1
   4082   8015     1
   4082   8032     1
   4085   8055     1
   4085   8038     1
   4089   4114     1
   4089   4111     1
   4089   4108     1
   4090   4105     1
   4090   4099     1
   4090   8089     1
   4093   4102     1
   4093   4099     1
   4093   8066     1
   4096   4102     1
   4096   4105     1
   4096   4117     1
   4102   8085     1
   4105   8062     1
   4111   8061     1
   4111   8078     1
   4114   8101     1
   4114   8084     1
   4118   4143     1
   4118   4140     1
   4118   4137     1
   4119   4134     1
   4119   4128     1
   4119   8135     1
   4122   4131     1
   4122   4128     1
   4122   8112     1
   4125   4131     1
   4125   4134     1
   4125   4146     1
   4131   8131     1
   4134   8108     1
   4140   8107     1
   4140   8124     1
   4143   8147     1
   4143   8130     1
   4147   4172     1
   4147   4169     1
   4147   4166     1
   4148   4163     1
   4148   4157     1
   4148   8181     1
   4151   4160     1
   4151   4157     1
   4151   8158     1
   4154   4160     1
   4154   4163     1
   4154   4175     1
   4160   8177     1
   4163   8154     1
   4169   8153     1
   4169   8170     1
   4172   8193     1
   4172   8176     1
   4176   4201     1
   4176   4198     1
   4176   4195     1
   4177   4192     1
   4177   4186     1
   4177   8227     1
   4180   4189     1
   4180   4186     1
   4180   8204     1
   4183   4189     1
   4183   4192     1
   4183   4204     1
   4189   8223     1
   4192   8200     1
   4198   8199     1
   4198   8216     1
   4201   8239     1
   4201   8222     1
   4205   4230     1
   4205   4227     1
   4205   4224     1
   4206   4221     1
   4206   4215     1
   4206   8273     1
   4209   4218     1
   4209   4215     1
   4209   8250     1
   4212   4218     1
   4212   4221     1
   4212   4233     1
   4218   8269     1
   4221   8246     1
   4227   8245     1
   4227   8262     1
   4230   8285     1
   4230   8268     1
   4234   4259     1
   4234   4256     1
   4234   4253     1
   4235   4250     1
   4235   4244     1
   4235   8319     1
   4238   4247     1
   4238   4244     1
   4238   8296     1
   4241   4247     1
   4241   4250     1
   4241   4262     1
   4247   8315     1
   4250   8292     1
   4256   8291     1
   4256   8308     1
   4259   8331     1
   4259   8314     1
   4263   4288     1
   4263   4285     1
   4263   4282     1
   4264   4279     1
   4264   4273     1
   4264   8365     1
   4267   4276     1
   4267   4273     1
   4267   8342     1
   4270   4276     1
   4270   4279     1
   4270   4291     1
   4276   8361     1
   4279   8338     1
   4285   8337     1
   4285   8354     1
   4288   8377     1
   4288   8360     1
   4292   4317     1
   4292   4314     1
   4292   4311     1
   4293   4308     1
   4293   4302     1
   4293   8411     1
   4296   4305     1
   4296   4302     1
   4296   8388     1
   4299   4305     1
   4299   4308     1
   4299   4320     1
   4305   8407     1
   4308   8384     1
   4314   8383     1
   4314   8400     1
   4317   8423     1
   4317   8406     1
   4321   4346     1
   4321   4343     1
   4321   4340     1
   4322   4337     1
   4322   4331     1
   4322   8457     1
   4325   4334     1
   4325   4331     1
   4325   8434     1
   4328   4334     1
   4328   4337     1
   4328   4349     1
   4334   8453     1
   4337   8430     1
   4343   8429     1
   4343   8446     1
   4346   8469     1
   4346   8452     1
   4350   4375     1
   4350   4372     1
   4350   4369     1
   4351   4366     1
   4351   4360     1
   4351   8503     1
   4354   4363     1
   4354   4360     1
   4354   8480     1
   4357   4363     1
   4357   4366     1
   4357   4378     1
   4363   8499     1
   4366   8476     1
   4372   8475     1
   4372   8492     1
   4375   8515     1
   4375   8498     1
   4379   4404     1
   4379   4401     1
   4379   4398     1
   4380   4395     1
   4380   4389     1
   4380   8549     1
   4383   4392     1
   4383   4389     1
   4383   8526     1
   4386   4392     1
   4386   4395     1
   4386   4407     1
   4392   8545     1
   4395   8522     1
   4401   8521     1
   4401   8538     1
   4404   8561     1
   4404   8544     1
   4408   4433     1
   4408   4430     1
   4408   4427     1
   4409   4424     1
   4409   4418     1
   4409   8595     1
   4412   4421     1
   4412   4418     1
   4412   8572     1
   4415   4421     1
   4415   4424     1
   4415   4436     1
   4421   8591     1
   4424   8568     1
   4430   8567     1
   4430   8584     1
   4433   8607     1
   4433   8590     1
   4437   4462     1
   4437   4459     1
   4437   4456     1
   4438   4453     1
   4438   4447     1
   4438   8641     1
   4441   4450     1
   4441   4447     1
   4441   8618     1
   4444   4450     1
   4444   4453     1
   4444   4465     1
   4450   8637     1
   4453   8614     1
   4459   8613     1
   4459   8630     1
   4462   8653     1
   4462   8636     1
   4466   4491     1
   4466   4488     1
   4466   4485     1
   4467   4482     1
   4467   4476     1
   4467   8687     1
   4470   4479     1
   4470   4476     1
   4470   8664     1
   4473   4479     1
   4473   4482     1
   4473   4494     1
   4479   8683     1
   4482   8660     1
   4488   8659     1
   4488   8676     1
   4491   8699     1
   4491   8682     1
   4495   4520     1
   4495   4517     1
   4495   4514     1
   4496   4511     1
   4496   4505     1
   4496   8733     1
   4499   4508     1
   4499   4505     1
   4499   8710     1
   4502   4508     1
   4502   4511     1
   4502   4523     1
   4508   8729     1
   4511   8706     1
   4517   8705     1
   4517   8722     1
   4520   8745     1
   4520   8728     1
   4524   4549     1
   4524   4546     1
   4524   4543     1
   4525   4540     1
   4525   4534     1
   4525   8779     1
   4528   4537     1
   4528   4534     1
   4528   8756     1
   4531   4537     1
   4531   4540     1
   4531   4552     1
   4537   8775     1
   4540   8752     1
   4546   8751     1
   4546   8768     1
   4549   8791     1
   4549   8774     1
   4553   4578     1
   4553   4575     1
   4553   4572     1
   4554   4569     1
   4554   4563     1
   4554   8825     1
   4557   4566     1
   4557   4563     1
   4557   8802     1
   4560   4566     1
   4560   4569     1
   4560   4581     1
   4566   8821     1
   4569   8798     1
   4575   8797     1
   4575   8814     1
   4578   8837     1
   4578   8820     1
   4582   4607     1
   4582   4604     1
   4582   4601     1
   4583   4598     1
   4583   4592     1
   4583   8871     1
   4586   4595     1
   4586   4592     1
   4586   8848     1
   4589   4595     1
   4589   4598     1
   4589   4610     1
   4595   8867     1
   4598   8844     1
   4604   8843     1
   4604   8860     1
   4607   8883     1
   4607   8866     1
   4611   4636     1
   4611   4633     1
   4611   4630     1
   4612   4627     1
   4612   4621     1
   4612   8917     1
   4615   4624     1
   4615   4621     1
   4615   8894     1
   4618   4624     1
   4618   4627     1
   4618   4639     1
   4624   8913     1
   4627   8890     1
   4633   8889     1
   4633   8906     1
   4636   8929     1
   4636   8912     1
   4640   4665     1
   4640   4662     1
   4640   4659     1
   4641   4656     1
   4641   4650     1
   4641   8963     1
   4644   4653     1
   4644   4650     1
   4644   8940     1
   4647   4653     1
   4647   4656     1
   4647   4668     1
   4653   8959     1
   4656   8936     1
   4662   8935     1
   4662   8952     1
   4665   8975     1
   4665   8958     1
   4669   4694     1
   4669   4691     1
   4669   4688     1
   4670   4685     1
   4670   4679     1
   4670   9009     1
   4673   4682     1
   4673   4679     1
   4673   8986     1
   4676   4682     1
   4676   4685     1
   4676   4697     1
   4682   9005     1
   4685   8982     1
   4691   8981     1
   4691   8998     1
   4694   9021     1
   4694   9004     1
   4698   4723     1
   4698   4720     1
   4698   4717     1
   4699   4714     1
   4699   4708     1
   4699   9055     1
   4702   4711     1
   4702   4708     1
   4702   9032     1
   4705   4711     1
   4705   4714     1
   4705   4726     1
   4711   9051     1
   4714   9028     1
   4720   9027     1
   4720   9044     1
   4723   9067     1
   4723   9050     1
   4727   4752     1
   4727   4749     1
   4727   4746     1
   4728   4743     1
   4728   4737     1
   4728   9101     1
   4731   4740     1
   4731   4737     1
   4731   9078     1
   4734   4740     1
   4734   4743     1
   4734   4755     1
   4740   9097     1
   4743   9074     1
   4749   9073     1
   4749   9090     1
   4752   9113     1
   4752   9096     1
   4756   4781     1
   4756   4778     1
   4756   4775     1
   4757   4772     1
   4757   4766     1
   4757   9147     1
   4760   4769     1
   4760   4766     1
   4760   9124     1
   4763   4769     1
   4763   4772     1
   4763   4784     1
   4769   9143     1
   4772   9120     1
   4778   9119     1
   4778   9136     1
   4781   9159     1
   4781   9142     1
   4785   4810     1
   4785   4807     1
   4785   4804     1
   4786   4801     1
   4786   4795     1
   4786   9193     1
   4789   4798     1
   4789   4795     1
   4789   9170     1
   4792   4798     1
   4792   4801     1
   4792   4813     1
   4798   9189     1
   4801   9166     1
   4807   9165     1
   4807   9182     1
   4810   9205     1
   4810   9188     1
   4814   4839     1
   4814   4836     1
   4814   4833     1
   4815   4830     1
   4815   4824     1
   4815   9239     1
   4818   4827     1
   4818   4824     1
   4818   9216     1
   4821   4827     1
   4821   4830     1
   4821   4842     1
   4827   9235     1
   4830   9212     1
   4836   9211     1
   4836   9228     1
   4839   9251     1
   4839   9234     1
   4843   4868     1
   4843   4865     1
   4843   4862     1
   4844   4859     1
   4844   4853     1
   4844   9285     1
   4847   4856     1
   4847   4853     1
   4847   9262     1
   4850   4856     1
   4850   4859     1
   4850   4871     1
   4856   9281     1
   4859   9258     1
   4865   9257     1
   4865   9274     1
   4868   9297     1
   4868   9280     1
   4872   4897     1
   4872   4894     1
   4872   4891     1
   4873   4888     1
   4873   4882     1
   4873   9331     1
   4876   4885     1
   4876   4882     1
   4876   9308     1
   4879   4885     1
   4879   4888     1
   4879   4900     1
   4885   9327     1
   4888   9304     1
   4894   9303     1
   4894   9320     1
   4897   9343     1
   4897   9326     1
   4901   4926     1
   4901   4923     1
   4901   4920     1
   4902   4917     1
   4902   4911     1
   4902   9377     1
   4905   4914     1
   4905   4911     1
   4905   9354     1
   4908   4914     1
   4908   4917     1
   4908   4929     1
   4914   9373     1
   4917   9350     1
   4923   9349     1
   4923   9366     1
   4926   9389     1
   4926   9372     1
   4930   4955     1
   4930   4952     1
   4930   4949     1
   4931   4946     1
   4931   4940     1
   4931   9423     1
   4934   4943     1
   4934   4940     1
   4934   9400     1
   4937   4943     1
   4937   4946     1
   4937   4958     1
   4943   9419     1
   4946   9396     1
   4952   9395     1
   4952   9412     1
   4955   9435     1
   4955   9418     1
   4959   4984     1
   4959   4981     1
   4959   4978     1
   4960   4975     1
   4960   4969     1
   4960   9469     1
   4963   4972     1
   4963   4969     1
   4963   9446     1
   4966   4972     1
   4966   4975     1
   4966   4987     1
   4972   9465     1
   4975   9442     1
   4981   9441     1
   4981   9458     1
   4984   9481     1
   4984   9464     1
   4988   5013     1
   4988   5010     1
   4988   5007     1
   4989   5004     1
   4989   4998     1
   4989   9515     1
   4992   5001     1
   4992   4998     1
   4992   9492     1
   4995   5001     1
   4995   5004     1
   4995   5016     1
   5001   9511     1
   5004   9488     1
   5010   9487     1
   5010   9504     1
   5013   9527     1
   5013   9510     1
   5017   5042     1
   5017   5039     1
   5017   5036     1
   5018   5033     1
   5018   5027     1
   5018   9561     1
   5021   5030     1
   5021   5027     1
   5021   9538     1
   5024   5030     1
   5024   5033     1
   5024   5045     1
   5030   9557     1
   5033   9534     1
   5039   9533     1
   5039   9550     1
   5042   9573     1
   5042   9556     1
   5046   5071     1
   5046   5068     1
   5046   5065     1
   5047   5062     1
   5047   5056     1
   5047   9607     1
   5050   5059     1
   5050   5056     1
   5050   9584     1
   5053   5059     1
   5053   5062     1
   5053   5074     1
   5059   9603     1
   5062   9580     1
   5068   9579     1
   5068   9596     1
   5071   9619     1
   5071   9602     1
   5075   5100     1
   5075   5097     1
   5075   5094     1
   5076   5091     1
   5076   5085     1
   5076   9653     1
   5079   5088     1
   5079   5085     1
   5079   9630     1
   5082   5088     1
   5082   5091     1
   5082   5103     1
   5088   9649     1
   5091   9626     1
   5097   9625     1
   5097   9642     1
   5100   9665     1
   5100   9648     1
   5104   5129     1
   5104   5126     1
   5104   5123     1
   5105   5120     1
   5105   5114     1
   5105   9699     1
   5108   5117     1
   5108   5114     1
   5108   9676     1
   5111   5117     1
   5111   5120     1
   5111   5132     1
   5117   9695     1
   5120   9672     1
   5126   9671     1
   5126   9688     1
   5129   9711     1
   5129   9694     1
   5133   5158     1
   5133   5155     1
   5133   5152     1
   5134   5149     1
   5134   5143     1
   5134   9745     1
   5137   5146     1
   5137   5143     1
   5137   9722     1
   5140   5146     1
   5140   5149     1
   5140   5161     1
   5146   9741     1
   5149   9718     1
   5155   9717     1
   5155   9734     1
   5158   9757     1
   5158   9740     1
   5162   5187     1
   5162   5184     1
   5162   5181     1
   5163   5178     1
   5163   5172     1
   5163   9791     1
   5166   5175     1
   5166   5172     1
   5166   9768     1
   5169   5175     1
   5169   5178     1
   5169   5190     1
   5175   9787     1
   5178   9764     1
   5184   9763     1
   5184   9780     1
   5187   9803     1
   5187   9786     1
   5191   5216     1
   5191   5213     1
   5191   5210     1
   5192   5207     1
   5192   5201     1
   5192   9837     1
   5195   5204     1
   5195   5201     1
   5195   9814     1
   5198   5204     1
   5198   5207     1
   5198   5219     1
   5204   9833     1
   5207   9810     1
   5213   9809     1
   5213   9826     1
   5216   9849     1
   5216   9832     1
   5220   5245     1
   5220   5242     1
   5220   5239     1
   5221   5236     1
   5221   5230     1
   5221   9883     1
   5224   5233     1
   5224   5230     1
   5224   9860     1
   5227   5233     1
   5227   5236     1
   5227   5248     1
   5233   9879     1
   5236   9856     1
   5242   9855     1
   5242   9872     1
   5245   9895     1
   5245   9878     1
   5249   5274     1
   5249   5271     1
   5249   5268     1
   5250   5265     1
   5250   5259     1
   5250   9929     1
   5253   5262     1
   5253   5259     1
   5253   9906     1
   5256   5262     1
   5256   5265     1
   5256   5277     1
   5262   9925     1
   5265   9902     1
   5271   9901     1
   5271   9918     1
   5274   9941     1
   5274   9924     1
   5278   5303     1
   5278   5300     1
   5278   5297     1
   5279   5294     1
   5279   5288     1
   5279   9975     1
   5282   5291     1
   5282   5288     1
   5282   9952     1
   5285   5291     1
   5285   5294     1
   5285   5306     1
   5291   9971     1
   5294   9948     1
   5300   9947     1
   5300   9964     1
   5303   9987     1
   5303   9970     1
   5307   5332     1
   5307   5329     1
   5307   5326     1
   5308   5323     1
   5308   5317     1
   5308  10021     1
   5311   5320     1
   5311   5317     1
   5311   9998     1
   5314   5320     1
   5314   5323     1
   5314   5335     1
   5320  10017     1
   5323   9994     1
   5329   9993     1
   5329  10010     1
   5332  10033     1
   5332  10016     1
   5336   5361     1
   5336   5358     1
   5336   5355     1
   5337   5352     1
   5337   5346     1
   5337  10067     1
   5340   5349     1
   5340   5346     1
   5340  10044     1
   5343   5349     1
   5343   5352     1
   5343   5364     1
   5349  10063     1
   5352  10040     1
   5358  10039     1
   5358  10056     1
   5361  10079     1
   5361  10062     1
   5365   5390     1
   5365   5387     1
   5365   5384     1
   5366   5381     1
   5366   5375     1
   5366  10113     1
   5369   5378     1
   5369   5375     1
   5369  10090     1
   5372   5378     1
   5372   5381     1
   5372   5393     1
   5378  10109     1
   5381  10086     1
   5387  10085     1
   5387  10102     1
   5390  10125     1
   5390  10108     1
   5394   5419     1
   5394   5416     1
   5394   5413     1
   5395   5410     1
   5395   5404     1
   5395  10159     1
   5398   5407     1
   5398   5404     1
   5398  10136     1
   5401   5407     1
   5401   5410     1
   5401   5422     1
   5407  10155     1
   5410  10132     1
   5416  10131     1
   5416  10148     1
   5419  10171     1
   5419  10154     1
   5423   5448     1
   5423   5445     1
   5423   5442     1
   5424   5439     1
   5424   5433     1
   5424  10205     1
   5427   5436     1
   5427   5433     1
   5427  10182     1
   5430   5436     1
   5430   5439     1
   5430   5451     1
   5436  10201     1
   5439  10178     1
   5445  10177     1
   5445  10194     1
   5448  10217     1
   5448  10200     1
   5452   5477     1
   5452   5474     1
   5452   5471     1
   5453   5468     1
   5453   5462     1
   5453  10251     1
   5456   5465     1
   5456   5462     1
   5456  10228     1
   5459   5465     1
   5459   5468     1
   5459   5480     1
   5465  10247     1
   5468  10224     1
   5474  10223     1
   5474  10240     1
   5477  10263     1
   5477  10246     1
   5481   5506     1
   5481   5503     1
   5481   5500     1
   5482   5497     1
   5482   5491     1
   5482  10297     1
   5485   5494     1
   5485   5491     1
   5485  10274     1
   5488   5494     1
   5488   5497     1
   5488   5509     1
   5494  10293     1
   5497  10270     1
   5503  10269     1
   5503  10286     1
   5506  10309     1
   5506  10292     1
   5510   5535     1
   5510   5532     1
   5510   5529     1
   5511   5526     1
   5511   5520     1
   5511  10343     1
   5514   5523     1
   5514   5520     1
   5514  10320     1
   5517   5523     1
   5517   5526     1
   5517   5538     1
   5523  10339     1
   5526  10316     1
   5532  10315     1
   5532  10332     1
   5535  10355     1
   5535  10338     1
   5539   5564     1
   5539   5561     1
   5539   5558     1
   5540   5555     1
   5540   5549     1
   5540  10389     1
   5543   5552     1
   5543   5549     1
   5543  10366     1
   5546   5552     1
   5546   5555     1
   5546   5567     1
   5552  10385     1
   5555  10362     1
   5561  10361     1
   5561  10378     1
   5564  10401     1
   5564  10384     1
   5568   5593     1
   5568   5590     1
   5568   5587     1
   5569   5584     1
   5569   5578     1
   5569  10435     1
   5572   5581     1
   5572   5578     1
   5572  10412     1
   5575   5581     1
   5575   5584     1
   5575   5596     1
   5581  10431     1
   5584  10408     1
   5590  10407     1
   5590  10424     1
   5593  10447     1
   5593  10430     1
   5597   5622     1
   5597   5619     1
   5597   5616     1
   5598   5613     1
   5598   5607     1
   5598  10481     1
   5601   5610     1
   5601   5607     1
   5601  10458     1
   5604   5610     1
   5604   5613     1
   5604   5625     1
   5610  10477     1
   5613  10454     1
   5619  10453     1
   5619  10470     1
   5622  10493     1
   5622  10476     1
   5626   5651     1
   5626   5648     1
   5626   5645     1
   5627   5642     1
   5627   5636     1
   5627  10527     1
   5630   5639     1
   5630   5636     1
   5630  10504     1
   5633   5639     1
   5633   5642     1
   5633   5654     1
   5639  10523     1
   5642  10500     1
   5648  10499     1
   5648  10516     1
   5651  10539     1
   5651  10522     1
   5655   5680     1
   5655   5677     1
   5655   5674     1
   5656   5671     1
   5656   5665     1
   5656  10573     1
   5659   5668     1
   5659   5665     1
   5659  10550     1
   5662   5668     1
   5662   5671     1
   5662   5683     1
   5668  10569     1
   5671  10546     1
   5677  10545     1
   5677  10562     1
   5680  10585     1
   5680  10568     1
   5684   5709     1
   5684   5706     1
   5684   5703     1
   5685   5700     1
   5685   5694     1
   5685  10619     1
   5688   5697     1
   5688   5694     1
   5688  10596     1
   5691   5697     1
   5691   5700     1
   5691   5712     1
   5697  10615     1
   5700  10592     1
   5706  10591     1
   5706  10608     1
   5709  10631     1
   5709  10614     1
   5713   5738     1
   5713   5735     1
   5713   5732     1
   5714   5729     1
   5714   5723     1
   5714  10665     1
   5717   5726     1
   5717   5723     1
   5717  10642     1
   5720   5726     1
   5720   5729     1
   5720   5741     1
   5726  10661     1
   5729  10638     1
   5735  10637     1
   5735  10654     1
   5738  10677     1
   5738  10660     1
   5742   5767     1
   5742   5764     1
   5742   5761     1
   5743   5758     1
   5743   5752     1
   5743  10711     1
   5746   5755     1
   5746   5752     1
   5746  10688     1
   5749   5755     1
   5749   5758     1
   5749   5770     1
   5755  10707     1
   5758  10684     1
   5764  10683     1
   5764  10700     1
   5767  10723     1
   5767  10706     1
   5771   5796     1
   5771   5793     1
   5771   5790     1
   5772   5787     1
   5772   5781     1
   5772  10757     1
   5775   5784     1
   5775   5781     1
   5775  10734     1
   5778   5784     1
   5778   5787     1
   5778   5799     1
   5784  10753     1
   5787  10730     1
   5793  10729     1
   5793  10746     1
   5796  10769     1
   5796  10752     1
   5800   5825     1
   5800   5822     1
   5800   5819     1
   5801   5816     1
   5801   5810     1
   5801  10803     1
   5804   5813     1
   5804   5810     1
   5804  10780     1
   5807   5813     1
   5807   5816     1
   5807   5828     1
   5813  10799     1
   5816  10776     1
   5822  10775     1
   5822  10792     1
   5825  10815     1
   5825  10798     1
   5829   5854     1
   5829   5851     1
   5829   5848     1
   5830   5845     1
   5830   5839     1
   5830  10849     1
   5833   5842     1
   5833   5839     1
   5833  10826     1
   5836   5842     1
   5836   5845     1
   5836   5857     1
   5842  10845     1
   5845  10822     1
   5851  10821     1
   5851  10838     1
   5854  10861     1
   5854  10844     1
   5858   5883     1
   5858   5880     1
   5858   5877     1
   5859   5874     1
   5859   5868     1
   5859  10895     1
   5862   5871     1
   5862   5868     1
   5862  10872     1
   5865   5871     1
   5865   5874     1
   5865   5886     1
   5871  10891     1
   5874  10868     1
   5880  10867     1
   5880  10884     1
   5883  10907     1
   5883  10890     1
   5887   5912     1
   5887   5909     1
   5887   5906     1
   5888   5903     1
   5888   5897     1
   5888  10941     1
   5891   5900     1
   5891   5897     1
   5891  10918     1
   5894   5900     1
   5894   5903     1
   5894   5915     1
   5900  10937     1
   5903  10914     1
   5909  10913     1
   5909  10930     1
   5912  10953     1
   5912  10936     1
   5916   5941     1
   5916   5938     1
   5916   5935     1
   5917   5932     1
   5917   5926     1
   5917  10987     1
   5920   5929     1
   5920   5926     1
   5920  10964     1
   5923   5929     1
   5923   5932     1
   5923   5944     1
   5929  10983     1
   5932  10960     1
   5938  10959     1
   5938  10976     1
   5941  10999     1
   5941  10982     1
   5945   5970     1
   5945   5967     1
   5945   5964     1
   5946   5961     1
   5946   5955     1
   5946  11033     1
   5949   5958     1
   5949   5955     1
   5949  11010     1
   5952   5958     1
   5952   5961     1
   5952   5973     1
   5958  11029     1
   5961  11006     1
   5967  11005     1
   5967  11022     1
   5970  11045     1
   5970  11028     1
   5974   5999     1
   5974   5996     1
   5974   5993     1
   5975   5990     1
   5975   5984     1
   5975  11079     1
   5978   5987     1
   5978   5984     1
   5978  11056     1
   5981   5987     1
   5981   5990     1
   5981   6002     1
   5987  11075     1
   5990  11052     1
   5996  11051     1
   5996  11068     1
   5999  11091     1
   5999  11074     1
   6003   6028     1
   6003   6025     1
   6003   6022     1
   6004   6019     1
   6004   6013     1
   6004  11125     1
   6007   6016     1
   6007   6013     1
   6007  11102     1
   6010   6016     1
   6010   6019     1
   6010   6031     1
   6016  11121     1
   6019  11098     1
   6025  11097     1
   6025  11114     1
   6028  11137     1
   6028  11120     1
   6032   6057     1
   6032   6054     1
   6032   6051     1
   6033   6048     1
   6033   6042     1
   6033  11171     1
   6036   6045     1
   6036   6042     1
   6036  11148     1
   6039   6045     1
   6039   6048     1
   6039   6060     1
   6045  11167     1
   6048  11144     1
   6054  11143     1
   6054  11160     1
   6057  11183     1
   6057  11166     1
   6061   6086     1
   6061   6083     1
   6061   6080     1
   6062   6077     1
   6062   6071     1
   6062  11217     1
   6065   6074     1
   6065   6071     1
   6065  11194     1
   6068   6074     1
   6068   6077     1
   6068   6089     1
   6074  11213     1
   6077  11190     1
   6083  11189     1
   6083  11206     1
   6086  11229     1
   6086  11212     1
   6090   6115     1
   6090   6112     1
   6090   6109     1
   6091   6106     1
   6091   6100     1
   6091  11263     1
   6094   6103     1
   6094   6100     1
   6094  11240     1
   6097   6103     1
   6097   6106     1
   6097   6118     1
   6103  11259     1
   6106  11236     1
   6112  11235     1
   6112  11252     1
   6115  11275     1
   6115  11258     1
   6119   6144     1
   6119   6141     1
   6119   6138     1
   6120   6135     1
   6120   6129     1
   6120  11309     1
   6123   6132     1
   6123   6129     1
   6123  11286     1
   6126   6132     1
   6126   6135     1
   6126   6147     1
   6132  11305     1
   6135  11282     1
   6141  11281     1
   6141  11298     1
   6144  11321     1
   6144  11304     1
   6148   6173     1
   6148   6170     1
   6148   6167     1
   6149   6164     1
   6149   6158     1
   6149  11355     1
   6152   6161     1
   6152   6158     1
   6152  11332     1
   6155   6161     1
   6155   6164     1
   6155   6176     1
   6161  11351     1
   6164  11328     1
   6170  11327     1
   6170  11344     1
   6173  11367     1
   6173  11350     1
   6177   6202     1
   6177   6199     1
   6177   6196     1
   6178   6193     1
   6178   6187     1
   6178  11401     1
   6181   6190     1
   6181   6187     1
   6181  11378     1
   6184   6190     1
   6184   6193     1
   6184   6205     1
   6190  11397     1
   6193  11374     1
   6199  11373     1
   6199  11390     1
   6202  11413     1
   6202  11396     1
   6206   6231     1
   6206   6228     1
   6206   6225     1
   6207   6222     1
   6207   6216     1
   6207  11447     1
   6210   6219     1
   6210   6216     1
   6210  11424     1
   6213   6219     1
   6213   6222     1
   6213   6234     1
   6219  11443     1
   6222  11420     1
   6228  11419     1
   6228  11436     1
   6231  11459     1
   6231  11442     1
   6235   6260     1
   6235   6257     1
   6235   6254     1
   6236   6251     1
   6236   6245     1
   6236  11493     1
   6239   6248     1
   6239   6245     1
   6239  11470     1
   6242   6248     1
   6242   6251     1
   6242   6263     1
   6248  11489     1
   6251  11466     1
   6257  11465     1
   6257  11482     1
   6260  11505     1
   6260  11488     1
   6264   6289     1
   6264   6286     1
   6264   6283     1
   6265   6280     1
   6265   6274     1
   6265  11539     1
   6268   6277     1
   6268   6274     1
   6268  11516     1
   6271   6277     1
   6271   6280     1
   6271   6292     1
   6277  11535     1
   6280  11512     1
   6286  11511     1
   6286  11528     1
   6289  11551     1
   6289  11534     1
   6293   6318     1
   6293   6315     1
   6293   6312     1
   6294   6309     1
   6294   6303     1
   6294  11585     1
   6297   6306     1
   6297   6303     1
   6297  11562     1
   6300   6306     1
   6300   6309     1
   6300   6321     1
   6306  11581     1
   6309  11558     1
   6315  11557     1
   6315  11574     1
   6318  11597     1
   6318  11580     1
   6322   6347     1
   6322   6344     1
   6322   6341     1
   6323   6338     1
   6323   6332     1
   6323  11631     1
   6326   6335     1
   6326   6332     1
   6326  11608     1
   6329   6335     1
   6329   6338     1
   6329   6350     1
   6335  11627     1
   6338  11604     1
   6344  11603     1
   6344  11620     1
   6347  11643     1
   6347  11626     1
   6351   6376     1
   6351   6373     1
   6351   6370     1
   6352   6367     1
   6352   6361     1
   6352  11677     1
   6355   6364     1
   6355   6361     1
   6355  11654     1
   6358   6364     1
   6358   6367     1
   6358   6379     1
   6364  11673     1
   6367  11650     1
   6373  11649     1
   6373  11666     1
   6376  11689     1
   6376  11672     1
   6380   6405     1
   6380   6402     1
   6380   6399     1
   6381   6396     1
   6381   6390     1
   6381  11723     1
   6384   6393     1
   6384   6390     1
   6384  11700     1
   6387   6393     1
   6387   6396     1
   6387   6408     1
   6393  11719     1
   6396  11696     1
   6402  11695     1
   6402  11712     1
   6405  11735     1
   6405  11718     1
   6409   6434     1
   6409   6431     1
   6409   6428     1
   6410   6425     1
   6410   6419     1
   6410  11769     1
   6413   6422     1
   6413   6419     1
   6413  11746     1
   6416   6422     1
   6416   6425     1
   6416   6437     1
   6422  11765     1
   6425  11742     1
   6431  11741     1
   6431  11758     1
   6434  11781     1
   6434  11764     1
   6438   6463     1
   6438   6460     1
   6438   6457     1
   6439   6454     1
   6439   6448     1
   6439  11815     1
   6442   6451     1
   6442   6448     1
   6442  11792     1
   6445   6451     1
   6445   6454     1
   6445   6466     1
   6451  11811     1
   6454  11788     1
   6460  11787     1
   6460  11804     1
   6463  11827     1
   6463  11810     1
   6467   6492     1
   6467   6489     1
   6467   6486     1
   6468   6483     1
   6468   6477     1
   6468  11861     1
   6471   6480     1
   6471   6477     1
   6471  11838     1
   6474   6480     1
   6474   6483     1
   6474   6495     1
   6480  11857     1
   6483  11834     1
   6489  11833     1
   6489  11850     1
   6492  11873     1
   6492  11856     1
   6496   6521     1
   6496   6518     1
   6496   6515     1
   6497   6512     1
   6497   6506     1
   6497  11907     1
   6500   6509     1
   6500   6506     1
   6500  11884     1
   6503   6509     1
   6503   6512     1
   6503   6524     1
   6509  11903     1
   6512  11880     1
   6518  11879     1
   6518  11896     1
   6521  11919     1
   6521  11902     1
   6525   6550     1
   6525   6547     1
   6525   6544     1
   6526   6541     1
   6526   6535     1
   6526  11953     1
   6529   6538     1
   6529   6535     1
   6529  11930     1
   6532   6538     1
   6532   6541     1
   6532   6553     1
   6538  11949     1
   6541  11926     1
   6547  11925     1
   6547  11942     1
   6550  11965     1
   6550  11948     1
   6554   6579     1
   6554   6576     1
   6554   6573     1
   6555   6570     1
   6555   6564     1
   6555  11999     1
   6558   6567     1
   6558   6564     1
   6558  11976     1
   6561   6567     1
   6561   6570     1
   6561   6582     1
   6567  11995     1
   6570  11972     1
   6576  11971     1
   6576  11988     1
   6579  12011     1
   6579  11994     1
   6583   6608     1
   6583   6605     1
   6583   6602     1
   6584   6599     1
   6584   6593     1
   6584  12045     1
   6587   6596     1
   6587   6593     1
   6587  12022     1
   6590   6596     1
   6590   6599     1
   6590   6611     1
   6596  12041     1
   6599  12018     1
   6605  12017     1
   6605  12034     1
   6608  12057     1
   6608  12040     1
   6612   6637     1
   6612   6634     1
   6612   6631     1
   6613   6628     1
   6613   6622     1
   6613  12091     1
   6616   6625     1
   6616   6622     1
   6616  12068     1
   6619   6625     1
   6619   6628     1
   6619   6640     1
   6625  12087     1
   6628  12064     1
   6634  12063     1
   6634  12080     1
   6637  12103     1
   6637  12086     1
   6641   6666     1
   6641   6663     1
   6641   6660     1
   6642   6657     1
   6642   6651     1
   6642  12137     1
   6645   6654     1
   6645   6651     1
   6645  12114     1
   6648   6654     1
   6648   6657     1
   6648   6669     1
   6654  12133     1
   6657  12110     1
   6663  12109     1
   6663  12126     1
   6666  12149     1
   6666  12132     1
   6670   6695     1
   6670   6692     1
   6670   6689     1
   6671   6686     1
   6671   6680     1
   6671  12183     1
   6674   6683     1
   6674   6680     1
   6674  12160     1
   6677   6683     1
   6677   6686     1
   6677   6698     1
   6683  12179     1
   6686  12156     1
   6692  12155     1
   6692  12172     1
   6695  12195     1
   6695  12178     1
   6699   6724     1
   6699   6721     1
   6699   6718     1
   6700   6715     1
   6700   6709     1
   6700  12229     1
   6703   6712     1
   6703   6709     1
   6703  12206     1
   6706   6712     1
   6706   6715     1
   6706   6727     1
   6712  12225     1
   6715  12202     1
   6721  12201     1
   6721  12218     1
   6724  12241     1
   6724  12224     1
   6728   6753     1
   6728   6750     1
   6728   6747     1
   6729   6744     1
   6729   6738     1
   6729  12275     1
   6732   6741     1
   6732   6738     1
   6732  12252     1
   6735   6741     1
   6735   6744     1
   6735   6756     1
   6741  12271     1
   6744  12248     1
   6750  12247     1
   6750  12264     1
   6753  12287     1
   6753  12270     1
   6757   6782     1
   6757   6779     1
   6757   6776     1
   6758   6773     1
   6758   6767     1
   6758  12321     1
   6761   6770     1
   6761   6767     1
   6761  12298     1
   6764   6770     1
   6764   6773     1
   6764   6785     1
   6770  12317     1
   6773  12294     1
   6779  12293     1
   6779  12310     1
   6782  12333     1
   6782  12316     1
   6786   6811     1
   6786   6808     1
   6786   6805     1
   6787   6802     1
   6787   6796     1
   6787  12367     1
   6790   6799     1
   6790   6796     1
   6790  12344     1
   6793   6799     1
   6793   6802     1
   6793   6814     1
   6799  12363     1
   6802  12340     1
   6808  12339     1
   6808  12356     1
   6811  12379     1
   6811  12362     1
   6815   6840     1
   6815   6837     1
   6815   6834     1
   6816   6831     1
   6816   6825     1
   6816  12413     1
   6819   6828     1
   6819   6825     1
   6819  12390     1
   6822   6828     1
   6822   6831     1
   6822   6843     1
   6828  12409     1
   6831  12386     1
   6837  12385     1
   6837  12402     1
   6840  12425     1
   6840  12408     1
   6844   6869     1
   6844   6866     1
   6844   6863     1
   6845   6860     1
   6845   6854     1
   6845  12459     1
   6848   6857     1
   6848   6854     1
   6848  12436     1
   6851   6857     1
   6851   6860     1
   6851   6872     1
   6857  12455     1
   6860  12432     1
   6866  12431     1
   6866  12448     1
   6869  12471     1
   6869  12454     1
   6873   6898     1
   6873   6895     1
   6873   6892     1
   6874   6889     1
   6874   6883     1
   6874  12505     1
   6877   6886     1
   6877   6883     1
   6877  12482     1
   6880   6886     1
   6880   6889     1
   6880   6901     1
   6886  12501     1
   6889  12478     1
   6895  12477     1
   6895  12494     1
   6898  12517     1
   6898  12500     1
   6902   6927     1
   6902   6924     1
   6902   6921     1
   6903   6918     1
   6903   6912     1
   6903  12551     1
   6906   6915     1
   6906   6912     1
   6906  12528     1
   6909   6915     1
   6909   6918     1
   6909   6930     1
   6915  12547     1
   6918  12524     1
   6924  12523     1
   6924  12540     1
   6927  12563     1
   6927  12546     1
   6931   6956     1
   6931   6953     1
   6931   6950     1
   6932   6947     1
   6932   6941     1
   6932  12597     1
   6935   6944     1
   6935   6941     1
   6935  12574     1
   6938   6944     1
   6938   6947     1
   6938   6959     1
   6944  12593     1
   6947  12570     1
   6953  12569     1
   6953  12586     1
   6956  12609     1
   6956  12592     1
   6960   6985     1
   6960   6982     1
   6960   6979     1
   6961   6976     1
   6961   6970     1
   6961  12643     1
   6964   6973     1
   6964   6970     1
   6964  12620     1
   6967   6973     1
   6967   6976     1
   6967   6988     1
   6973  12639     1
   6976  12616     1
   6982  12615     1
   6982  12632     1
   6985  12655     1
   6985  12638     1
   6989   7014     1
   6989   7011     1
   6989   7008     1
   6990   7005     1
   6990   6999     1
   6990  12689     1
   6993   7002     1
   6993   6999     1
   6993  12666     1
   6996   7002     1
   6996   7005     1
   6996   7017     1
   7002  12685     1
   7005  12662     1
   7011  12661     1
   7011  12678     1
   7014  12701     1
   7014  12684     1
   7018   7043     1
   7018   7040     1
   7018   7037     1
   7019   7034     1
   7019   7028     1
   7019  12735     1
   7022   7031     1
   7022   7028     1
   7022  12712     1
   7025   7031     1
   7025   7034     1
   7025   7046     1
   7031  12731     1
   7034  12708     1
   7040  12707     1
   7040  12724     1
   7043  12747     1
   7043  12730     1
   7047   7072     1
   7047   7069     1
   7047   7066     1
   7048   7063     1
   7048   7057     1
   7048  12781     1
   7051   7060     1
   7051   7057     1
   7051  12758     1
   7054   7060     1
   7054   7063     1
   7054   7075     1
   7060  12777     1
   7063  12754     1
   7069  12753     1
   7069  12770     1
   7072  12793     1
   7072  12776     1
   7076   7101     1
   7076   7098     1
   7076   7095     1
   7077   7092     1
   7077   7086     1
   7077  12827     1
   7080   7089     1
   7080   7086     1
   7080  12804     1
   7083   7089     1
   7083   7092     1
   7083   7104     1
   7089  12823     1
   7092  12800     1
   7098  12799     1
   7098  12816     1
   7101  12839     1
   7101  12822     1
   7105   7130     1
   7105   7127     1
   7105   7124     1
   7106   7121     1
   7106   7115     1
   7106  12873     1
   7109   7118     1
   7109   7115     1
   7109  12850     1
   7112   7118     1
   7112   7121     1
   7112   7133     1
   7118  12869     1
   7121  12846     1
   7127  12845     1
   7127  12862     1
   7130  12885     1
   7130  12868     1
   7134   7159     1
   7134   7156     1
   7134   7153     1
   7135   7150     1
   7135   7144     1
   7135  12919     1
   7138   7147     1
   7138   7144     1
   7138  12896     1
   7141   7147     1
   7141   7150     1
   7141   7162     1
   7147  12915     1
   7150  12892     1
   7156  12891     1
   7156  12908     1
   7159  12931     1
   7159  12914     1
   7163   7188     1
   7163   7185     1
   7163   7182     1
   7164   7179     1
   7164   7173     1
   7164  12965     1
   7167   7176     1
   7167   7173     1
   7167  12942     1
   7170   7176     1
   7170   7179     1
   7170   7191     1
   7176  12961     1
   7179  12938     1
   7185  12937     1
   7185  12954     1
   7188  12977     1
   7188  12960     1
   7192   7217     1
   7192   7214     1
   7192   7211     1
   7193   7208     1
   7193   7202     1
   7193  13011     1
   7196   7205     1
   7196   7202     1
   7196  12988     1
   7199   7205     1
   7199   7208     1
   7199   7220     1
   7205  13007     1
   7208  12984     1
   7214  12983     1
   7214  13000     1
   7217  13023     1
   7217  13006     1
   7221   7246     1
   7221   7243     1
   7221   7240     1
   7222   7237     1
   7222   7231     1
   7222  13057     1
   7225   7234     1
   7225   7231     1
   7225  13034     1
   7228   7234     1
   7228   7237     1
   7228   7249     1
   7234  13053     1
   7237  13030     1
   7243  13029     1
   7243  13046     1
   7246  13069     1
   7246  13052     1
   7250   7275     1
   7250   7272     1
   7250   7269     1
   7251   7266     1
   7251   7260     1
   7251  13103     1
   7254   7263     1
   7254   7260     1
   7254  13080     1
   7257   7263     1
   7257   7266     1
   7257   7278     1
   7263  13099     1
   7266  13076     1
   7272  13075     1
   7272  13092     1
   7275  13115     1
   7275  13098     1
   7279   7304     1
   7279   7301     1
   7279   7298     1
   7280   7295     1
   7280   7289     1
   7280  13149     1
   7283   7292     1
   7283   7289     1
   7283  13126     1
   7286   7292     1
   7286   7295     1
   7286   7307     1
   7292  13145     1
   7295  13122     1
   7301  13121     1
   7301  13138     1
   7304  13161     1
   7304  13144     1
   7308   7333     1
   7308   7330     1
   7308   7327     1
   7309   7324     1
   7309   7318     1
   7309  13195     1
   7312   7321     1
   7312   7318     1
   7312  13172     1
   7315   7321     1
   7315   7324     1
   7315   7336     1
   7321  13191     1
   7324  13168     1
   7330  13167     1
   7330  13184     1
   7333  13207     1
   7333  13190     1
   7337   7362     1
   7337   7359     1
   7337   7356     1
   7338   7353     1
   7338   7347     1
   7338  13241     1
   7341   7350     1
   7341   7347     1
   7341  13218     1
   7344   7350     1
   7344   7353     1
   7344   7365     1
   7350  13237     1
   7353  13214     1
   7359  13213     1
   7359  13230     1
   7362  13253     1
   7362  13236     1
   7366   7371     1
   7366   7378     1
   7366   7376     1
   7367   7386     1
   7367   7372     1
   7367   7377     1
   7370   7380     1
   7370   7388     1
   7370   7376     1
   7371   7379     1
   7372   7378     1
   7372   7380     1
   7376   7377     1
   7377   7378     1
   7377   7388     1
   7378   7379     1
   7379   7380     1
   7379   7388     1
   7386   7388     1
   7389   7394     1
   7389   7401     1
   7389   7399     1
   7390   7395     1
   7390   7400     1
   7390   7409     1
   7393   7399     1
   7393   7411     1
   7393   7403     1
   7394   7402     1
   7395   7403     1
   7395   7401     1
   7399   7400     1
   7400   7411     1
   7400   7401     1
   7401   7402     1
   7402   7403     1
   7402   7411     1
   7409   7411     1
   7412   7417     1
   7412   7424     1
   7412   7422     1
   7413   7432     1
   7413   7418     1
   7413   7423     1
   7416   7426     1
   7416   7434     1
   7416   7422     1
   7417   7425     1
   7418   7424     1
   7418   7426     1
   7422   7423     1
   7423   7424     1
   7423   7434     1
   7424   7425     1
   7425   7426     1
   7425   7434     1
   7432   7434     1
   7435   7440     1
   7435   7447     1
   7435   7445     1
   7436   7441     1
   7436   7446     1
   7436   7455     1
   7439   7445     1
   7439   7457     1
   7439   7449     1
   7440   7448     1
   7441   7449     1
   7441   7447     1
   7445   7446     1
   7446   7457     1
   7446   7447     1
   7447   7448     1
   7448   7449     1
   7448   7457     1
   7455   7457     1
   7458   7463     1
   7458   7470     1
   7458   7468     1
   7459   7478     1
   7459   7464     1
   7459   7469     1
   7462   7472     1
   7462   7480     1
   7462   7468     1
   7463   7471     1
   7464   7470     1
   7464   7472     1
   7468   7469     1
   7469   7470     1
   7469   7480     1
   7470   7471     1
   7471   7472     1
   7471   7480     1
   7478   7480     1
   7481   7486     1
   7481   7493     1
   7481   7491     1
   7482   7487     1
   7482   7492     1
   7482   7501     1
   7485   7491     1
   7485   7503     1
   7485   7495     1
   7486   7494     1
   7487   7495     1
   7487   7493     1
   7491   7492     1
   7492   7503     1
   7492   7493     1
   7493   7494     1
   7494   7495     1
   7494   7503     1
   7501   7503     1
   7504   7509     1
   7504   7516     1
   7504   7514     1
   7505   7524     1
   7505   7510     1
   7505   7515     1
   7508   7518     1
   7508   7526     1
   7508   7514     1
   7509   7517     1
   7510   7516     1
   7510   7518     1
   7514   7515     1
   7515   7516     1
   7515   7526     1
   7516   7517     1
   7517   7518     1
   7517   7526     1
   7524   7526     1
   7527   7532     1
   7527   7539     1
   7527   7537     1
   7528   7533     1
   7528   7538     1
   7528   7547     1
   7531   7537     1
   7531   7549     1
   7531   7541     1
   7532   7540     1
   7533   7541     1
   7533   7539     1
   7537   7538     1
   7538   7549     1
   7538   7539     1
   7539   7540     1
   7540   7541     1
   7540   7549     1
   7547   7549     1
   7550   7555     1
   7550   7562     1
   7550   7560     1
   7551   7570     1
   7551   7556     1
   7551   7561     1
   7554   7564     1
   7554   7572     1
   7554   7560     1
   7555   7563     1
   7556   7562     1
   7556   7564     1
   7560   7561     1
   7561   7562     1
   7561   7572     1
   7562   7563     1
   7563   7564     1
   7563   7572     1
   7570   7572     1
   7573   7578     1
   7573   7585     1
   7573   7583     1
   7574   7579     1
   7574   7584     1
   7574   7593     1
   7577   7583     1
   7577   7595     1
   7577   7587     1
   7578   7586     1
   7579   7587     1
   7579   7585     1
   7583   7584     1
   7584   7595     1
   7584   7585     1
   7585   7586     1
   7586   7587     1
   7586   7595     1
   7593   7595     1
   7596   7601     1
   7596   7608     1
   7596   7606     1
   7597   7616     1
   7597   7602     1
   7597   7607     1
   7600   7610     1
   7600   7618     1
   7600   7606     1
   7601   7609     1
   7602   7608     1
   7602   7610     1
   7606   7607     1
   7607   7608     1
   7607   7618     1
   7608   7609     1
   7609   7610     1
   7609   7618     1
   7616   7618     1
   7619   7624     1
   7619   7631     1
   7619   7629     1
   7620   7625     1
   7620   7630     1
   7620   7639     1
   7623   7629     1
   7623   7641     1
   7623   7633     1
   7624   7632     1
   7625   7633     1
   7625   7631     1
   7629   7630     1
   7630   7641     1
   7630   7631     1
   7631   7632     1
   7632   7633     1
   7632   7641     1
   7639   7641     1
   7642   7647     1
   7642   7654     1
   7642   7652     1
   7643   7662     1
   7643   7648     1
   7643   7653     1
   7646   7656     1
   7646   7664     1
   7646   7652     1
   7647   7655     1
   7648   7654     1
   7648   7656     1
   7652   7653     1
   7653   7654     1
   7653   7664     1
   7654   7655     1
   7655   7656     1
   7655   7664     1
   7662   7664     1
   7665   7670     1
   7665   7677     1
   7665   7675     1
   7666   7671     1
   7666   7676     1
   7666   7685     1
   7669   7675     1
   7669   7687     1
   7669   7679     1
   7670   7678     1
   7671   7679     1
   7671   7677     1
   7675   7676     1
   7676   7687     1
   7676   7677     1
   7677   7678     1
   7678   7679     1
   7678   7687     1
   7685   7687     1
   7688   7693     1
   7688   7700     1
   7688   7698     1
   7689   7708     1
   7689   7694     1
   7689   7699     1
   7692   7702     1
   7692   7710     1
   7692   7698     1
   7693   7701     1
   7694   7700     1
   7694   7702     1
   7698   7699     1
   7699   7700     1
   7699   7710     1
   7700   7701     1
   7701   7702     1
   7701   7710     1
   7708   7710     1
   7711   7716     1
   7711   7723     1
   7711   7721     1
   7712   7717     1
   7712   7722     1
   7712   7731     1
   7715   7721     1
   7715   7733     1
   7715   7725     1
   7716   7724     1
   7717   7725     1
   7717   7723     1
   7721   7722     1
   7722   7733     1
   7722   7723     1
   7723   7724     1
   7724   7725     1
   7724   7733     1
   7731   7733     1
   7734   7739     1
   7734   7746     1
   7734   7744     1
   7735   7754     1
   7735   7740     1
   7735   7745     1
   7738   7748     1
   7738   7756     1
   7738   7744     1
   7739   7747     1
   7740   7746     1
   7740   7748     1
   7744   7745     1
   7745   7746     1
   7745   7756     1
   7746   7747     1
   7747   7748     1
   7747   7756     1
   7754   7756     1
   7757   7762     1
   7757   7769     1
   7757   7767     1
   7758   7763     1
   7758   7768     1
   7758   7777     1
   7761   7767     1
   7761   7779     1
   7761   7771     1
   7762   7770     1
   7763   7771     1
   7763   7769     1
   7767   7768     1
   7768   7779     1
   7768   7769     1
   7769   7770     1
   7770   7771     1
   7770   7779     1
   7777   7779     1
   7780   7785     1
   7780   7792     1
   7780   7790     1
   7781   7800     1
   7781   7786     1
   7781   7791     1
   7784   7794     1
   7784   7802     1
   7784   7790     1
   7785   7793     1
   7786   7792     1
   7786   7794     1
   7790   7791     1
   7791   7792     1
   7791   7802     1
   7792   7793     1
   7793   7794     1
   7793   7802     1
   7800   7802     1
   7803   7808     1
   7803   7815     1
   7803   7813     1
   7804   7809     1
   7804   7814     1
   7804   7823     1
   7807   7813     1
   7807   7825     1
   7807   7817     1
   7808   7816     1
   7809   7817     1
   7809   7815     1
   7813   7814     1
   7814   7825     1
   7814   7815     1
   7815   7816     1
   7816   7817     1
   7816   7825     1
   7823   7825     1
   7826   7831     1
   7826   7838     1
   7826   7836     1
   7827   7846     1
   7827   7832     1
   7827   7837     1
   7830   7840     1
   7830   7848     1
   7830   7836     1
   7831   7839     1
   7832   7838     1
   7832   7840     1
   7836   7837     1
   7837   7838     1
   7837   7848     1
   7838   7839     1
   7839   7840     1
   7839   7848     1
   7846   7848     1
   7849   7854     1
   7849   7861     1
   7849   7859     1
   7850   7855     1
   7850   7860     1
   7850   7869     1
   7853   7859     1
   7853   7871     1
   7853   7863     1
   7854   7862     1
   7855   7863     1
   7855   7861     1
   7859   7860     1
   7860   7871     1
   7860   7861     1
   7861   7862     1
   7862   7863     1
   7862   7871     1
   7869   7871     1
   7872   7877     1
   7872   7884     1
   7872   7882     1
   7873   7892     1
   7873   7878     1
   7873   7883     1
   7876   7886     1
   7876   7894     1
   7876   7882     1
   7877   7885     1
   7878   7884     1
   7878   7886     1
   7882   7883     1
   7883   7884     1
   7883   7894     1
   7884   7885     1
   7885   7886     1
   7885   7894     1
   7892   7894     1
   7895   7900     1
   7895   7907     1
   7895   7905     1
   7896   7901     1
   7896   7906     1
   7896   7915     1
   7899   7905     1
   7899   7917     1
   7899   7909     1
   7900   7908     1
   7901   7909     1
   7901   7907     1
   7905   7906     1
   7906   7917     1
   7906   7907     1
   7907   7908     1
   7908   7909     1
   7908   7917     1
   7915   7917     1
   7918   7923     1
   7918   7930     1
   7918   7928     1
   7919   7938     1
   7919   7924     1
   7919   7929     1
   7922   7932     1
   7922   7940     1
   7922   7928     1
   7923   7931     1
   7924   7930     1
   7924   7932     1
   7928   7929     1
   7929   7930     1
   7929   7940     1
   7930   7931     1
   7931   7932     1
   7931   7940     1
   7938   7940     1
   7941   7946     1
   7941   7953     1
   7941   7951     1
   7942   7947     1
   7942   7952     1
   7942   7961     1
   7945   7951     1
   7945   7963     1
   7945   7955     1
   7946   7954     1
   7947   7955     1
   7947   7953     1
   7951   7952     1
   7952   7963     1
   7952   7953     1
   7953   7954     1
   7954   7955     1
   7954   7963     1
   7961   7963     1
   7964   7969     1
   7964   7976     1
   7964   7974     1
   7965   7984     1
   7965   7970     1
   7965   7975     1
   7968   7978     1
   7968   7986     1
   7968   7974     1
   7969   7977     1
   7970   7976     1
   7970   7978     1
   7974   7975     1
   7975   7976     1
   7975   7986     1
   7976   7977     1
   7977   7978     1
   7977   7986     1
   7984   7986     1
   7987   7992     1
   7987   7999     1
   7987   7997     1
   7988   7993     1
   7988   7998     1
   7988   8007     1
   7991   7997     1
   7991   8009     1
   7991   8001     1
   7992   8000     1
   7993   8001     1
   7993   7999     1
   7997   7998     1
   7998   8009     1
   7998   7999     1
   7999   8000     1
   8000   8001     1
   8000   8009     1
   8007   8009     1
   8010   8015     1
   8010   8022     1
   8010   8020     1
   8011   8030     1
   8011   8016     1
   8011   8021     1
   8014   8024     1
   8014   8032     1
   8014   8020     1
   8015   8023     1
   8016   8022     1
   8016   8024     1
   8020   8021     1
   8021   8022     1
   8021   8032     1
   8022   8023     1
   8023   8024     1
   8023   8032     1
   8030   8032     1
   8033   8038     1
   8033   8045     1
   8033   8043     1
   8034   8039     1
   8034   8044     1
   8034   8053     1
   8037   8043     1
   8037   8055     1
   8037   8047     1
   8038   8046     1
   8039   8047     1
   8039   8045     1
   8043   8044     1
   8044   8055     1
   8044   8045     1
   8045   8046     1
   8046   8047     1
   8046   8055     1
   8053   8055     1
   8056   8061     1
   8056   8068     1
   8056   8066     1
   8057   8076     1
   8057   8062     1
   8057   8067     1
   8060   8070     1
   8060   8078     1
   8060   8066     1
   8061   8069     1
   8062   8068     1
   8062   8070     1
   8066   8067     1
   8067   8068     1
   8067   8078     1
   8068   8069     1
   8069   8070     1
   8069   8078     1
   8076   8078     1
   8079   8084     1
   8079   8091     1
   8079   8089     1
   8080   8085     1
   8080   8090     1
   8080   8099     1
   8083   8089     1
   8083   8101     1
   8083   8093     1
   8084   8092     1
   8085   8093     1
   8085   8091     1
   8089   8090     1
   8090   8101     1
   8090   8091     1
   8091   8092     1
   8092   8093     1
   8092   8101     1
   8099   8101     1
   8102   8107     1
   8102   8114     1
   8102   8112     1
   8103   8122     1
   8103   8108     1
   8103   8113     1
   8106   8116     1
   8106   8124     1
   8106   8112     1
   8107   8115     1
   8108   8114     1
   8108   8116     1
   8112   8113     1
   8113   8114     1
   8113   8124     1
   8114   8115     1
   8115   8116     1
   8115   8124     1
   8122   8124     1
   8125   8130     1
   8125   8137     1
   8125   8135     1
   8126   8131     1
   8126   8136     1
   8126   8145     1
   8129   8135     1
   8129   8147     1
   8129   8139     1
   8130   8138     1
   8131   8139     1
   8131   8137     1
   8135   8136     1
   8136   8147     1
   8136   8137     1
   8137   8138     1
   8138   8139     1
   8138   8147     1
   8145   8147     1
   8148   8153     1
   8148   8160     1
   8148   8158     1
   8149   8168     1
   8149   8154     1
   8149   8159     1
   8152   8162     1
   8152   8170     1
   8152   8158     1
   8153   8161     1
   8154   8160     1
   8154   8162     1
   8158   8159     1
   8159   8160     1
   8159   8170     1
   8160   8161     1
   8161   8162     1
   8161   8170     1
   8168   8170     1
   8171   8176     1
   8171   8183     1
   8171   8181     1
   8172   8177     1
   8172   8182     1
   8172   8191     1
   8175   8181     1
   8175   8193     1
   8175   8185     1
   8176   8184     1
   8177   8185     1
   8177   8183     1
   8181   8182     1
   8182   8193     1
   8182   8183     1
   8183   8184     1
   8184   8185     1
   8184   8193     1
   8191   8193     1
   8194   8199     1
   8194   8206     1
   8194   8204     1
   8195   8214     1
   8195   8200     1
   8195   8205     1
   8198   8208     1
   8198   8216     1
   8198   8204     1
   8199   8207     1
   8200   8206     1
   8200   8208     1
   8204   8205     1
   8205   8206     1
   8205   8216     1
   8206   8207     1
   8207   8208     1
   8207   8216     1
   8214   8216     1
   8217   8222     1
   8217   8229     1
   8217   8227     1
   8218   8223     1
   8218   8228     1
   8218   8237     1
   8221   8227     1
   8221   8239     1
   8221   8231     1
   8222   8230     1
   8223   8231     1
   8223   8229     1
   8227   8228     1
   8228   8239     1
   8228   8229     1
   8229   8230     1
   8230   8231     1
   8230   8239     1
   8237   8239     1
   8240   8245     1
   8240   8252     1
   8240   8250     1
   8241   8260     1
   8241   8246     1
   8241   8251     1
   8244   8254     1
   8244   8262     1
   8244   8250     1
   8245   8253     1
   8246   8252     1
   8246   8254     1
   8250   8251     1
   8251   8252     1
   8251   8262     1
   8252   8253     1
   8253   8254     1
   8253   8262     1
   8260   8262     1
   8263   8268     1
   8263   8275     1
   8263   8273     1
   8264   8269     1
   8264   8274     1
   8264   8283     1
   8267   8273     1
   8267   8285     1
   8267   8277     1
   8268   8276     1
   8269   8277     1
   8269   8275     1
   8273   8274     1
   8274   8285     1
   8274   8275     1
   8275   8276     1
   8276   8277     1
   8276   8285     1
   8283   8285     1
   8286   8291     1
   8286   8298     1
   8286   8296     1
   8287   8306     1
   8287   8292     1
   8287   8297     1
   8290   8300     1
   8290   8308     1
   8290   8296     1
   8291   8299     1
   8292   8298     1
   8292   8300     1
   8296   8297     1
   8297   8298     1
   8297   8308     1
   8298   8299     1
   8299   8300     1
   8299   8308     1
   8306   8308     1
   8309   8314     1
   8309   8321     1
   8309   8319     1
   8310   8315     1
   8310   8320     1
   8310   8329     1
   8313   8319     1
   8313   8331     1
   8313   8323     1
   8314   8322     1
   8315   8323     1
   8315   8321     1
   8319   8320     1
   8320   8331     1
   8320   8321     1
   8321   8322     1
   8322   8323     1
   8322   8331     1
   8329   8331     1
   8332   8337     1
   8332   8344     1
   8332   8342     1
   8333   8352     1
   8333   8338     1
   8333   8343     1
   8336   8346     1
   8336   8354     1
   8336   8342     1
   8337   8345     1
   8338   8344     1
   8338   8346     1
   8342   8343     1
   8343   8344     1
   8343   8354     1
   8344   8345     1
   8345   8346     1
   8345   8354     1
   8352   8354     1
   8355   8360     1
   8355   8367     1
   8355   8365     1
   8356   8361     1
   8356   8366     1
   8356   8375     1
   8359   8365     1
   8359   8377     1
   8359   8369     1
   8360   8368     1
   8361   8369     1
   8361   8367     1
   8365   8366     1
   8366   8377     1
   8366   8367     1
   8367   8368     1
   8368   8369     1
   8368   8377     1
   8375   8377     1
   8378   8383     1
   8378   8390     1
   8378   8388     1
   8379   8398     1
   8379   8384     1
   8379   8389     1
   8382   8392     1
   8382   8400     1
   8382   8388     1
   8383   8391     1
   8384   8390     1
   8384   8392     1
   8388   8389     1
   8389   8390     1
   8389   8400     1
   8390   8391     1
   8391   8392     1
   8391   8400     1
   8398   8400     1
   8401   8406     1
   8401   8413     1
   8401   8411     1
   8402   8407     1
   8402   8412     1
   8402   8421     1
   8405   8411     1
   8405   8423     1
   8405   8415     1
   8406   8414     1
   8407   8415     1
   8407   8413     1
   8411   8412     1
   8412   8423     1
   8412   8413     1
   8413   8414     1
   8414   8415     1
   8414   8423     1
   8421   8423     1
   8424   8429     1
   8424   8436     1
   8424   8434     1
   8425   8444     1
   8425   8430     1
   8425   8435     1
   8428   8438     1
   8428   8446     1
   8428   8434     1
   8429   8437     1
   8430   8436     1
   8430   8438     1
   8434   8435     1
   8435   8436     1
   8435   8446     1
   8436   8437     1
   8437   8438     1
   8437   8446     1
   8444   8446     1
   8447   8452     1
   8447   8459     1
   8447   8457     1
   8448   8453     1
   8448   8458     1
   8448   8467     1
   8451   8457     1
   8451   8469     1
   8451   8461     1
   8452   8460     1
   8453   8461     1
   8453   8459     1
   8457   8458     1
   8458   8469     1
   8458   8459     1
   8459   8460     1
   8460   8461     1
   8460   8469     1
   8467   8469     1
   8470   8475     1
   8470   8482     1
   8470   8480     1
   8471   8490     1
   8471   8476     1
   8471   8481     1
   8474   8484     1
   8474   8492     1
   8474   8480     1
   8475   8483     1
   8476   8482     1
   8476   8484     1
   8480   8481     1
   8481   8482     1
   8481   8492     1
   8482   8483     1
   8483   8484     1
   8483   8492     1
   8490   8492     1
   8493   8498     1
   8493   8505     1
   8493   8503     1
   8494   8499     1
   8494   8504     1
   8494   8513     1
   8497   8503     1
   8497   8515     1
   8497   8507     1
   8498   8506     1
   8499   8507     1
   8499   8505     1
   8503   8504     1
   8504   8515     1
   8504   8505     1
   8505   8506     1
   8506   8507     1
   8506   8515     1
   8513   8515     1
   8516   8521     1
   8516   8528     1
   8516   8526     1
   8517   8536     1
   8517   8522     1
   8517   8527     1
   8520   8530     1
   8520   8538     1
   8520   8526     1
   8521   8529     1
   8522   8528     1
   8522   8530     1
   8526   8527     1
   8527   8528     1
   8527   8538     1
   8528   8529     1
   8529   8530     1
   8529   8538     1
   8536   8538     1
   8539   8544     1
   8539   8551     1
   8539   8549     1
   8540   8545     1
   8540   8550     1
   8540   8559     1
   8543   8549     1
   8543   8561     1
   8543   8553     1
   8544   8552     1
   8545   8553     1
   8545   8551     1
   8549   8550     1
   8550   8561     1
   8550   8551     1
   8551   8552     1
   8552   8553     1
   8552   8561     1
   8559   8561     1
   8562   8567     1
   8562   8574     1
   8562   8572     1
   8563   8582     1
   8563   8568     1
   8563   8573     1
   8566   8576     1
   8566   8584     1
   8566   8572     1
   8567   8575     1
   8568   8574     1
   8568   8576     1
   8572   8573     1
   8573   8574     1
   8573   8584     1
   8574   8575     1
   8575   8576     1
   8575   8584     1
   8582   8584     1
   8585   8590     1
   8585   8597     1
   8585   8595     1
   8586   8591     1
   8586   8596     1
   8586   8605     1
   8589   8595     1
   8589   8607     1
   8589   8599     1
   8590   8598     1
   8591   8599     1
   8591   8597     1
   8595   8596     1
   8596   8607     1
   8596   8597     1
   8597   8598     1
   8598   8599     1
   8598   8607     1
   8605   8607     1
   8608   8613     1
   8608   8620     1
   8608   8618     1
   8609   8628     1
   8609   8614     1
   8609   8619     1
   8612   8622     1
   8612   8630     1
   8612   8618     1
   8613   8621     1
   8614   8620     1
   8614   8622     1
   8618   8619     1
   8619   8620     1
   8619   8630     1
   8620   8621     1
   8621   8622     1
   8621   8630     1
   8628   8630     1
   8631   8636     1
   8631   8643     1
   8631   8641     1
   8632   8637     1
   8632   8642     1
   8632   8651     1
   8635   8641     1
   8635   8653     1
   8635   8645     1
   8636   8644     1
   8637   8645     1
   8637   8643     1
   8641   8642     1
   8642   8653     1
   8642   8643     1
   8643   8644     1
   8644   8645     1
   8644   8653     1
   8651   8653     1
   8654   8659     1
   8654   8666     1
   8654   8664     1
   8655   8674     1
   8655   8660     1
   8655   8665     1
   8658   8668     1
   8658   8676     1
   8658   8664     1
   8659   8667     1
   8660   8666     1
   8660   8668     1
   8664   8665     1
   8665   8666     1
   8665   8676     1
   8666   8667     1
   8667   8668     1
   8667   8676     1
   8674   8676     1
   8677   8682     1
   8677   8689     1
   8677   8687     1
   8678   8683     1
   8678   8688     1
   8678   8697     1
   8681   8687     1
   8681   8699     1
   8681   8691     1
   8682   8690     1
   8683   8691     1
   8683   8689     1
   8687   8688     1
   8688   8699     1
   8688   8689     1
   8689   8690     1
   8690   8691     1
   8690   8699     1
   8697   8699     1
   8700   8705     1
   8700   8712     1
   8700   8710     1
   8701   8720     1
   8701   8706     1
   8701   8711     1
   8704   8714     1
   8704   8722     1
   8704   8710     1
   8705   8713     1
   8706   8712     1
   8706   8714     1
   8710   8711     1
   8711   8712     1
   8711   8722     1
   8712   8713     1
   8713   8714     1
   8713   8722     1
   8720   8722     1
   8723   8728     1
   8723   8735     1
   8723   8733     1
   8724   8729     1
   8724   8734     1
   8724   8743     1
   8727   8733     1
   8727   8745     1
   8727   8737     1
   8728   8736     1
   8729   8737     1
   8729   8735     1
   8733   8734     1
   8734   8745     1
   8734   8735     1
   8735   8736     1
   8736   8737     1
   8736   8745     1
   8743   8745     1
   8746   8751     1
   8746   8758     1
   8746   8756     1
   8747   8766     1
   8747   8752     1
   8747   8757     1
   8750   8760     1
   8750   8768     1
   8750   8756     1
   8751   8759     1
   8752   8758     1
   8752   8760     1
   8756   8757     1
   8757   8758     1
   8757   8768     1
   8758   8759     1
   8759   8760     1
   8759   8768     1
   8766   8768     1
   8769   8774     1
   8769   8781     1
   8769   8779     1
   8770   8775     1
   8770   8780     1
   8770   8789     1
   8773   8779     1
   8773   8791     1
   8773   8783     1
   8774   8782     1
   8775   8783     1
   8775   8781     1
   8779   8780     1
   8780   8791     1
   8780   8781     1
   8781   8782     1
   8782   8783     1
   8782   8791     1
   8789   8791     1
   8792   8797     1
   8792   8804     1
   8792   8802     1
   8793   8812     1
   8793   8798     1
   8793   8803     1
   8796   8806     1
   8796   8814     1
   8796   8802     1
   8797   8805     1
   8798   8804     1
   8798   8806     1
   8802   8803     1
   8803   8804     1
   8803   8814     1
   8804   8805     1
   8805   8806     1
   8805   8814     1
   8812   8814     1
   8815   8820     1
   8815   8827     1
   8815   8825     1
   8816   8821     1
   8816   8826     1
   8816   8835     1
   8819   8825     1
   8819   8837     1
   8819   8829     1
   8820   8828     1
   8821   8829     1
   8821   8827     1
   8825   8826     1
   8826   8837     1
   8826   8827     1
   8827   8828     1
   8828   8829     1
   8828   8837     1
   8835   8837     1
   8838   8843     1
   8838   8850     1
   8838   8848     1
   8839   8858     1
   8839   8844     1
   8839   8849     1
   8842   8852     1
   8842   8860     1
   8842   8848     1
   8843   8851     1
   8844   8850     1
   8844   8852     1
   8848   8849     1
   8849   8850     1
   8849   8860     1
   8850   8851     1
   8851   8852     1
   8851   8860     1
   8858   8860     1
   8861   8866     1
   8861   8873     1
   8861   8871     1
   8862   8867     1
   8862   8872     1
   8862   8881     1
   8865   8871     1
   8865   8883     1
   8865   8875     1
   8866   8874     1
   8867   8875     1
   8867   8873     1
   8871   8872     1
   8872   8883     1
   8872   8873     1
   8873   8874     1
   8874   8875     1
   8874   8883     1
   8881   8883     1
   8884   8889     1
   8884   8896     1
   8884   8894     1
   8885   8904     1
   8885   8890     1
   8885   8895     1
   8888   8898     1
   8888   8906     1
   8888   8894     1
   8889   8897     1
   8890   8896     1
   8890   8898     1
   8894   8895     1
   8895   8896     1
   8895   8906     1
   8896   8897     1
   8897   8898     1
   8897   8906     1
   8904   8906     1
   8907   8912     1
   8907   8919     1
   8907   8917     1
   8908   8913     1
   8908   8918     1
   8908   8927     1
   8911   8917     1
   8911   8929     1
   8911   8921     1
   8912   8920     1
   8913   8921     1
   8913   8919     1
   8917   8918     1
   8918   8929     1
   8918   8919     1
   8919   8920     1
   8920   8921     1
   8920   8929     1
   8927   8929     1
   8930   8935     1
   8930   8942     1
   8930   8940     1
   8931   8950     1
   8931   8936     1
   8931   8941     1
   8934   8944     1
   8934   8952     1
   8934   8940     1
   8935   8943     1
   8936   8942     1
   8936   8944     1
   8940   8941     1
   8941   8942     1
   8941   8952     1
   8942   8943     1
   8943   8944     1
   8943   8952     1
   8950   8952     1
   8953   8958     1
   8953   8965     1
   8953   8963     1
   8954   8959     1
   8954   8964     1
   8954   8973     1
   8957   8963     1
   8957   8975     1
   8957   8967     1
   8958   8966     1
   8959   8967     1
   8959   8965     1
   8963   8964     1
   8964   8975     1
   8964   8965     1
   8965   8966     1
   8966   8967     1
   8966   8975     1
   8973   8975     1
   8976   8981     1
   8976   8988     1
   8976   8986     1
   8977   8996     1
   8977   8982     1
   8977   8987     1
   8980   8990     1
   8980   8998     1
   8980   8986     1
   8981   8989     1
   8982   8988     1
   8982   8990     1
   8986   8987     1
   8987   8988     1
   8987   8998     1
   8988   8989     1
   8989   8990     1
   8989   8998     1
   8996   8998     1
   8999   9004     1
   8999   9011     1
   8999   9009     1
   9000   9005     1
   9000   9010     1
   9000   9019     1
   9003   9009     1
   9003   9021     1
   9003   9013     1
   9004   9012     1
   9005   9013     1
   9005   9011     1
   9009   9010     1
   9010   9021     1
   9010   9011     1
   9011   9012     1
   9012   9013     1
   9012   9021     1
   9019   9021     1
   9022   9027     1
   9022   9034     1
   9022   9032     1
   9023   9042     1
   9023   9028     1
   9023   9033     1
   9026   9036     1
   9026   9044     1
   9026   9032     1
   9027   9035     1
   9028   9034     1
   9028   9036     1
   9032   9033     1
   9033   9034     1
   9033   9044     1
   9034   9035     1
   9035   9036     1
   9035   9044     1
   9042   9044     1
   9045   9050     1
   9045   9057     1
   9045   9055     1
   9046   9051     1
   9046   9056     1
   9046   9065     1
   9049   9055     1
   9049   9067     1
   9049   9059     1
   9050   9058     1
   9051   9059     1
   9051   9057     1
   9055   9056     1
   9056   9067     1
   9056   9057     1
   9057   9058     1
   9058   9059     1
   9058   9067     1
   9065   9067     1
   9068   9073     1
   9068   9080     1
   9068   9078     1
   9069   9088     1
   9069   9074     1
   9069   9079     1
   9072   9082     1
   9072   9090     1
   9072   9078     1
   9073   9081     1
   9074   9080     1
   9074   9082     1
   9078   9079     1
   9079   9080     1
   9079   9090     1
   9080   9081     1
   9081   9082     1
   9081   9090     1
   9088   9090     1
   9091   9096     1
   9091   9103     1
   9091   9101     1
   9092   9097     1
   9092   9102     1
   9092   9111     1
   9095   9101     1
   9095   9113     1
   9095   9105     1
   9096   9104     1
   9097   9105     1
   9097   9103     1
   9101   9102     1
   9102   9113     1
   9102   9103     1
   9103   9104     1
   9104   9105     1
   9104   9113     1
   9111   9113     1
   9114   9119     1
   9114   9126     1
   9114   9124     1
   9115   9134     1
   9115   9120     1
   9115   9125     1
   9118   9128     1
   9118   9136     1
   9118   9124     1
   9119   9127     1
   9120   9126     1
   9120   9128     1
   9124   9125     1
   9125   9126     1
   9125   9136     1
   9126   9127     1
   9127   9128     1
   9127   9136     1
   9134   9136     1
   9137   9142     1
   9137   9149     1
   9137   9147     1
   9138   9143     1
   9138   9148     1
   9138   9157     1
   9141   9147     1
   9141   9159     1
   9141   9151     1
   9142   9150     1
   9143   9151     1
   9143   9149     1
   9147   9148     1
   9148   9159     1
   9148   9149     1
   9149   9150     1
   9150   9151     1
   9150   9159     1
   9157   9159     1
   9160   9165     1
   9160   9172     1
   9160   9170     1
   9161   9180     1
   9161   9166     1
   9161   9171     1
   9164   9174     1
   9164   9182     1
   9164   9170     1
   9165   9173     1
   9166   9172     1
   9166   9174     1
   9170   9171     1
   9171   9172     1
   9171   9182     1
   9172   9173     1
   9173   9174     1
   9173   9182     1
   9180   9182     1
   9183   9188     1
   9183   9195     1
   9183   9193     1
   9184   9189     1
   9184   9194     1
   9184   9203     1
   9187   9193     1
   9187   9205     1
   9187   9197     1
   9188   9196     1
   9189   9197     1
   9189   9195     1
   9193   9194     1
   9194   9205     1
   9194   9195     1
   9195   9196     1
   9196   9197     1
   9196   9205     1
   9203   9205     1
   9206   9211     1
   9206   9218     1
   9206   9216     1
   9207   9226     1
   9207   9212     1
   9207   9217     1
   9210   9220     1
   9210   9228     1
   9210   9216     1
   9211   9219     1
   9212   9218     1
   9212   9220     1
   9216   9217     1
   9217   9218     1
   9217   9228     1
   9218   9219     1
   9219   9220     1
   9219   9228     1
   9226   9228     1
   9229   9234     1
   9229   9241     1
   9229   9239     1
   9230   9235     1
   9230   9240     1
   9230   9249     1
   9233   9239     1
   9233   9251     1
   9233   9243     1
   9234   9242     1
   9235   9243     1
   9235   9241     1
   9239   9240     1
   9240   9251     1
   9240   9241     1
   9241   9242     1
   9242   9243     1
   9242   9251     1
   9249   9251     1
   9252   9257     1
   9252   9264     1
   9252   9262     1
   9253   9272     1
   9253   9258     1
   9253   9263     1
   9256   9266     1
   9256   9274     1
   9256   9262     1
   9257   9265     1
   9258   9264     1
   9258   9266     1
   9262   9263     1
   9263   9264     1
   9263   9274     1
   9264   9265     1
   9265   9266     1
   9265   9274     1
   9272   9274     1
   9275   9280     1
   9275   9287     1
   9275   9285     1
   9276   9281     1
   9276   9286     1
   9276   9295     1
   9279   9285     1
   9279   9297     1
   9279   9289     1
   9280   9288     1
   9281   9289     1
   9281   9287     1
   9285   9286     1
   9286   9297     1
   9286   9287     1
   9287   9288     1
   9288   9289     1
   9288   9297     1
   9295   9297     1
   9298   9303     1
   9298   9310     1
   9298   9308     1
   9299   9318     1
   9299   9304     1
   9299   9309     1
   9302   9312     1
   9302   9320     1
   9302   9308     1
   9303   9311     1
   9304   9310     1
   9304   9312     1
   9308   9309     1
   9309   9310     1
   9309   9320     1
   9310   9311     1
   9311   9312     1
   9311   9320     1
   9318   9320     1
   9321   9326     1
   9321   9333     1
   9321   9331     1
   9322   9327     1
   9322   9332     1
   9322   9341     1
   9325   9331     1
   9325   9343     1
   9325   9335     1
   9326   9334     1
   9327   9335     1
   9327   9333     1
   9331   9332     1
   9332   9343     1
   9332   9333     1
   9333   9334     1
   9334   9335     1
   9334   9343     1
   9341   9343     1
   9344   9349     1
   9344   9356     1
   9344   9354     1
   9345   9364     1
   9345   9350     1
   9345   9355     1
   9348   9358     1
   9348   9366     1
   9348   9354     1
   9349   9357     1
   9350   9356     1
   9350   9358     1
   9354   9355     1
   9355   9356     1
   9355   9366     1
   9356   9357     1
   9357   9358     1
   9357   9366     1
   9364   9366     1
   9367   9372     1
   9367   9379     1
   9367   9377     1
   9368   9373     1
   9368   9378     1
   9368   9387     1
   9371   9377     1
   9371   9389     1
   9371   9381     1
   9372   9380     1
   9373   9381     1
   9373   9379     1
   9377   9378     1
   9378   9389     1
   9378   9379     1
   9379   9380     1
   9380   9381     1
   9380   9389     1
   9387   9389     1
   9390   9395     1
   9390   9402     1
   9390   9400     1
   9391   9410     1
   9391   9396     1
   9391   9401     1
   9394   9404     1
   9394   9412     1
   9394   9400     1
   9395   9403     1
   9396   9402     1
   9396   9404     1
   9400   9401     1
   9401   9402     1
   9401   9412     1
   9402   9403     1
   9403   9404     1
   9403   9412     1
   9410   9412     1
   9413   9418     1
   9413   9425     1
   9413   9423     1
   9414   9419     1
   9414   9424     1
   9414   9433     1
   9417   9423     1
   9417   9435     1
   9417   9427     1
   9418   9426     1
   9419   9427     1
   9419   9425     1
   9423   9424     1
   9424   9435     1
   9424   9425     1
   9425   9426     1
   9426   9427     1
   9426   9435     1
   9433   9435     1
   9436   9441     1
   9436   9448     1
   9436   9446     1
   9437   9456     1
   9437   9442     1
   9437   9447     1
   9440   9450     1
   9440   9458     1
   9440   9446     1
   9441   9449     1
   9442   9448     1
   9442   9450     1
   9446   9447     1
   9447   9448     1
   9447   9458     1
   9448   9449     1
   9449   9450     1
   9449   9458     1
   9456   9458     1
   9459   9464     1
   9459   9471     1
   9459   9469     1
   9460   9465     1
   9460   9470     1
   9460   9479     1
   9463   9469     1
   9463   9481     1
   9463   9473     1
   9464   9472     1
   9465   9473     1
   9465   9471     1
   9469   9470     1
   9470   9481     1
   9470   9471     1
   9471   9472     1
   9472   9473     1
   9472   9481     1
   9479   9481     1
   9482   9487     1
   9482   9494     1
   9482   9492     1
   9483   9502     1
   9483   9488     1
   9483   9493     1
   9486   9496     1
   9486   9504     1
   9486   9492     1
   9487   9495     1
   9488   9494     1
   9488   9496     1
   9492   9493     1
   9493   9494     1
   9493   9504     1
   9494   9495     1
   9495   9496     1
   9495   9504     1
   9502   9504     1
   9505   9510     1
   9505   9517     1
   9505   9515     1
   9506   9511     1
   9506   9516     1
   9506   9525     1
   9509   9515     1
   9509   9527     1
   9509   9519     1
   9510   9518     1
   9511   9519     1
   9511   9517     1
   9515   9516     1
   9516   9527     1
   9516   9517     1
   9517   9518     1
   9518   9519     1
   9518   9527     1
   9525   9527     1
   9528   9533     1
   9528   9540     1
   9528   9538     1
   9529   9548     1
   9529   9534     1
   9529   9539     1
   9532   9542     1
   9532   9550     1
   9532   9538     1
   9533   9541     1
   9534   9540     1
   9534   9542     1
   9538   9539     1
   9539   9540     1
   9539   9550     1
   9540   9541     1
   9541   9542     1
   9541   9550     1
   9548   9550     1
   9551   9556     1
   9551   9563     1
   9551   9561     1
   9552   9557     1
   9552   9562     1
   9552   9571     1
   9555   9561     1
   9555   9573     1
   9555   9565     1
   9556   9564     1
   9557   9565     1
   9557   9563     1
   9561   9562     1
   9562   9573     1
   9562   9563     1
   9563   9564     1
   9564   9565     1
   9564   9573     1
   9571   9573     1
   9574   9579     1
   9574   9586     1
   9574   9584     1
   9575   9594     1
   9575   9580     1
   9575   9585     1
   9578   9588     1
   9578   9596     1
   9578   9584     1
   9579   9587     1
   9580   9586     1
   9580   9588     1
   9584   9585     1
   9585   9586     1
   9585   9596     1
   9586   9587     1
   9587   9588     1
   9587   9596     1
   9594   9596     1
   9597   9602     1
   9597   9609     1
   9597   9607     1
   9598   9603     1
   9598   9608     1
   9598   9617     1
   9601   9607     1
   9601   9619     1
   9601   9611     1
   9602   9610     1
   9603   9611     1
   9603   9609     1
   9607   9608     1
   9608   9619     1
   9608   9609     1
   9609   9610     1
   9610   9611     1
   9610   9619     1
   9617   9619     1
   9620   9625     1
   9620   9632     1
   9620   9630     1
   9621   9640     1
   9621   9626     1
   9621   9631     1
   9624   9634     1
   9624   9642     1
   9624   9630     1
   9625   9633     1
   9626   9632     1
   9626   9634     1
   9630   9631     1
   9631   9632     1
   9631   9642     1
   9632   9633     1
   9633   9634     1
   9633   9642     1
   9640   9642     1
   9643   9648     1
   9643   9655     1
   9643   9653     1
   9644   9649     1
   9644   9654     1
   9644   9663     1
   9647   9653     1
   9647   9665     1
   9647   9657     1
   9648   9656     1
   9649   9657     1
   9649   9655     1
   9653   9654     1
   9654   9665     1
   9654   9655     1
   9655   9656     1
   9656   9657     1
   9656   9665     1
   9663   9665     1
   9666   9671     1
   9666   9678     1
   9666   9676     1
   9667   9686     1
   9667   9672     1
   9667   9677     1
   9670   9680     1
   9670   9688     1
   9670   9676     1
   9671   9679     1
   9672   9678     1
   9672   9680     1
   9676   9677     1
   9677   9678     1
   9677   9688     1
   9678   9679     1
   9679   9680     1
   9679   9688     1
   9686   9688     1
   9689   9694     1
   9689   9701     1
   9689   9699     1
   9690   9695     1
   9690   9700     1
   9690   9709     1
   9693   9699     1
   9693   9711     1
   9693   9703     1
   9694   9702     1
   9695   9703     1
   9695   9701     1
   9699   9700     1
   9700   9711     1
   9700   9701     1
   9701   9702     1
   9702   9703     1
   9702   9711     1
   9709   9711     1
   9712   9717     1
   9712   9724     1
   9712   9722     1
   9713   9732     1
   9713   9718     1
   9713   9723     1
   9716   9726     1
   9716   9734     1
   9716   9722     1
   9717   9725     1
   9718   9724     1
   9718   9726     1
   9722   9723     1
   9723   9724     1
   9723   9734     1
   9724   9725     1
   9725   9726     1
   9725   9734     1
   9732   9734     1
   9735   9740     1
   9735   9747     1
   9735   9745     1
   9736   9741     1
   9736   9746     1
   9736   9755     1
   9739   9745     1
   9739   9757     1
   9739   9749     1
   9740   9748     1
   9741   9749     1
   9741   9747     1
   9745   9746     1
   9746   9757     1
   9746   9747     1
   9747   9748     1
   9748   9749     1
   9748   9757     1
   9755   9757     1
   9758   9763     1
   9758   9770     1
   9758   9768     1
   9759   9778     1
   9759   9764     1
   9759   9769     1
   9762   9772     1
   9762   9780     1
   9762   9768     1
   9763   9771     1
   9764   9770     1
   9764   9772     1
   9768   9769     1
   9769   9770     1
   9769   9780     1
   9770   9771     1
   9771   9772     1
   9771   9780     1
   9778   9780     1
   9781   9786     1
   9781   9793     1
   9781   9791     1
   9782   9787     1
   9782   9792     1
   9782   9801     1
   9785   9791     1
   9785   9803     1
   9785   9795     1
   9786   9794     1
   9787   9795     1
   9787   9793     1
   9791   9792     1
   9792   9803     1
   9792   9793     1
   9793   9794     1
   9794   9795     1
   9794   9803     1
   9801   9803     1
   9804   9809     1
   9804   9816     1
   9804   9814     1
   9805   9824     1
   9805   9810     1
   9805   9815     1
   9808   9818     1
   9808   9826     1
   9808   9814     1
   9809   9817     1
   9810   9816     1
   9810   9818     1
   9814   9815     1
   9815   9816     1
   9815   9826     1
   9816   9817     1
   9817   9818     1
   9817   9826     1
   9824   9826     1
   9827   9832     1
   9827   9839     1
   9827   9837     1
   9828   9833     1
   9828   9838     1
   9828   9847     1
   9831   9837     1
   9831   9849     1
   9831   9841     1
   9832   9840     1
   9833   9841     1
   9833   9839     1
   9837   9838     1
   9838   9849     1
   9838   9839     1
   9839   9840     1
   9840   9841     1
   9840   9849     1
   9847   9849     1
   9850   9855     1
   9850   9862     1
   9850   9860     1
   9851   9870     1
   9851   9856     1
   9851   9861     1
   9854   9864     1
   9854   9872     1
   9854   9860     1
   9855   9863     1
   9856   9862     1
   9856   9864     1
   9860   9861     1
   9861   9862     1
   9861   9872     1
   9862   9863     1
   9863   9864     1
   9863   9872     1
   9870   9872     1
   9873   9878     1
   9873   9885     1
   9873   9883     1
   9874   9879     1
   9874   9884     1
   9874   9893     1
   9877   9883     1
   9877   9895     1
   9877   9887     1
   9878   9886     1
   9879   9887     1
   9879   9885     1
   9883   9884     1
   9884   9895     1
   9884   9885     1
   9885   9886     1
   9886   9887     1
   9886   9895     1
   9893   9895     1
   9896   9901     1
   9896   9908     1
   9896   9906     1
   9897   9916     1
   9897   9902     1
   9897   9907     1
   9900   9910     1
   9900   9918     1
   9900   9906     1
   9901   9909     1
   9902   9908     1
   9902   9910     1
   9906   9907     1
   9907   9908     1
   9907   9918     1
   9908   9909     1
   9909   9910     1
   9909   9918     1
   9916   9918     1
   9919   9924     1
   9919   9931     1
   9919   9929     1
   9920   9925     1
   9920   9930     1
   9920   9939     1
   9923   9929     1
   9923   9941     1
   9923   9933     1
   9924   9932     1
   9925   9933     1
   9925   9931     1
   9929   9930     1
   9930   9941     1
   9930   9931     1
   9931   9932     1
   9932   9933     1
   9932   9941     1
   9939   9941     1
   9942   9947     1
   9942   9954     1
   9942   9952     1
   9943   9962     1
   9943   9948     1
   9943   9953     1
   9946   9956     1
   9946   9964     1
   9946   9952     1
   9947   9955     1
   9948   9954     1
   9948   9956     1
   9952   9953     1
   9953   9954     1
   9953   9964     1
   9954   9955     1
   9955   9956     1
   9955   9964     1
   9962   9964     1
   9965   9970     1
   9965   9977     1
   9965   9975     1
   9966   9971     1
   9966   9976     1
   9966   9985     1
   9969   9975     1
   9969   9987     1
   9969   9979     1
   9970   9978     1
   9971   9979     1
   9971   9977     1
   9975   9976     1
   9976   9987     1
   9976   9977     1
   9977   9978     1
   9978   9979     1
   9978   9987     1
   9985   9987     1
   9988   9993     1
   9988  10000     1
   9988   9998     1
   9989  10008     1
   9989   9994     1
   9989   9999     1
   9992  10002     1
   9992  10010     1
   9992   9998     1
   9993  10001     1
   9994  10000     1
   9994  10002     1
   9998   9999     1
   9999  10000     1
   9999  10010     1
  10000  10001     1
  10001  10002     1
  10001  10010     1
  10008  10010     1
  10011  10016     1
  10011  10023     1
  10011  10021     1
  10012  10017     1
  10012  10022     1
  10012  10031     1
  10015  10021     1
  10015  10033     1
  10015  10025     1
  10016  10024     1
  10017  10025     1
  10017  10023     1
  10021  10022     1
  10022  10033     1
  10022  10023     1
  10023  10024     1
  10024  10025     1
  10024  10033     1
  10031  10033     1
  10034  10039     1
  10034  10046     1
  10034  10044     1
  10035  10054     1
  10035  10040     1
  10035  10045     1
  10038  10048     1
  10038  10056     1
  10038  10044     1
  10039  10047     1
  10040  10046     1
  10040  10048     1
  10044  10045     1
  10045  10046     1
  10045  10056     1
  10046  10047     1
  10047  10048     1
  10047  10056     1
  10054  10056     1
  10057  10062     1
  10057  10069     1
  10057  10067     1
  10058  10063     1
  10058  10068     1
  10058  10077     1
  10061  10067     1
  10061  10079     1
  10061  10071     1
  10062  10070     1
  10063  10071     1
  10063  10069     1
  10067  10068     1
  10068  10079     1
  10068  10069     1
  10069  10070     1
  10070  10071     1
  10070  10079     1
  10077  10079     1
  10080  10085     1
  10080  10092     1
  10080  10090     1
  10081  10100     1
  10081  10086     1
  10081  10091     1
  10084  10094     1
  10084  10102     1
  10084  10090     1
  10085  10093     1
  10086  10092     1
  10086  10094     1
  10090  10091     1
  10091  10092     1
  10091  10102     1
  10092  10093     1
  10093  10094     1
  10093  10102     1
  10100  10102     1
  10103  10108     1
  10103  10115     1
  10103  10113     1
  10104  10109     1
  10104  10114     1
  10104  10123     1
  10107  10113     1
  10107  10125     1
  10107  10117     1
  10108  10116     1
  10109  10117     1
  10109  10115     1
  10113  10114     1
  10114  10125     1
  10114  10115     1
  10115  10116     1
  10116  10117     1
  10116  10125     1
  10123  10125     1
  10126  10131     1
  10126  10138     1
  10126  10136     1
  10127  10146     1
  10127  10132     1
  10127  10137     1
  10130  10140     1
  10130  10148     1
  10130  10136     1
  10131  10139     1
  10132  10138     1
  10132  10140     1
  10136  10137     1
  10137  10138     1
  10137  10148     1
  10138  10139     1
  10139  10140     1
  10139  10148     1
  10146  10148     1
  10149  10154     1
  10149  10161     1
  10149  10159     1
  10150  10155     1
  10150  10160     1
  10150  10169     1
  10153  10159     1
  10153  10171     1
  10153  10163     1
  10154  10162     1
  10155  10163     1
  10155  10161     1
  10159  10160     1
  10160  10171     1
  10160  10161     1
  10161  10162     1
  10162  10163     1
  10162  10171     1
  10169  10171     1
  10172  10177     1
  10172  10184     1
  10172  10182     1
  10173  10192     1
  10173  10178     1
  10173  10183     1
  10176  10186     1
  10176  10194     1
  10176  10182     1
  10177  10185     1
  10178  10184     1
  10178  10186     1
  10182  10183     1
  10183  10184     1
  10183  10194     1
  10184  10185     1
  10185  10186     1
  10185  10194     1
  10192  10194     1
  10195  10200     1
  10195  10207     1
  10195  10205     1
  10196  10201     1
  10196  10206     1
  10196  10215     1
  10199  10205     1
  10199  10217     1
  10199  10209     1
  10200  10208     1
  10201  10209     1
  10201  10207     1
  10205  10206     1
  10206  10217     1
  10206  10207     1
  10207  10208     1
  10208  10209     1
  10208  10217     1
  10215  10217     1
  10218  10223     1
  10218  10230     1
  10218  10228     1
  10219  10238     1
  10219  10224     1
  10219  10229     1
  10222  10232     1
  10222  10240     1
  10222  10228     1
  10223  10231     1
  10224  10230     1
  10224  10232     1
  10228  10229     1
  10229  10230     1
  10229  10240     1
  10230  10231     1
  10231  10232     1
  10231  10240     1
  10238  10240     1
  10241  10246     1
  10241  10253     1
  10241  10251     1
  10242  10247     1
  10242  10252     1
  10242  10261     1
  10245  10251     1
  10245  10263     1
  10245  10255     1
  10246  10254     1
  10247  10255     1
  10247  10253     1
  10251  10252     1
  10252  10263     1
  10252  10253     1
  10253  10254     1
  10254  10255     1
  10254  10263     1
  10261  10263     1
  10264  10269     1
  10264  10276     1
  10264  10274     1
  10265  10284     1
  10265  10270     1
  10265  10275     1
  10268  10278     1
  10268  10286     1
  10268  10274     1
  10269  10277     1
  10270  10276     1
  10270  10278     1
  10274  10275     1
  10275  10276     1
  10275  10286     1
  10276  10277     1
  10277  10278     1
  10277  10286     1
  10284  10286     1
  10287  10292     1
  10287  10299     1
  10287  10297     1
  10288  10293     1
  10288  10298     1
  10288  10307     1
  10291  10297     1
  10291  10309     1
  10291  10301     1
  10292  10300     1
  10293  10301     1
  10293  10299     1
  10297  10298     1
  10298  10309     1
  10298  10299     1
  10299  10300     1
  10300  10301     1
  10300  10309     1
  10307  10309     1
  10310  10315     1
  10310  10322     1
  10310  10320     1
  10311  10330     1
  10311  10316     1
  10311  10321     1
  10314  10324     1
  10314  10332     1
  10314  10320     1
  10315  10323     1
  10316  10322     1
  10316  10324     1
  10320  10321     1
  10321  10322     1
  10321  10332     1
  10322  10323     1
  10323  10324     1
  10323  10332     1
  10330  10332     1
  10333  10338     1
  10333  10345     1
  10333  10343     1
  10334  10339     1
  10334  10344     1
  10334  10353     1
  10337  10343     1
  10337  10355     1
  10337  10347     1
  10338  10346     1
  10339  10347     1
  10339  10345     1
  10343  10344     1
  10344  10355     1
  10344  10345     1
  10345  10346     1
  10346  10347     1
  10346  10355     1
  10353  10355     1
  10356  10361     1
  10356  10368     1
  10356  10366     1
  10357  10376     1
  10357  10362     1
  10357  10367     1
  10360  10370     1
  10360  10378     1
  10360  10366     1
  10361  10369     1
  10362  10368     1
  10362  10370     1
  10366  10367     1
  10367  10368     1
  10367  10378     1
  10368  10369     1
  10369  10370     1
  10369  10378     1
  10376  10378     1
  10379  10384     1
  10379  10391     1
  10379  10389     1
  10380  10385     1
  10380  10390     1
  10380  10399     1
  10383  10389     1
  10383  10401     1
  10383  10393     1
  10384  10392     1
  10385  10393     1
  10385  10391     1
  10389  10390     1
  10390  10401     1
  10390  10391     1
  10391  10392     1
  10392  10393     1
  10392  10401     1
  10399  10401     1
  10402  10407     1
  10402  10414     1
  10402  10412     1
  10403  10422     1
  10403  10408     1
  10403  10413     1
  10406  10416     1
  10406  10424     1
  10406  10412     1
  10407  10415     1
  10408  10414     1
  10408  10416     1
  10412  10413     1
  10413  10414     1
  10413  10424     1
  10414  10415     1
  10415  10416     1
  10415  10424     1
  10422  10424     1
  10425  10430     1
  10425  10437     1
  10425  10435     1
  10426  10431     1
  10426  10436     1
  10426  10445     1
  10429  10435     1
  10429  10447     1
  10429  10439     1
  10430  10438     1
  10431  10439     1
  10431  10437     1
  10435  10436     1
  10436  10447     1
  10436  10437     1
  10437  10438     1
  10438  10439     1
  10438  10447     1
  10445  10447     1
  10448  10453     1
  10448  10460     1
  10448  10458     1
  10449  10468     1
  10449  10454     1
  10449  10459     1
  10452  10462     1
  10452  10470     1
  10452  10458     1
  10453  10461     1
  10454  10460     1
  10454  10462     1
  10458  10459     1
  10459  10460     1
  10459  10470     1
  10460  10461     1
  10461  10462     1
  10461  10470     1
  10468  10470     1
  10471  10476     1
  10471  10483     1
  10471  10481     1
  10472  10477     1
  10472  10482     1
  10472  10491     1
  10475  10481     1
  10475  10493     1
  10475  10485     1
  10476  10484     1
  10477  10485     1
  10477  10483     1
  10481  10482     1
  10482  10493     1
  10482  10483     1
  10483  10484     1
  10484  10485     1
  10484  10493     1
  10491  10493     1
  10494  10499     1
  10494  10506     1
  10494  10504     1
  10495  10514     1
  10495  10500     1
  10495  10505     1
  10498  10508     1
  10498  10516     1
  10498  10504     1
  10499  10507     1
  10500  10506     1
  10500  10508     1
  10504  10505     1
  10505  10506     1
  10505  10516     1
  10506  10507     1
  10507  10508     1
  10507  10516     1
  10514  10516     1
  10517  10522     1
  10517  10529     1
  10517  10527     1
  10518  10523     1
  10518  10528     1
  10518  10537     1
  10521  10527     1
  10521  10539     1
  10521  10531     1
  10522  10530     1
  10523  10531     1
  10523  10529     1
  10527  10528     1
  10528  10539     1
  10528  10529     1
  10529  10530     1
  10530  10531     1
  10530  10539     1
  10537  10539     1
  10540  10545     1
  10540  10552     1
  10540  10550     1
  10541  10560     1
  10541  10546     1
  10541  10551     1
  10544  10554     1
  10544  10562     1
  10544  10550     1
  10545  10553     1
  10546  10552     1
  10546  10554     1
  10550  10551     1
  10551  10552     1
  10551  10562     1
  10552  10553     1
  10553  10554     1
  10553  10562     1
  10560  10562     1
  10563  10568     1
  10563  10575     1
  10563  10573     1
  10564  10569     1
  10564  10574     1
  10564  10583     1
  10567  10573     1
  10567  10585     1
  10567  10577     1
  10568  10576     1
  10569  10577     1
  10569  10575     1
  10573  10574     1
  10574  10585     1
  10574  10575     1
  10575  10576     1
  10576  10577     1
  10576  10585     1
  10583  10585     1
  10586  10591     1
  10586  10598     1
  10586  10596     1
  10587  10606     1
  10587  10592     1
  10587  10597     1
  10590  10600     1
  10590  10608     1
  10590  10596     1
  10591  10599     1
  10592  10598     1
  10592  10600     1
  10596  10597     1
  10597  10598     1
  10597  10608     1
  10598  10599     1
  10599  10600     1
  10599  10608     1
  10606  10608     1
  10609  10614     1
  10609  10621     1
  10609  10619     1
  10610  10615     1
  10610  10620     1
  10610  10629     1
  10613  10619     1
  10613  10631     1
  10613  10623     1
  10614  10622     1
  10615  10623     1
  10615  10621     1
  10619  10620     1
  10620  10631     1
  10620  10621     1
  10621  10622     1
  10622  10623     1
  10622  10631     1
  10629  10631     1
  10632  10637     1
  10632  10644     1
  10632  10642     1
  10633  10652     1
  10633  10638     1
  10633  10643     1
  10636  10646     1
  10636  10654     1
  10636  10642     1
  10637  10645     1
  10638  10644     1
  10638  10646     1
  10642  10643     1
  10643  10644     1
  10643  10654     1
  10644  10645     1
  10645  10646     1
  10645  10654     1
  10652  10654     1
  10655  10660     1
  10655  10667     1
  10655  10665     1
  10656  10661     1
  10656  10666     1
  10656  10675     1
  10659  10665     1
  10659  10677     1
  10659  10669     1
  10660  10668     1
  10661  10669     1
  10661  10667     1
  10665  10666     1
  10666  10677     1
  10666  10667     1
  10667  10668     1
  10668  10669     1
  10668  10677     1
  10675  10677     1
  10678  10683     1
  10678  10690     1
  10678  10688     1
  10679  10698     1
  10679  10684     1
  10679  10689     1
  10682  10692     1
  10682  10700     1
  10682  10688     1
  10683  10691     1
  10684  10690     1
  10684  10692     1
  10688  10689     1
  10689  10690     1
  10689  10700     1
  10690  10691     1
  10691  10692     1
  10691  10700     1
  10698  10700     1
  10701  10706     1
  10701  10713     1
  10701  10711     1
  10702  10707     1
  10702  10712     1
  10702  10721     1
  10705  10711     1
  10705  10723     1
  10705  10715     1
  10706  10714     1
  10707  10715     1
  10707  10713     1
  10711  10712     1
  10712  10723     1
  10712  10713     1
  10713  10714     1
  10714  10715     1
  10714  10723     1
  10721  10723     1
  10724  10729     1
  10724  10736     1
  10724  10734     1
  10725  10744     1
  10725  10730     1
  10725  10735     1
  10728  10738     1
  10728  10746     1
  10728  10734     1
  10729  10737     1
  10730  10736     1
  10730  10738     1
  10734  10735     1
  10735  10736     1
  10735  10746     1
  10736  10737     1
  10737  10738     1
  10737  10746     1
  10744  10746     1
  10747  10752     1
  10747  10759     1
  10747  10757     1
  10748  10753     1
  10748  10758     1
  10748  10767     1
  10751  10757     1
  10751  10769     1
  10751  10761     1
  10752  10760     1
  10753  10761     1
  10753  10759     1
  10757  10758     1
  10758  10769     1
  10758  10759     1
  10759  10760     1
  10760  10761     1
  10760  10769     1
  10767  10769     1
  10770  10775     1
  10770  10782     1
  10770  10780     1
  10771  10790     1
  10771  10776     1
  10771  10781     1
  10774  10784     1
  10774  10792     1
  10774  10780     1
  10775  10783     1
  10776  10782     1
  10776  10784     1
  10780  10781     1
  10781  10782     1
  10781  10792     1
  10782  10783     1
  10783  10784     1
  10783  10792     1
  10790  10792     1
  10793  10798     1
  10793  10805     1
  10793  10803     1
  10794  10799     1
  10794  10804     1
  10794  10813     1
  10797  10803     1
  10797  10815     1
  10797  10807     1
  10798  10806     1
  10799  10807     1
  10799  10805     1
  10803  10804     1
  10804  10815     1
  10804  10805     1
  10805  10806     1
  10806  10807     1
  10806  10815     1
  10813  10815     1
  10816  10821     1
  10816  10828     1
  10816  10826     1
  10817  10836     1
  10817  10822     1
  10817  10827     1
  10820  10830     1
  10820  10838     1
  10820  10826     1
  10821  10829     1
  10822  10828     1
  10822  10830     1
  10826  10827     1
  10827  10828     1
  10827  10838     1
  10828  10829     1
  10829  10830     1
  10829  10838     1
  10836  10838     1
  10839  10844     1
  10839  10851     1
  10839  10849     1
  10840  10845     1
  10840  10850     1
  10840  10859     1
  10843  10849     1
  10843  10861     1
  10843  10853     1
  10844  10852     1
  10845  10853     1
  10845  10851     1
  10849  10850     1
  10850  10861     1
  10850  10851     1
  10851  10852     1
  10852  10853     1
  10852  10861     1
  10859  10861     1
  10862  10867     1
  10862  10874     1
  10862  10872     1
  10863  10882     1
  10863  10868     1
  10863  10873     1
  10866  10876     1
  10866  10884     1
  10866  10872     1
  10867  10875     1
  10868  10874     1
  10868  10876     1
  10872  10873     1
  10873  10874     1
  10873  10884     1
  10874  10875     1
  10875  10876     1
  10875  10884     1
  10882  10884     1
  10885  10890     1
  10885  10897     1
  10885  10895     1
  10886  10891     1
  10886  10896     1
  10886  10905     1
  10889  10895     1
  10889  10907     1
  10889  10899     1
  10890  10898     1
  10891  10899     1
  10891  10897     1
  10895  10896     1
  10896  10907     1
  10896  10897     1
  10897  10898     1
  10898  10899     1
  10898  10907     1
  10905  10907     1
  10908  10913     1
  10908  10920     1
  10908  10918     1
  10909  10928     1
  10909  10914     1
  10909  10919     1
  10912  10922     1
  10912  10930     1
  10912  10918     1
  10913  10921     1
  10914  10920     1
  10914  10922     1
  10918  10919     1
  10919  10920     1
  10919  10930     1
  10920  10921     1
  10921  10922     1
  10921  10930     1
  10928  10930     1
  10931  10936     1
  10931  10943     1
  10931  10941     1
  10932  10937     1
  10932  10942     1
  10932  10951     1
  10935  10941     1
  10935  10953     1
  10935  10945     1
  10936  10944     1
  10937  10945     1
  10937  10943     1
  10941  10942     1
  10942  10953     1
  10942  10943     1
  10943  10944     1
  10944  10945     1
  10944  10953     1
  10951  10953     1
  10954  10959     1
  10954  10966     1
  10954  10964     1
  10955  10974     1
  10955  10960     1
  10955  10965     1
  10958  10968     1
  10958  10976     1
  10958  10964     1
  10959  10967     1
  10960  10966     1
  10960  10968     1
  10964  10965     1
  10965  10966     1
  10965  10976     1
  10966  10967     1
  10967  10968     1
  10967  10976     1
  10974  10976     1
  10977  10982     1
  10977  10989     1
  10977  10987     1
  10978  10983     1
  10978  10988     1
  10978  10997     1
  10981  10987     1
  10981  10999     1
  10981  10991     1
  10982  10990     1
  10983  10991     1
  10983  10989     1
  10987  10988     1
  10988  10999     1
  10988  10989     1
  10989  10990     1
  10990  10991     1
  10990  10999     1
  10997  10999     1
  11000  11005     1
  11000  11012     1
  11000  11010     1
  11001  11020     1
  11001  11006     1
  11001  11011     1
  11004  11014     1
  11004  11022     1
  11004  11010     1
  11005  11013     1
  11006  11012     1
  11006  11014     1
  11010  11011     1
  11011  11012     1
  11011  11022     1
  11012  11013     1
  11013  11014     1
  11013  11022     1
  11020  11022     1
  11023  11028     1
  11023  11035     1
  11023  11033     1
  11024  11029     1
  11024  11034     1
  11024  11043     1
  11027  11033     1
  11027  11045     1
  11027  11037     1
  11028  11036     1
  11029  11037     1
  11029  11035     1
  11033  11034     1
  11034  11045     1
  11034  11035     1
  11035  11036     1
  11036  11037     1
  11036  11045     1
  11043  11045     1
  11046  11051     1
  11046  11058     1
  11046  11056     1
  11047  11066     1
  11047  11052     1
  11047  11057     1
  11050  11060     1
  11050  11068     1
  11050  11056     1
  11051  11059     1
  11052  11058     1
  11052  11060     1
  11056  11057     1
  11057  11058     1
  11057  11068     1
  11058  11059     1
  11059  11060     1
  11059  11068     1
  11066  11068     1
  11069  11074     1
  11069  11081     1
  11069  11079     1
  11070  11075     1
  11070  11080     1
  11070  11089     1
  11073  11079     1
  11073  11091     1
  11073  11083     1
  11074  11082     1
  11075  11083     1
  11075  11081     1
  11079  11080     1
  11080  11091     1
  11080  11081     1
  11081  11082     1
  11082  11083     1
  11082  11091     1
  11089  11091     1
  11092  11097     1
  11092  11104     1
  11092  11102     1
  11093  11112     1
  11093  11098     1
  11093  11103     1
  11096  11106     1
  11096  11114     1
  11096  11102     1
  11097  11105     1
  11098  11104     1
  11098  11106     1
  11102  11103     1
  11103  11104     1
  11103  11114     1
  11104  11105     1
  11105  11106     1
  11105  11114     1
  11112  11114     1
  11115  11120     1
  11115  11127     1
  11115  11125     1
  11116  11121     1
  11116  11126     1
  11116  11135     1
  11119  11125     1
  11119  11137     1
  11119  11129     1
  11120  11128     1
  11121  11129     1
  11121  11127     1
  11125  11126     1
  11126  11137     1
  11126  11127     1
  11127  11128     1
  11128  11129     1
  11128  11137     1
  11135  11137     1
  11138  11143     1
  11138  11150     1
  11138  11148     1
  11139  11158     1
  11139  11144     1
  11139  11149     1
  11142  11152     1
  11142  11160     1
  11142  11148     1
  11143  11151     1
  11144  11150     1
  11144  11152     1
  11148  11149     1
  11149  11150     1
  11149  11160     1
  11150  11151     1
  11151  11152     1
  11151  11160     1
  11158  11160     1
  11161  11166     1
  11161  11173     1
  11161  11171     1
  11162  11167     1
  11162  11172     1
  11162  11181     1
  11165  11171     1
  11165  11183     1
  11165  11175     1
  11166  11174     1
  11167  11175     1
  11167  11173     1
  11171  11172     1
  11172  11183     1
  11172  11173     1
  11173  11174     1
  11174  11175     1
  11174  11183     1
  11181  11183     1
  11184  11189     1
  11184  11196     1
  11184  11194     1
  11185  11204     1
  11185  11190     1
  11185  11195     1
  11188  11198     1
  11188  11206     1
  11188  11194     1
  11189  11197     1
  11190  11196     1
  11190  11198     1
  11194  11195     1
  11195  11196     1
  11195  11206     1
  11196  11197     1
  11197  11198     1
  11197  11206     1
  11204  11206     1
  11207  11212     1
  11207  11219     1
  11207  11217     1
  11208  11213     1
  11208  11218     1
  11208  11227     1
  11211  11217     1
  11211  11229     1
  11211  11221     1
  11212  11220     1
  11213  11221     1
  11213  11219     1
  11217  11218     1
  11218  11229     1
  11218  11219     1
  11219  11220     1
  11220  11221     1
  11220  11229     1
  11227  11229     1
  11230  11235     1
  11230  11242     1
  11230  11240     1
  11231  11250     1
  11231  11236     1
  11231  11241     1
  11234  11244     1
  11234  11252     1
  11234  11240     1
  11235  11243     1
  11236  11242     1
  11236  11244     1
  11240  11241     1
  11241  11242     1
  11241  11252     1
  11242  11243     1
  11243  11244     1
  11243  11252     1
  11250  11252     1
  11253  11258     1
  11253  11265     1
  11253  11263     1
  11254  11259     1
  11254  11264     1
  11254  11273     1
  11257  11263     1
  11257  11275     1
  11257  11267     1
  11258  11266     1
  11259  11267     1
  11259  11265     1
  11263  11264     1
  11264  11275     1
  11264  11265     1
  11265  11266     1
  11266  11267     1
  11266  11275     1
  11273  11275     1
  11276  11281     1
  11276  11288     1
  11276  11286     1
  11277  11296     1
  11277  11282     1
  11277  11287     1
  11280  11290     1
  11280  11298     1
  11280  11286     1
  11281  11289     1
  11282  11288     1
  11282  11290     1
  11286  11287     1
  11287  11288     1
  11287  11298     1
  11288  11289     1
  11289  11290     1
  11289  11298     1
  11296  11298     1
  11299  11304     1
  11299  11311     1
  11299  11309     1
  11300  11305     1
  11300  11310     1
  11300  11319     1
  11303  11309     1
  11303  11321     1
  11303  11313     1
  11304  11312     1
  11305  11313     1
  11305  11311     1
  11309  11310     1
  11310  11321     1
  11310  11311     1
  11311  11312     1
  11312  11313     1
  11312  11321     1
  11319  11321     1
  11322  11327     1
  11322  11334     1
  11322  11332     1
  11323  11342     1
  11323  11328     1
  11323  11333     1
  11326  11336     1
  11326  11344     1
  11326  11332     1
  11327  11335     1
  11328  11334     1
  11328  11336     1
  11332  11333     1
  11333  11334     1
  11333  11344     1
  11334  11335     1
  11335  11336     1
  11335  11344     1
  11342  11344     1
  11345  11350     1
  11345  11357     1
  11345  11355     1
  11346  11351     1
  11346  11356     1
  11346  11365     1
  11349  11355     1
  11349  11367     1
  11349  11359     1
  11350  11358     1
  11351  11359     1
  11351  11357     1
  11355  11356     1
  11356  11367     1
  11356  11357     1
  11357  11358     1
  11358  11359     1
  11358  11367     1
  11365  11367     1
  11368  11373     1
  11368  11380     1
  11368  11378     1
  11369  11388     1
  11369  11374     1
  11369  11379     1
  11372  11382     1
  11372  11390     1
  11372  11378     1
  11373  11381     1
  11374  11380     1
  11374  11382     1
  11378  11379     1
  11379  11380     1
  11379  11390     1
  11380  11381     1
  11381  11382     1
  11381  11390     1
  11388  11390     1
  11391  11396     1
  11391  11403     1
  11391  11401     1
  11392  11397     1
  11392  11402     1
  11392  11411     1
  11395  11401     1
  11395  11413     1
  11395  11405     1
  11396  11404     1
  11397  11405     1
  11397  11403     1
  11401  11402     1
  11402  11413     1
  11402  11403     1
  11403  11404     1
  11404  11405     1
  11404  11413     1
  11411  11413     1
  11414  11419     1
  11414  11426     1
  11414  11424     1
  11415  11434     1
  11415  11420     1
  11415  11425     1
  11418  11428     1
  11418  11436     1
  11418  11424     1
  11419  11427     1
  11420  11426     1
  11420  11428     1
  11424  11425     1
  11425  11426     1
  11425  11436     1
  11426  11427     1
  11427  11428     1
  11427  11436     1
  11434  11436     1
  11437  11442     1
  11437  11449     1
  11437  11447     1
  11438  11443     1
  11438  11448     1
  11438  11457     1
  11441  11447     1
  11441  11459     1
  11441  11451     1
  11442  11450     1
  11443  11451     1
  11443  11449     1
  11447  11448     1
  11448  11459     1
  11448  11449     1
  11449  11450     1
  11450  11451     1
  11450  11459     1
  11457  11459     1
  11460  11465     1
  11460  11472     1
  11460  11470     1
  11461  11480     1
  11461  11466     1
  11461  11471     1
  11464  11474     1
  11464  11482     1
  11464  11470     1
  11465  11473     1
  11466  11472     1
  11466  11474     1
  11470  11471     1
  11471  11472     1
  11471  11482     1
  11472  11473     1
  11473  11474     1
  11473  11482     1
  11480  11482     1
  11483  11488     1
  11483  11495     1
  11483  11493     1
  11484  11489     1
  11484  11494     1
  11484  11503     1
  11487  11493     1
  11487  11505     1
  11487  11497     1
  11488  11496     1
  11489  11497     1
  11489  11495     1
  11493  11494     1
  11494  11505     1
  11494  11495     1
  11495  11496     1
  11496  11497     1
  11496  11505     1
  11503  11505     1
  11506  11511     1
  11506  11518     1
  11506  11516     1
  11507  11526     1
  11507  11512     1
  11507  11517     1
  11510  11520     1
  11510  11528     1
  11510  11516     1
  11511  11519     1
  11512  11518     1
  11512  11520     1
  11516  11517     1
  11517  11518     1
  11517  11528     1
  11518  11519     1
  11519  11520     1
  11519  11528     1
  11526  11528     1
  11529  11534     1
  11529  11541     1
  11529  11539     1
  11530  11535     1
  11530  11540     1
  11530  11549     1
  11533  11539     1
  11533  11551     1
  11533  11543     1
  11534  11542     1
  11535  11543     1
  11535  11541     1
  11539  11540     1
  11540  11551     1
  11540  11541     1
  11541  11542     1
  11542  11543     1
  11542  11551     1
  11549  11551     1
  11552  11557     1
  11552  11564     1
  11552  11562     1
  11553  11572     1
  11553  11558     1
  11553  11563     1
  11556  11566     1
  11556  11574     1
  11556  11562     1
  11557  11565     1
  11558  11564     1
  11558  11566     1
  11562  11563     1
  11563  11564     1
  11563  11574     1
  11564  11565     1
  11565  11566     1
  11565  11574     1
  11572  11574     1
  11575  11580     1
  11575  11587     1
  11575  11585     1
  11576  11581     1
  11576  11586     1
  11576  11595     1
  11579  11585     1
  11579  11597     1
  11579  11589     1
  11580  11588     1
  11581  11589     1
  11581  11587     1
  11585  11586     1
  11586  11597     1
  11586  11587     1
  11587  11588     1
  11588  11589     1
  11588  11597     1
  11595  11597     1
  11598  11603     1
  11598  11610     1
  11598  11608     1
  11599  11618     1
  11599  11604     1
  11599  11609     1
  11602  11612     1
  11602  11620     1
  11602  11608     1
  11603  11611     1
  11604  11610     1
  11604  11612     1
  11608  11609     1
  11609  11610     1
  11609  11620     1
  11610  11611     1
  11611  11612     1
  11611  11620     1
  11618  11620     1
  11621  11626     1
  11621  11633     1
  11621  11631     1
  11622  11627     1
  11622  11632     1
  11622  11641     1
  11625  11631     1
  11625  11643     1
  11625  11635     1
  11626  11634     1
  11627  11635     1
  11627  11633     1
  11631  11632     1
  11632  11643     1
  11632  11633     1
  11633  11634     1
  11634  11635     1
  11634  11643     1
  11641  11643     1
  11644  11649     1
  11644  11656     1
  11644  11654     1
  11645  11664     1
  11645  11650     1
  11645  11655     1
  11648  11658     1
  11648  11666     1
  11648  11654     1
  11649  11657     1
  11650  11656     1
  11650  11658     1
  11654  11655     1
  11655  11656     1
  11655  11666     1
  11656  11657     1
  11657  11658     1
  11657  11666     1
  11664  11666     1
  11667  11672     1
  11667  11679     1
  11667  11677     1
  11668  11673     1
  11668  11678     1
  11668  11687     1
  11671  11677     1
  11671  11689     1
  11671  11681     1
  11672  11680     1
  11673  11681     1
  11673  11679     1
  11677  11678     1
  11678  11689     1
  11678  11679     1
  11679  11680     1
  11680  11681     1
  11680  11689     1
  11687  11689     1
  11690  11695     1
  11690  11702     1
  11690  11700     1
  11691  11710     1
  11691  11696     1
  11691  11701     1
  11694  11704     1
  11694  11712     1
  11694  11700     1
  11695  11703     1
  11696  11702     1
  11696  11704     1
  11700  11701     1
  11701  11702     1
  11701  11712     1
  11702  11703     1
  11703  11704     1
  11703  11712     1
  11710  11712     1
  11713  11718     1
  11713  11725     1
  11713  11723     1
  11714  11719     1
  11714  11724     1
  11714  11733     1
  11717  11723     1
  11717  11735     1
  11717  11727     1
  11718  11726     1
  11719  11727     1
  11719  11725     1
  11723  11724     1
  11724  11735     1
  11724  11725     1
  11725  11726     1
  11726  11727     1
  11726  11735     1
  11733  11735     1
  11736  11741     1
  11736  11748     1
  11736  11746     1
  11737  11756     1
  11737  11742     1
  11737  11747     1
  11740  11750     1
  11740  11758     1
  11740  11746     1
  11741  11749     1
  11742  11748     1
  11742  11750     1
  11746  11747     1
  11747  11748     1
  11747  11758     1
  11748  11749     1
  11749  11750     1
  11749  11758     1
  11756  11758     1
  11759  11764     1
  11759  11771     1
  11759  11769     1
  11760  11765     1
  11760  11770     1
  11760  11779     1
  11763  11769     1
  11763  11781     1
  11763  11773     1
  11764  11772     1
  11765  11773     1
  11765  11771     1
  11769  11770     1
  11770  11781     1
  11770  11771     1
  11771  11772     1
  11772  11773     1
  11772  11781     1
  11779  11781     1
  11782  11787     1
  11782  11794     1
  11782  11792     1
  11783  11802     1
  11783  11788     1
  11783  11793     1
  11786  11796     1
  11786  11804     1
  11786  11792     1
  11787  11795     1
  11788  11794     1
  11788  11796     1
  11792  11793     1
  11793  11794     1
  11793  11804     1
  11794  11795     1
  11795  11796     1
  11795  11804     1
  11802  11804     1
  11805  11810     1
  11805  11817     1
  11805  11815     1
  11806  11811     1
  11806  11816     1
  11806  11825     1
  11809  11815     1
  11809  11827     1
  11809  11819     1
  11810  11818     1
  11811  11819     1
  11811  11817     1
  11815  11816     1
  11816  11827     1
  11816  11817     1
  11817  11818     1
  11818  11819     1
  11818  11827     1
  11825  11827     1
  11828  11833     1
  11828  11840     1
  11828  11838     1
  11829  11848     1
  11829  11834     1
  11829  11839     1
  11832  11842     1
  11832  11850     1
  11832  11838     1
  11833  11841     1
  11834  11840     1
  11834  11842     1
  11838  11839     1
  11839  11840     1
  11839  11850     1
  11840  11841     1
  11841  11842     1
  11841  11850     1
  11848  11850     1
  11851  11856     1
  11851  11863     1
  11851  11861     1
  11852  11857     1
  11852  11862     1
  11852  11871     1
  11855  11861     1
  11855  11873     1
  11855  11865     1
  11856  11864     1
  11857  11865     1
  11857  11863     1
  11861  11862     1
  11862  11873     1
  11862  11863     1
  11863  11864     1
  11864  11865     1
  11864  11873     1
  11871  11873     1
  11874  11879     1
  11874  11886     1
  11874  11884     1
  11875  11894     1
  11875  11880     1
  11875  11885     1
  11878  11888     1
  11878  11896     1
  11878  11884     1
  11879  11887     1
  11880  11886     1
  11880  11888     1
  11884  11885     1
  11885  11886     1
  11885  11896     1
  11886  11887     1
  11887  11888     1
  11887  11896     1
  11894  11896     1
  11897  11902     1
  11897  11909     1
  11897  11907     1
  11898  11903     1
  11898  11908     1
  11898  11917     1
  11901  11907     1
  11901  11919     1
  11901  11911     1
  11902  11910     1
  11903  11911     1
  11903  11909     1
  11907  11908     1
  11908  11919     1
  11908  11909     1
  11909  11910     1
  11910  11911     1
  11910  11919     1
  11917  11919     1
  11920  11925     1
  11920  11932     1
  11920  11930     1
  11921  11940     1
  11921  11926     1
  11921  11931     1
  11924  11934     1
  11924  11942     1
  11924  11930     1
  11925  11933     1
  11926  11932     1
  11926  11934     1
  11930  11931     1
  11931  11932     1
  11931  11942     1
  11932  11933     1
  11933  11934     1
  11933  11942     1
  11940  11942     1
  11943  11948     1
  11943  11955     1
  11943  11953     1
  11944  11949     1
  11944  11954     1
  11944  11963     1
  11947  11953     1
  11947  11965     1
  11947  11957     1
  11948  11956     1
  11949  11957     1
  11949  11955     1
  11953  11954     1
  11954  11965     1
  11954  11955     1
  11955  11956     1
  11956  11957     1
  11956  11965     1
  11963  11965     1
  11966  11971     1
  11966  11978     1
  11966  11976     1
  11967  11986     1
  11967  11972     1
  11967  11977     1
  11970  11980     1
  11970  11988     1
  11970  11976     1
  11971  11979     1
  11972  11978     1
  11972  11980     1
  11976  11977     1
  11977  11978     1
  11977  11988     1
  11978  11979     1
  11979  11980     1
  11979  11988     1
  11986  11988     1
  11989  11994     1
  11989  12001     1
  11989  11999     1
  11990  11995     1
  11990  12000     1
  11990  12009     1
  11993  11999     1
  11993  12011     1
  11993  12003     1
  11994  12002     1
  11995  12003     1
  11995  12001     1
  11999  12000     1
  12000  12011     1
  12000  12001     1
  12001  12002     1
  12002  12003     1
  12002  12011     1
  12009  12011     1
  12012  12017     1
  12012  12024     1
  12012  12022     1
  12013  12032     1
  12013  12018     1
  12013  12023     1
  12016  12026     1
  12016  12034     1
  12016  12022     1
  12017  12025     1
  12018  12024     1
  12018  12026     1
  12022  12023     1
  12023  12024     1
  12023  12034     1
  12024  12025     1
  12025  12026     1
  12025  12034     1
  12032  12034     1
  12035  12040     1
  12035  12047     1
  12035  12045     1
  12036  12041     1
  12036  12046     1
  12036  12055     1
  12039  12045     1
  12039  12057     1
  12039  12049     1
  12040  12048     1
  12041  12049     1
  12041  12047     1
  12045  12046     1
  12046  12057     1
  12046  12047     1
  12047  12048     1
  12048  12049     1
  12048  12057     1
  12055  12057     1
  12058  12063     1
  12058  12070     1
  12058  12068     1
  12059  12078     1
  12059  12064     1
  12059  12069     1
  12062  12072     1
  12062  12080     1
  12062  12068     1
  12063  12071     1
  12064  12070     1
  12064  12072     1
  12068  12069     1
  12069  12070     1
  12069  12080     1
  12070  12071     1
  12071  12072     1
  12071  12080     1
  12078  12080     1
  12081  12086     1
  12081  12093     1
  12081  12091     1
  12082  12087     1
  12082  12092     1
  12082  12101     1
  12085  12091     1
  12085  12103     1
  12085  12095     1
  12086  12094     1
  12087  12095     1
  12087  12093     1
  12091  12092     1
  12092  12103     1
  12092  12093     1
  12093  12094     1
  12094  12095     1
  12094  12103     1
  12101  12103     1
  12104  12109     1
  12104  12116     1
  12104  12114     1
  12105  12124     1
  12105  12110     1
  12105  12115     1
  12108  12118     1
  12108  12126     1
  12108  12114     1
  12109  12117     1
  12110  12116     1
  12110  12118     1
  12114  12115     1
  12115  12116     1
  12115  12126     1
  12116  12117     1
  12117  12118     1
  12117  12126     1
  12124  12126     1
  12127  12132     1
  12127  12139     1
  12127  12137     1
  12128  12133     1
  12128  12138     1
  12128  12147     1
  12131  12137     1
  12131  12149     1
  12131  12141     1
  12132  12140     1
  12133  12141     1
  12133  12139     1
  12137  12138     1
  12138  12149     1
  12138  12139     1
  12139  12140     1
  12140  12141     1
  12140  12149     1
  12147  12149     1
  12150  12155     1
  12150  12162     1
  12150  12160     1
  12151  12170     1
  12151  12156     1
  12151  12161     1
  12154  12164     1
  12154  12172     1
  12154  12160     1
  12155  12163     1
  12156  12162     1
  12156  12164     1
  12160  12161     1
  12161  12162     1
  12161  12172     1
  12162  12163     1
  12163  12164     1
  12163  12172     1
  12170  12172     1
  12173  12178     1
  12173  12185     1
  12173  12183     1
  12174  12179     1
  12174  12184     1
  12174  12193     1
  12177  12183     1
  12177  12195     1
  12177  12187     1
  12178  12186     1
  12179  12187     1
  12179  12185     1
  12183  12184     1
  12184  12195     1
  12184  12185     1
  12185  12186     1
  12186  12187     1
  12186  12195     1
  12193  12195     1
  12196  12201     1
  12196  12208     1
  12196  12206     1
  12197  12216     1
  12197  12202     1
  12197  12207     1
  12200  12210     1
  12200  12218     1
  12200  12206     1
  12201  12209     1
  12202  12208     1
  12202  12210     1
  12206  12207     1
  12207  12208     1
  12207  12218     1
  12208  12209     1
  12209  12210     1
  12209  12218     1
  12216  12218     1
  12219  12224     1
  12219  12231     1
  12219  12229     1
  12220  12225     1
  12220  12230     1
  12220  12239     1
  12223  12229     1
  12223  12241     1
  12223  12233     1
  12224  12232     1
  12225  12233     1
  12225  12231     1
  12229  12230     1
  12230  12241     1
  12230  12231     1
  12231  12232     1
  12232  12233     1
  12232  12241     1
  12239  12241     1
  12242  12247     1
  12242  12254     1
  12242  12252     1
  12243  12262     1
  12243  12248     1
  12243  12253     1
  12246  12256     1
  12246  12264     1
  12246  12252     1
  12247  12255     1
  12248  12254     1
  12248  12256     1
  12252  12253     1
  12253  12254     1
  12253  12264     1
  12254  12255     1
  12255  12256     1
  12255  12264     1
  12262  12264     1
  12265  12270     1
  12265  12277     1
  12265  12275     1
  12266  12271     1
  12266  12276     1
  12266  12285     1
  12269  12275     1
  12269  12287     1
  12269  12279     1
  12270  12278     1
  12271  12279     1
  12271  12277     1
  12275  12276     1
  12276  12287     1
  12276  12277     1
  12277  12278     1
  12278  12279     1
  12278  12287     1
  12285  12287     1
  12288  12293     1
  12288  12300     1
  12288  12298     1
  12289  12308     1
  12289  12294     1
  12289  12299     1
  12292  12302     1
  12292  12310     1
  12292  12298     1
  12293  12301     1
  12294  12300     1
  12294  12302     1
  12298  12299     1
  12299  12300     1
  12299  12310     1
  12300  12301     1
  12301  12302     1
  12301  12310     1
  12308  12310     1
  12311  12316     1
  12311  12323     1
  12311  12321     1
  12312  12317     1
  12312  12322     1
  12312  12331     1
  12315  12321     1
  12315  12333     1
  12315  12325     1
  12316  12324     1
  12317  12325     1
  12317  12323     1
  12321  12322     1
  12322  12333     1
  12322  12323     1
  12323  12324     1
  12324  12325     1
  12324  12333     1
  12331  12333     1
  12334  12339     1
  12334  12346     1
  12334  12344     1
  12335  12354     1
  12335  12340     1
  12335  12345     1
  12338  12348     1
  12338  12356     1
  12338  12344     1
  12339  12347     1
  12340  12346     1
  12340  12348     1
  12344  12345     1
  12345  12346     1
  12345  12356     1
  12346  12347     1
  12347  12348     1
  12347  12356     1
  12354  12356     1
  12357  12362     1
  12357  12369     1
  12357  12367     1
  12358  12363     1
  12358  12368     1
  12358  12377     1
  12361  12367     1
  12361  12379     1
  12361  12371     1
  12362  12370     1
  12363  12371     1
  12363  12369     1
  12367  12368     1
  12368  12379     1
  12368  12369     1
  12369  12370     1
  12370  12371     1
  12370  12379     1
  12377  12379     1
  12380  12385     1
  12380  12392     1
  12380  12390     1
  12381  12400     1
  12381  12386     1
  12381  12391     1
  12384  12394     1
  12384  12402     1
  12384  12390     1
  12385  12393     1
  12386  12392     1
  12386  12394     1
  12390  12391     1
  12391  12392     1
  12391  12402     1
  12392  12393     1
  12393  12394     1
  12393  12402     1
  12400  12402     1
  12403  12408     1
  12403  12415     1
  12403  12413     1
  12404  12409     1
  12404  12414     1
  12404  12423     1
  12407  12413     1
  12407  12425     1
  12407  12417     1
  12408  12416     1
  12409  12417     1
  12409  12415     1
  12413  12414     1
  12414  12425     1
  12414  12415     1
  12415  12416     1
  12416  12417     1
  12416  12425     1
  12423  12425     1
  12426  12431     1
  12426  12438     1
  12426  12436     1
  12427  12446     1
  12427  12432     1
  12427  12437     1
  12430  12440     1
  12430  12448     1
  12430  12436     1
  12431  12439     1
  12432  12438     1
  12432  12440     1
  12436  12437     1
  12437  12438     1
  12437  12448     1
  12438  12439     1
  12439  12440     1
  12439  12448     1
  12446  12448     1
  12449  12454     1
  12449  12461     1
  12449  12459     1
  12450  12455     1
  12450  12460     1
  12450  12469     1
  12453  12459     1
  12453  12471     1
  12453  12463     1
  12454  12462     1
  12455  12463     1
  12455  12461     1
  12459  12460     1
  12460  12471     1
  12460  12461     1
  12461  12462     1
  12462  12463     1
  12462  12471     1
  12469  12471     1
  12472  12477     1
  12472  12484     1
  12472  12482     1
  12473  12492     1
  12473  12478     1
  12473  12483     1
  12476  12486     1
  12476  12494     1
  12476  12482     1
  12477  12485     1
  12478  12484     1
  12478  12486     1
  12482  12483     1
  12483  12484     1
  12483  12494     1
  12484  12485     1
  12485  12486     1
  12485  12494     1
  12492  12494     1
  12495  12500     1
  12495  12507     1
  12495  12505     1
  12496  12501     1
  12496  12506     1
  12496  12515     1
  12499  12505     1
  12499  12517     1
  12499  12509     1
  12500  12508     1
  12501  12509     1
  12501  12507     1
  12505  12506     1
  12506  12517     1
  12506  12507     1
  12507  12508     1
  12508  12509     1
  12508  12517     1
  12515  12517     1
  12518  12523     1
  12518  12530     1
  12518  12528     1
  12519  12538     1
  12519  12524     1
  12519  12529     1
  12522  12532     1
  12522  12540     1
  12522  12528     1
  12523  12531     1
  12524  12530     1
  12524  12532     1
  12528  12529     1
  12529  12530     1
  12529  12540     1
  12530  12531     1
  12531  12532     1
  12531  12540     1
  12538  12540     1
  12541  12546     1
  12541  12553     1
  12541  12551     1
  12542  12547     1
  12542  12552     1
  12542  12561     1
  12545  12551     1
  12545  12563     1
  12545  12555     1
  12546  12554     1
  12547  12555     1
  12547  12553     1
  12551  12552     1
  12552  12563     1
  12552  12553     1
  12553  12554     1
  12554  12555     1
  12554  12563     1
  12561  12563     1
  12564  12569     1
  12564  12576     1
  12564  12574     1
  12565  12584     1
  12565  12570     1
  12565  12575     1
  12568  12578     1
  12568  12586     1
  12568  12574     1
  12569  12577     1
  12570  12576     1
  12570  12578     1
  12574  12575     1
  12575  12576     1
  12575  12586     1
  12576  12577     1
  12577  12578     1
  12577  12586     1
  12584  12586     1
  12587  12592     1
  12587  12599     1
  12587  12597     1
  12588  12593     1
  12588  12598     1
  12588  12607     1
  12591  12597     1
  12591  12609     1
  12591  12601     1
  12592  12600     1
  12593  12601     1
  12593  12599     1
  12597  12598     1
  12598  12609     1
  12598  12599     1
  12599  12600     1
  12600  12601     1
  12600  12609     1
  12607  12609     1
  12610  12615     1
  12610  12622     1
  12610  12620     1
  12611  12630     1
  12611  12616     1
  12611  12621     1
  12614  12624     1
  12614  12632     1
  12614  12620     1
  12615  12623     1
  12616  12622     1
  12616  12624     1
  12620  12621     1
  12621  12622     1
  12621  12632     1
  12622  12623     1
  12623  12624     1
  12623  12632     1
  12630  12632     1
  12633  12638     1
  12633  12645     1
  12633  12643     1
  12634  12639     1
  12634  12644     1
  12634  12653     1
  12637  12643     1
  12637  12655     1
  12637  12647     1
  12638  12646     1
  12639  12647     1
  12639  12645     1
  12643  12644     1
  12644  12655     1
  12644  12645     1
  12645  12646     1
  12646  12647     1
  12646  12655     1
  12653  12655     1
  12656  12661     1
  12656  12668     1
  12656  12666     1
  12657  12676     1
  12657  12662     1
  12657  12667     1
  12660  12670     1
  12660  12678     1
  12660  12666     1
  12661  12669     1
  12662  12668     1
  12662  12670     1
  12666  12667     1
  12667  12668     1
  12667  12678     1
  12668  12669     1
  12669  12670     1
  12669  12678     1
  12676  12678     1
  12679  12684     1
  12679  12691     1
  12679  12689     1
  12680  12685     1
  12680  12690     1
  12680  12699     1
  12683  12689     1
  12683  12701     1
  12683  12693     1
  12684  12692     1
  12685  12693     1
  12685  12691     1
  12689  12690     1
  12690  12701     1
  12690  12691     1
  12691  12692     1
  12692  12693     1
  12692  12701     1
  12699  12701     1
  12702  12707     1
  12702  12714     1
  12702  12712     1
  12703  12722     1
  12703  12708     1
  12703  12713     1
  12706  12716     1
  12706  12724     1
  12706  12712     1
  12707  12715     1
  12708  12714     1
  12708  12716     1
  12712  12713     1
  12713  12714     1
  12713  12724     1
  12714  12715     1
  12715  12716     1
  12715  12724     1
  12722  12724     1
  12725  12730     1
  12725  12737     1
  12725  12735     1
  12726  12731     1
  12726  12736     1
  12726  12745     1
  12729  12735     1
  12729  12747     1
  12729  12739     1
  12730  12738     1
  12731  12739     1
  12731  12737     1
  12735  12736     1
  12736  12747     1
  12736  12737     1
  12737  12738     1
  12738  12739     1
  12738  12747     1
  12745  12747     1
  12748  12753     1
  12748  12760     1
  12748  12758     1
  12749  12768     1
  12749  12754     1
  12749  12759     1
  12752  12762     1
  12752  12770     1
  12752  12758     1
  12753  12761     1
  12754  12760     1
  12754  12762     1
  12758  12759     1
  12759  12760     1
  12759  12770     1
  12760  12761     1
  12761  12762     1
  12761  12770     1
  12768  12770     1
  12771  12776     1
  12771  12783     1
  12771  12781     1
  12772  12777     1
  12772  12782     1
  12772  12791     1
  12775  12781     1
  12775  12793     1
  12775  12785     1
  12776  12784     1
  12777  12785     1
  12777  12783     1
  12781  12782     1
  12782  12793     1
  12782  12783     1
  12783  12784     1
  12784  12785     1
  12784  12793     1
  12791  12793     1
  12794  12799     1
  12794  12806     1
  12794  12804     1
  12795  12814     1
  12795  12800     1
  12795  12805     1
  12798  12808     1
  12798  12816     1
  12798  12804     1
  12799  12807     1
  12800  12806     1
  12800  12808     1
  12804  12805     1
  12805  12806     1
  12805  12816     1
  12806  12807     1
  12807  12808     1
  12807  12816     1
  12814  12816     1
  12817  12822     1
  12817  12829     1
  12817  12827     1
  12818  12823     1
  12818  12828     1
  12818  12837     1
  12821  12827     1
  12821  12839     1
  12821  12831     1
  12822  12830     1
  12823  12831     1
  12823  12829     1
  12827  12828     1
  12828  12839     1
  12828  12829     1
  12829  12830     1
  12830  12831     1
  12830  12839     1
  12837  12839     1
  12840  12845     1
  12840  12852     1
  12840  12850     1
  12841  12860     1
  12841  12846     1
  12841  12851     1
  12844  12854     1
  12844  12862     1
  12844  12850     1
  12845  12853     1
  12846  12852     1
  12846  12854     1
  12850  12851     1
  12851  12852     1
  12851  12862     1
  12852  12853     1
  12853  12854     1
  12853  12862     1
  12860  12862     1
  12863  12868     1
  12863  12875     1
  12863  12873     1
  12864  12869     1
  12864  12874     1
  12864  12883     1
  12867  12873     1
  12867  12885     1
  12867  12877     1
  12868  12876     1
  12869  12877     1
  12869  12875     1
  12873  12874     1
  12874  12885     1
  12874  12875     1
  12875  12876     1
  12876  12877     1
  12876  12885     1
  12883  12885     1
  12886  12891     1
  12886  12898     1
  12886  12896     1
  12887  12906     1
  12887  12892     1
  12887  12897     1
  12890  12900     1
  12890  12908     1
  12890  12896     1
  12891  12899     1
  12892  12898     1
  12892  12900     1
  12896  12897     1
  12897  12898     1
  12897  12908     1
  12898  12899     1
  12899  12900     1
  12899  12908     1
  12906  12908     1
  12909  12914     1
  12909  12921     1
  12909  12919     1
  12910  12915     1
  12910  12920     1
  12910  12929     1
  12913  12919     1
  12913  12931     1
  12913  12923     1
  12914  12922     1
  12915  12923     1
  12915  12921     1
  12919  12920     1
  12920  12931     1
  12920  12921     1
  12921  12922     1
  12922  12923     1
  12922  12931     1
  12929  12931     1
  12932  12937     1
  12932  12944     1
  12932  12942     1
  12933  12952     1
  12933  12938     1
  12933  12943     1
  12936  12946     1
  12936  12954     1
  12936  12942     1
  12937  12945     1
  12938  12944     1
  12938  12946     1
  12942  12943     1
  12943  12944     1
  12943  12954     1
  12944  12945     1
  12945  12946     1
  12945  12954     1
  12952  12954     1
  12955  12960     1
  12955  12967     1
  12955  12965     1
  12956  12961     1
  12956  12966     1
  12956  12975     1
  12959  12965     1
  12959  12977     1
  12959  12969     1
  12960  12968     1
  12961  12969     1
  12961  12967     1
  12965  12966     1
  12966  12977     1
  12966  12967     1
  12967  12968     1
  12968  12969     1
  12968  12977     1
  12975  12977     1
  12978  12983     1
  12978  12990     1
  12978  12988     1
  12979  12998     1
  12979  12984     1
  12979  12989     1
  12982  12992     1
  12982  13000     1
  12982  12988     1
  12983  12991     1
  12984  12990     1
  12984  12992     1
  12988  12989     1
  12989  12990     1
  12989  13000     1
  12990  12991     1
  12991  12992     1
  12991  13000     1
  12998  13000     1
  13001  13006     1
  13001  13013     1
  13001  13011     1
  13002  13007     1
  13002  13012     1
  13002  13021     1
  13005  13011     1
  13005  13023     1
  13005  13015     1
  13006  13014     1
  13007  13015     1
  13007  13013     1
  13011  13012     1
  13012  13023     1
  13012  13013     1
  13013  13014     1
  13014  13015     1
  13014  13023     1
  13021  13023     1
  13024  13029     1
  13024  13036     1
  13024  13034     1
  13025  13044     1
  13025  13030     1
  13025  13035     1
  13028  13038     1
  13028  13046     1
  13028  13034     1
  13029  13037     1
  13030  13036     1
  13030  13038     1
  13034  13035     1
  13035  13036     1
  13035  13046     1
  13036  13037     1
  13037  13038     1
  13037  13046     1
  13044  13046     1
  13047  13052     1
  13047  13059     1
  13047  13057     1
  13048  13053     1
  13048  13058     1
  13048  13067     1
  13051  13057     1
  13051  13069     1
  13051  13061     1
  13052  13060     1
  13053  13061     1
  13053  13059     1
  13057  13058     1
  13058  13069     1
  13058  13059     1
  13059  13060     1
  13060  13061     1
  13060  13069     1
  13067  13069     1
  13070  13075     1
  13070  13082     1
  13070  13080     1
  13071  13090     1
  13071  13076     1
  13071  13081     1
  13074  13084     1
  13074  13092     1
  13074  13080     1
  13075  13083     1
  13076  13082     1
  13076  13084     1
  13080  13081     1
  13081  13082     1
  13081  13092     1
  13082  13083     1
  13083  13084     1
  13083  13092     1
  13090  13092     1
  13093  13098     1
  13093  13105     1
  13093  13103     1
  13094  13099     1
  13094  13104     1
  13094  13113     1
  13097  13103     1
  13097  13115     1
  13097  13107     1
  13098  13106     1
  13099  13107     1
  13099  13105     1
  13103  13104     1
  13104  13115     1
  13104  13105     1
  13105  13106     1
  13106  13107     1
  13106  13115     1
  13113  13115     1
  13116  13121     1
  13116  13128     1
  13116  13126     1
  13117  13136     1
  13117  13122     1
  13117  13127     1
  13120  13130     1
  13120  13138     1
  13120  13126     1
  13121  13129     1
  13122  13128     1
  13122  13130     1
  13126  13127     1
  13127  13128     1
  13127  13138     1
  13128  13129     1
  13129  13130     1
  13129  13138     1
  13136  13138     1
  13139  13144     1
  13139  13151     1
  13139  13149     1
  13140  13145     1
  13140  13150     1
  13140  13159     1
  13143  13149     1
  13143  13161     1
  13143  13153     1
  13144  13152     1
  13145  13153     1
  13145  13151     1
  13149  13150     1
  13150  13161     1
  13150  13151     1
  13151  13152     1
  13152  13153     1
  13152  13161     1
  13159  13161     1
  13162  13167     1
  13162  13174     1
  13162  13172     1
  13163  13182     1
  13163  13168     1
  13163  13173     1
  13166  13176     1
  13166  13184     1
  13166  13172     1
  13167  13175     1
  13168  13174     1
  13168  13176     1
  13172  13173     1
  13173  13174     1
  13173  13184     1
  13174  13175     1
  13175  13176     1
  13175  13184     1
  13182  13184     1
  13185  13190     1
  13185  13197     1
  13185  13195     1
  13186  13191     1
  13186  13196     1
  13186  13205     1
  13189  13195     1
  13189  13207     1
  13189  13199     1
  13190  13198     1
  13191  13199     1
  13191  13197     1
  13195  13196     1
  13196  13207     1
  13196  13197     1
  13197  13198     1
  13198  13199     1
  13198  13207     1
  13205  13207     1
  13208  13213     1
  13208  13220     1
  13208  13218     1
  13209  13228     1
  13209  13214     1
  13209  13219     1
  13212  13222     1
  13212  13230     1
  13212  13218     1
  13213  13221     1
  13214  13220     1
  13214  13222     1
  13218  13219     1
  13219  13220     1
  13219  13230     1
  13220  13221     1
  13221  13222     1
  13221  13230     1
  13228  13230     1
  13231  13236     1
  13231  13243     1
  13231  13241     1
  13232  13237     1
  13232  13242     1
  13232  13251     1
  13235  13241     1
  13235  13253     1
  13235  13245     1
  13236  13244     1
  13237  13245     1
  13237  13243     1
  13241  13242     1
  13242  13253     1
  13242  13243     1
  13243  13244     1
  13244  13245     1
  13244  13253     1
  13251  13253     1
      1      9     1
      1     10     1
      1     12     1
      1     13     1
      2      6     1
      2      7     1
      2     15     1
      2     16     1
      5      3     1
      3     14     1
      3      9     1
      3     10     1
      5      4     1
      4     14     1
      4      9     1
      4     10     1
      5     18     1
      5     19     1
      6     17     1
      6     12     1
      6     13     1
      7     17     1
      7     12     1
      7     13     1
      9     20     1
      9     15     1
      9     16     1
     10     20     1
     10     15     1
     10     16     1
     12     21     1
     12     18     1
     12     19     1
     13     21     1
     13     18     1
     13     19     1
     14     29     1
     14     30     1
     14     32     1
     14     33     1
     15     28     1
     15     31     1
     16     28     1
     16     31     1
     17     23     1
     17     24     1
     17     26     1
     17     27     1
     18     22     1
     18     25     1
     19     22     1
     19     25     1
     20     41     1
     20     42     1
     20     44     1
     20     45     1
     21     35     1
     21     36     1
     21     38     1
     21     39     1
     22     26     1
     22     27     1
     22     56     1
     22     57     1
     23     25     1
     23     55     1
     23     35     1
     23     36     1
     24     25     1
     24     55     1
     24     35     1
     24     36     1
     25     53     1
     25     54     1
     26     52     1
     26     38     1
     26     39     1
     27     52     1
     27     38     1
     27     39     1
     28     32     1
     28     33     1
     28     50     1
     28     51     1
     29     31     1
     29     49     1
     29     41     1
     29     42     1
     30     31     1
     30     49     1
     30     41     1
     30     42     1
     31     47     1
     31     48     1
     32     46     1
     32     44     1
     32     45     1
     33     46     1
     33     44     1
     33     45     1
     35    173     1
     35     56     1
     35     57     1
     36    173     1
     36     56     1
     36     57     1
     38    144     1
     38     53     1
     38     54     1
     39    144     1
     39     53     1
     39     54     1
     41    115     1
     41     50     1
     41     51     1
     42    115     1
     42     50     1
     42     51     1
     44     86     1
     44     47     1
     44     48     1
     45     86     1
     45     47     1
     45     48     1
     46     78     1
     46     79     1
     47     77     1
     48     77     1
     49    107     1
     49    108     1
     50    106     1
     51    106     1
     52    136     1
     52    137     1
     53    135     1
     54    135     1
     55    165     1
     55    166     1
     56    164     1
     57    164     1
     58     72     1
     58     73     1
     58     75     1
     58     76     1
     58     69     1
     58     70     1
     59     63     1
     59     64     1
     59     66     1
     59     67     1
     59     84     1
     59     85     1
     60     62     1
     60     65     1
     60     83     1
     60     72     1
     60     73     1
     61     62     1
     61     65     1
     61     83     1
     61     72     1
     61     73     1
     62     66     1
     62     67     1
     62     81     1
     62     82     1
     63     65     1
     63     80     1
     63     75     1
     63     76     1
     64     65     1
     64     80     1
     64     75     1
     64     76     1
     65     78     1
     65     79     1
     66     77     1
     66     69     1
     66     70     1
     67     77     1
     67     69     1
     67     70     1
     69     86     1
     69     78     1
     69     79     1
     70     86     1
     70     78     1
     70     79     1
     72    231     1
     72     84     1
     72     85     1
     73    231     1
     73     84     1
     73     85     1
     75    202     1
     75     81     1
     75     82     1
     76    202     1
     76     81     1
     76     82     1
     80    194     1
     80    195     1
     81    193     1
     82    193     1
     83    223     1
     83    224     1
     84    222     1
     85    222     1
     87    101     1
     87    102     1
     87    104     1
     87    105     1
     87     98     1
     87     99     1
     88     92     1
     88     93     1
     88     95     1
     88     96     1
     88    113     1
     88    114     1
     89     91     1
     89     94     1
     89    112     1
     89    101     1
     89    102     1
     90     91     1
     90     94     1
     90    112     1
     90    101     1
     90    102     1
     91     95     1
     91     96     1
     91    110     1
     91    111     1
     92     94     1
     92    109     1
     92    104     1
     92    105     1
     93     94     1
     93    109     1
     93    104     1
     93    105     1
     94    107     1
     94    108     1
     95    106     1
     95     98     1
     95     99     1
     96    106     1
     96     98     1
     96     99     1
     98    115     1
     98    107     1
     98    108     1
     99    115     1
     99    107     1
     99    108     1
    101    289     1
    101    113     1
    101    114     1
    102    289     1
    102    113     1
    102    114     1
    104    260     1
    104    110     1
    104    111     1
    105    260     1
    105    110     1
    105    111     1
    109    252     1
    109    253     1
    110    251     1
    111    251     1
    112    281     1
    112    282     1
    113    280     1
    114    280     1
    116    130     1
    116    131     1
    116    133     1
    116    134     1
    116    127     1
    116    128     1
    117    121     1
    117    122     1
    117    124     1
    117    125     1
    117    142     1
    117    143     1
    118    120     1
    118    123     1
    118    141     1
    118    130     1
    118    131     1
    119    120     1
    119    123     1
    119    141     1
    119    130     1
    119    131     1
    120    124     1
    120    125     1
    120    139     1
    120    140     1
    121    123     1
    121    138     1
    121    133     1
    121    134     1
    122    123     1
    122    138     1
    122    133     1
    122    134     1
    123    136     1
    123    137     1
    124    135     1
    124    127     1
    124    128     1
    125    135     1
    125    127     1
    125    128     1
    127    144     1
    127    136     1
    127    137     1
    128    144     1
    128    136     1
    128    137     1
    130    347     1
    130    142     1
    130    143     1
    131    347     1
    131    142     1
    131    143     1
    133    318     1
    133    139     1
    133    140     1
    134    318     1
    134    139     1
    134    140     1
    138    310     1
    138    311     1
    139    309     1
    140    309     1
    141    339     1
    141    340     1
    142    338     1
    143    338     1
    145    159     1
    145    160     1
    145    162     1
    145    163     1
    145    156     1
    145    157     1
    146    150     1
    146    151     1
    146    153     1
    146    154     1
    146    171     1
    146    172     1
    147    149     1
    147    152     1
    147    170     1
    147    159     1
    147    160     1
    148    149     1
    148    152     1
    148    170     1
    148    159     1
    148    160     1
    149    153     1
    149    154     1
    149    168     1
    149    169     1
    150    152     1
    150    167     1
    150    162     1
    150    163     1
    151    152     1
    151    167     1
    151    162     1
    151    163     1
    152    165     1
    152    166     1
    153    164     1
    153    156     1
    153    157     1
    154    164     1
    154    156     1
    154    157     1
    156    173     1
    156    165     1
    156    166     1
    157    173     1
    157    165     1
    157    166     1
    159    405     1
    159    171     1
    159    172     1
    160    405     1
    160    171     1
    160    172     1
    162    376     1
    162    168     1
    162    169     1
    163    376     1
    163    168     1
    163    169     1
    167    368     1
    167    369     1
    168    367     1
    169    367     1
    170    397     1
    170    398     1
    171    396     1
    172    396     1
    174    188     1
    174    189     1
    174    191     1
    174    192     1
    174    185     1
    174    186     1
    175    179     1
    175    180     1
    175    182     1
    175    183     1
    175    200     1
    175    201     1
    176    178     1
    176    181     1
    176    199     1
    176    188     1
    176    189     1
    177    178     1
    177    181     1
    177    199     1
    177    188     1
    177    189     1
    178    182     1
    178    183     1
    178    197     1
    178    198     1
    179    181     1
    179    196     1
    179    191     1
    179    192     1
    180    181     1
    180    196     1
    180    191     1
    180    192     1
    181    194     1
    181    195     1
    182    193     1
    182    185     1
    182    186     1
    183    193     1
    183    185     1
    183    186     1
    185    202     1
    185    194     1
    185    195     1
    186    202     1
    186    194     1
    186    195     1
    188    463     1
    188    200     1
    188    201     1
    189    463     1
    189    200     1
    189    201     1
    191    434     1
    191    197     1
    191    198     1
    192    434     1
    192    197     1
    192    198     1
    196    426     1
    196    427     1
    197    425     1
    198    425     1
    199    455     1
    199    456     1
    200    454     1
    201    454     1
    203    217     1
    203    218     1
    203    220     1
    203    221     1
    203    214     1
    203    215     1
    204    208     1
    204    209     1
    204    211     1
    204    212     1
    204    229     1
    204    230     1
    205    207     1
    205    210     1
    205    228     1
    205    217     1
    205    218     1
    206    207     1
    206    210     1
    206    228     1
    206    217     1
    206    218     1
    207    211     1
    207    212     1
    207    226     1
    207    227     1
    208    210     1
    208    225     1
    208    220     1
    208    221     1
    209    210     1
    209    225     1
    209    220     1
    209    221     1
    210    223     1
    210    224     1
    211    222     1
    211    214     1
    211    215     1
    212    222     1
    212    214     1
    212    215     1
    214    231     1
    214    223     1
    214    224     1
    215    231     1
    215    223     1
    215    224     1
    217    521     1
    217    229     1
    217    230     1
    218    521     1
    218    229     1
    218    230     1
    220    492     1
    220    226     1
    220    227     1
    221    492     1
    221    226     1
    221    227     1
    225    484     1
    225    485     1
    226    483     1
    227    483     1
    228    513     1
    228    514     1
    229    512     1
    230    512     1
    232    246     1
    232    247     1
    232    249     1
    232    250     1
    232    243     1
    232    244     1
    233    237     1
    233    238     1
    233    240     1
    233    241     1
    233    258     1
    233    259     1
    234    236     1
    234    239     1
    234    257     1
    234    246     1
    234    247     1
    235    236     1
    235    239     1
    235    257     1
    235    246     1
    235    247     1
    236    240     1
    236    241     1
    236    255     1
    236    256     1
    237    239     1
    237    254     1
    237    249     1
    237    250     1
    238    239     1
    238    254     1
    238    249     1
    238    250     1
    239    252     1
    239    253     1
    240    251     1
    240    243     1
    240    244     1
    241    251     1
    241    243     1
    241    244     1
    243    260     1
    243    252     1
    243    253     1
    244    260     1
    244    252     1
    244    253     1
    246    579     1
    246    258     1
    246    259     1
    247    579     1
    247    258     1
    247    259     1
    249    550     1
    249    255     1
    249    256     1
    250    550     1
    250    255     1
    250    256     1
    254    542     1
    254    543     1
    255    541     1
    256    541     1
    257    571     1
    257    572     1
    258    570     1
    259    570     1
    261    275     1
    261    276     1
    261    278     1
    261    279     1
    261    272     1
    261    273     1
    262    266     1
    262    267     1
    262    269     1
    262    270     1
    262    287     1
    262    288     1
    263    265     1
    263    268     1
    263    286     1
    263    275     1
    263    276     1
    264    265     1
    264    268     1
    264    286     1
    264    275     1
    264    276     1
    265    269     1
    265    270     1
    265    284     1
    265    285     1
    266    268     1
    266    283     1
    266    278     1
    266    279     1
    267    268     1
    267    283     1
    267    278     1
    267    279     1
    268    281     1
    268    282     1
    269    280     1
    269    272     1
    269    273     1
    270    280     1
    270    272     1
    270    273     1
    272    289     1
    272    281     1
    272    282     1
    273    289     1
    273    281     1
    273    282     1
    275    637     1
    275    287     1
    275    288     1
    276    637     1
    276    287     1
    276    288     1
    278    608     1
    278    284     1
    278    285     1
    279    608     1
    279    284     1
    279    285     1
    283    600     1
    283    601     1
    284    599     1
    285    599     1
    286    629     1
    286    630     1
    287    628     1
    288    628     1
    290    304     1
    290    305     1
    290    307     1
    290    308     1
    290    301     1
    290    302     1
    291    295     1
    291    296     1
    291    298     1
    291    299     1
    291    316     1
    291    317     1
    292    294     1
    292    297     1
    292    315     1
    292    304     1
    292    305     1
    293    294     1
    293    297     1
    293    315     1
    293    304     1
    293    305     1
    294    298     1
    294    299     1
    294    313     1
    294    314     1
    295    297     1
    295    312     1
    295    307     1
    295    308     1
    296    297     1
    296    312     1
    296    307     1
    296    308     1
    297    310     1
    297    311     1
    298    309     1
    298    301     1
    298    302     1
    299    309     1
    299    301     1
    299    302     1
    301    318     1
    301    310     1
    301    311     1
    302    318     1
    302    310     1
    302    311     1
    304    695     1
    304    316     1
    304    317     1
    305    695     1
    305    316     1
    305    317     1
    307    666     1
    307    313     1
    307    314     1
    308    666     1
    308    313     1
    308    314     1
    312    658     1
    312    659     1
    313    657     1
    314    657     1
    315    687     1
    315    688     1
    316    686     1
    317    686     1
    319    333     1
    319    334     1
    319    336     1
    319    337     1
    319    330     1
    319    331     1
    320    324     1
    320    325     1
    320    327     1
    320    328     1
    320    345     1
    320    346     1
    321    323     1
    321    326     1
    321    344     1
    321    333     1
    321    334     1
    322    323     1
    322    326     1
    322    344     1
    322    333     1
    322    334     1
    323    327     1
    323    328     1
    323    342     1
    323    343     1
    324    326     1
    324    341     1
    324    336     1
    324    337     1
    325    326     1
    325    341     1
    325    336     1
    325    337     1
    326    339     1
    326    340     1
    327    338     1
    327    330     1
    327    331     1
    328    338     1
    328    330     1
    328    331     1
    330    347     1
    330    339     1
    330    340     1
    331    347     1
    331    339     1
    331    340     1
    333    753     1
    333    345     1
    333    346     1
    334    753     1
    334    345     1
    334    346     1
    336    724     1
    336    342     1
    336    343     1
    337    724     1
    337    342     1
    337    343     1
    341    716     1
    341    717     1
    342    715     1
    343    715     1
    344    745     1
    344    746     1
    345    744     1
    346    744     1
    348    362     1
    348    363     1
    348    365     1
    348    366     1
    348    359     1
    348    360     1
    349    353     1
    349    354     1
    349    356     1
    349    357     1
    349    374     1
    349    375     1
    350    352     1
    350    355     1
    350    373     1
    350    362     1
    350    363     1
    351    352     1
    351    355     1
    351    373     1
    351    362     1
    351    363     1
    352    356     1
    352    357     1
    352    371     1
    352    372     1
    353    355     1
    353    370     1
    353    365     1
    353    366     1
    354    355     1
    354    370     1
    354    365     1
    354    366     1
    355    368     1
    355    369     1
    356    367     1
    356    359     1
    356    360     1
    357    367     1
    357    359     1
    357    360     1
    359    376     1
    359    368     1
    359    369     1
    360    376     1
    360    368     1
    360    369     1
    362    811     1
    362    374     1
    362    375     1
    363    811     1
    363    374     1
    363    375     1
    365    782     1
    365    371     1
    365    372     1
    366    782     1
    366    371     1
    366    372     1
    370    774     1
    370    775     1
    371    773     1
    372    773     1
    373    803     1
    373    804     1
    374    802     1
    375    802     1
    377    391     1
    377    392     1
    377    394     1
    377    395     1
    377    388     1
    377    389     1
    378    382     1
    378    383     1
    378    385     1
    378    386     1
    378    403     1
    378    404     1
    379    381     1
    379    384     1
    379    402     1
    379    391     1
    379    392     1
    380    381     1
    380    384     1
    380    402     1
    380    391     1
    380    392     1
    381    385     1
    381    386     1
    381    400     1
    381    401     1
    382    384     1
    382    399     1
    382    394     1
    382    395     1
    383    384     1
    383    399     1
    383    394     1
    383    395     1
    384    397     1
    384    398     1
    385    396     1
    385    388     1
    385    389     1
    386    396     1
    386    388     1
    386    389     1
    388    405     1
    388    397     1
    388    398     1
    389    405     1
    389    397     1
    389    398     1
    391    869     1
    391    403     1
    391    404     1
    392    869     1
    392    403     1
    392    404     1
    394    840     1
    394    400     1
    394    401     1
    395    840     1
    395    400     1
    395    401     1
    399    832     1
    399    833     1
    400    831     1
    401    831     1
    402    861     1
    402    862     1
    403    860     1
    404    860     1
    406    420     1
    406    421     1
    406    423     1
    406    424     1
    406    417     1
    406    418     1
    407    411     1
    407    412     1
    407    414     1
    407    415     1
    407    432     1
    407    433     1
    408    410     1
    408    413     1
    408    431     1
    408    420     1
    408    421     1
    409    410     1
    409    413     1
    409    431     1
    409    420     1
    409    421     1
    410    414     1
    410    415     1
    410    429     1
    410    430     1
    411    413     1
    411    428     1
    411    423     1
    411    424     1
    412    413     1
    412    428     1
    412    423     1
    412    424     1
    413    426     1
    413    427     1
    414    425     1
    414    417     1
    414    418     1
    415    425     1
    415    417     1
    415    418     1
    417    434     1
    417    426     1
    417    427     1
    418    434     1
    418    426     1
    418    427     1
    420    927     1
    420    432     1
    420    433     1
    421    927     1
    421    432     1
    421    433     1
    423    898     1
    423    429     1
    423    430     1
    424    898     1
    424    429     1
    424    430     1
    428    890     1
    428    891     1
    429    889     1
    430    889     1
    431    919     1
    431    920     1
    432    918     1
    433    918     1
    435    449     1
    435    450     1
    435    452     1
    435    453     1
    435    446     1
    435    447     1
    436    440     1
    436    441     1
    436    443     1
    436    444     1
    436    461     1
    436    462     1
    437    439     1
    437    442     1
    437    460     1
    437    449     1
    437    450     1
    438    439     1
    438    442     1
    438    460     1
    438    449     1
    438    450     1
    439    443     1
    439    444     1
    439    458     1
    439    459     1
    440    442     1
    440    457     1
    440    452     1
    440    453     1
    441    442     1
    441    457     1
    441    452     1
    441    453     1
    442    455     1
    442    456     1
    443    454     1
    443    446     1
    443    447     1
    444    454     1
    444    446     1
    444    447     1
    446    463     1
    446    455     1
    446    456     1
    447    463     1
    447    455     1
    447    456     1
    449    985     1
    449    461     1
    449    462     1
    450    985     1
    450    461     1
    450    462     1
    452    956     1
    452    458     1
    452    459     1
    453    956     1
    453    458     1
    453    459     1
    457    948     1
    457    949     1
    458    947     1
    459    947     1
    460    977     1
    460    978     1
    461    976     1
    462    976     1
    464    478     1
    464    479     1
    464    481     1
    464    482     1
    464    475     1
    464    476     1
    465    469     1
    465    470     1
    465    472     1
    465    473     1
    465    490     1
    465    491     1
    466    468     1
    466    471     1
    466    489     1
    466    478     1
    466    479     1
    467    468     1
    467    471     1
    467    489     1
    467    478     1
    467    479     1
    468    472     1
    468    473     1
    468    487     1
    468    488     1
    469    471     1
    469    486     1
    469    481     1
    469    482     1
    470    471     1
    470    486     1
    470    481     1
    470    482     1
    471    484     1
    471    485     1
    472    483     1
    472    475     1
    472    476     1
    473    483     1
    473    475     1
    473    476     1
    475    492     1
    475    484     1
    475    485     1
    476    492     1
    476    484     1
    476    485     1
    478   1043     1
    478    490     1
    478    491     1
    479   1043     1
    479    490     1
    479    491     1
    481   1014     1
    481    487     1
    481    488     1
    482   1014     1
    482    487     1
    482    488     1
    486   1006     1
    486   1007     1
    487   1005     1
    488   1005     1
    489   1035     1
    489   1036     1
    490   1034     1
    491   1034     1
    493    507     1
    493    508     1
    493    510     1
    493    511     1
    493    504     1
    493    505     1
    494    498     1
    494    499     1
    494    501     1
    494    502     1
    494    519     1
    494    520     1
    495    497     1
    495    500     1
    495    518     1
    495    507     1
    495    508     1
    496    497     1
    496    500     1
    496    518     1
    496    507     1
    496    508     1
    497    501     1
    497    502     1
    497    516     1
    497    517     1
    498    500     1
    498    515     1
    498    510     1
    498    511     1
    499    500     1
    499    515     1
    499    510     1
    499    511     1
    500    513     1
    500    514     1
    501    512     1
    501    504     1
    501    505     1
    502    512     1
    502    504     1
    502    505     1
    504    521     1
    504    513     1
    504    514     1
    505    521     1
    505    513     1
    505    514     1
    507   1101     1
    507    519     1
    507    520     1
    508   1101     1
    508    519     1
    508    520     1
    510   1072     1
    510    516     1
    510    517     1
    511   1072     1
    511    516     1
    511    517     1
    515   1064     1
    515   1065     1
    516   1063     1
    517   1063     1
    518   1093     1
    518   1094     1
    519   1092     1
    520   1092     1
    522    536     1
    522    537     1
    522    539     1
    522    540     1
    522    533     1
    522    534     1
    523    527     1
    523    528     1
    523    530     1
    523    531     1
    523    548     1
    523    549     1
    524    526     1
    524    529     1
    524    547     1
    524    536     1
    524    537     1
    525    526     1
    525    529     1
    525    547     1
    525    536     1
    525    537     1
    526    530     1
    526    531     1
    526    545     1
    526    546     1
    527    529     1
    527    544     1
    527    539     1
    527    540     1
    528    529     1
    528    544     1
    528    539     1
    528    540     1
    529    542     1
    529    543     1
    530    541     1
    530    533     1
    530    534     1
    531    541     1
    531    533     1
    531    534     1
    533    550     1
    533    542     1
    533    543     1
    534    550     1
    534    542     1
    534    543     1
    536   1159     1
    536    548     1
    536    549     1
    537   1159     1
    537    548     1
    537    549     1
    539   1130     1
    539    545     1
    539    546     1
    540   1130     1
    540    545     1
    540    546     1
    544   1122     1
    544   1123     1
    545   1121     1
    546   1121     1
    547   1151     1
    547   1152     1
    548   1150     1
    549   1150     1
    551    565     1
    551    566     1
    551    568     1
    551    569     1
    551    562     1
    551    563     1
    552    556     1
    552    557     1
    552    559     1
    552    560     1
    552    577     1
    552    578     1
    553    555     1
    553    558     1
    553    576     1
    553    565     1
    553    566     1
    554    555     1
    554    558     1
    554    576     1
    554    565     1
    554    566     1
    555    559     1
    555    560     1
    555    574     1
    555    575     1
    556    558     1
    556    573     1
    556    568     1
    556    569     1
    557    558     1
    557    573     1
    557    568     1
    557    569     1
    558    571     1
    558    572     1
    559    570     1
    559    562     1
    559    563     1
    560    570     1
    560    562     1
    560    563     1
    562    579     1
    562    571     1
    562    572     1
    563    579     1
    563    571     1
    563    572     1
    565   1217     1
    565    577     1
    565    578     1
    566   1217     1
    566    577     1
    566    578     1
    568   1188     1
    568    574     1
    568    575     1
    569   1188     1
    569    574     1
    569    575     1
    573   1180     1
    573   1181     1
    574   1179     1
    575   1179     1
    576   1209     1
    576   1210     1
    577   1208     1
    578   1208     1
    580    594     1
    580    595     1
    580    597     1
    580    598     1
    580    591     1
    580    592     1
    581    585     1
    581    586     1
    581    588     1
    581    589     1
    581    606     1
    581    607     1
    582    584     1
    582    587     1
    582    605     1
    582    594     1
    582    595     1
    583    584     1
    583    587     1
    583    605     1
    583    594     1
    583    595     1
    584    588     1
    584    589     1
    584    603     1
    584    604     1
    585    587     1
    585    602     1
    585    597     1
    585    598     1
    586    587     1
    586    602     1
    586    597     1
    586    598     1
    587    600     1
    587    601     1
    588    599     1
    588    591     1
    588    592     1
    589    599     1
    589    591     1
    589    592     1
    591    608     1
    591    600     1
    591    601     1
    592    608     1
    592    600     1
    592    601     1
    594   1275     1
    594    606     1
    594    607     1
    595   1275     1
    595    606     1
    595    607     1
    597   1246     1
    597    603     1
    597    604     1
    598   1246     1
    598    603     1
    598    604     1
    602   1238     1
    602   1239     1
    603   1237     1
    604   1237     1
    605   1267     1
    605   1268     1
    606   1266     1
    607   1266     1
    609    623     1
    609    624     1
    609    626     1
    609    627     1
    609    620     1
    609    621     1
    610    614     1
    610    615     1
    610    617     1
    610    618     1
    610    635     1
    610    636     1
    611    613     1
    611    616     1
    611    634     1
    611    623     1
    611    624     1
    612    613     1
    612    616     1
    612    634     1
    612    623     1
    612    624     1
    613    617     1
    613    618     1
    613    632     1
    613    633     1
    614    616     1
    614    631     1
    614    626     1
    614    627     1
    615    616     1
    615    631     1
    615    626     1
    615    627     1
    616    629     1
    616    630     1
    617    628     1
    617    620     1
    617    621     1
    618    628     1
    618    620     1
    618    621     1
    620    637     1
    620    629     1
    620    630     1
    621    637     1
    621    629     1
    621    630     1
    623   1333     1
    623    635     1
    623    636     1
    624   1333     1
    624    635     1
    624    636     1
    626   1304     1
    626    632     1
    626    633     1
    627   1304     1
    627    632     1
    627    633     1
    631   1296     1
    631   1297     1
    632   1295     1
    633   1295     1
    634   1325     1
    634   1326     1
    635   1324     1
    636   1324     1
    638    652     1
    638    653     1
    638    655     1
    638    656     1
    638    649     1
    638    650     1
    639    643     1
    639    644     1
    639    646     1
    639    647     1
    639    664     1
    639    665     1
    640    642     1
    640    645     1
    640    663     1
    640    652     1
    640    653     1
    641    642     1
    641    645     1
    641    663     1
    641    652     1
    641    653     1
    642    646     1
    642    647     1
    642    661     1
    642    662     1
    643    645     1
    643    660     1
    643    655     1
    643    656     1
    644    645     1
    644    660     1
    644    655     1
    644    656     1
    645    658     1
    645    659     1
    646    657     1
    646    649     1
    646    650     1
    647    657     1
    647    649     1
    647    650     1
    649    666     1
    649    658     1
    649    659     1
    650    666     1
    650    658     1
    650    659     1
    652   1391     1
    652    664     1
    652    665     1
    653   1391     1
    653    664     1
    653    665     1
    655   1362     1
    655    661     1
    655    662     1
    656   1362     1
    656    661     1
    656    662     1
    660   1354     1
    660   1355     1
    661   1353     1
    662   1353     1
    663   1383     1
    663   1384     1
    664   1382     1
    665   1382     1
    667    681     1
    667    682     1
    667    684     1
    667    685     1
    667    678     1
    667    679     1
    668    672     1
    668    673     1
    668    675     1
    668    676     1
    668    693     1
    668    694     1
    669    671     1
    669    674     1
    669    692     1
    669    681     1
    669    682     1
    670    671     1
    670    674     1
    670    692     1
    670    681     1
    670    682     1
    671    675     1
    671    676     1
    671    690     1
    671    691     1
    672    674     1
    672    689     1
    672    684     1
    672    685     1
    673    674     1
    673    689     1
    673    684     1
    673    685     1
    674    687     1
    674    688     1
    675    686     1
    675    678     1
    675    679     1
    676    686     1
    676    678     1
    676    679     1
    678    695     1
    678    687     1
    678    688     1
    679    695     1
    679    687     1
    679    688     1
    681   1449     1
    681    693     1
    681    694     1
    682   1449     1
    682    693     1
    682    694     1
    684   1420     1
    684    690     1
    684    691     1
    685   1420     1
    685    690     1
    685    691     1
    689   1412     1
    689   1413     1
    690   1411     1
    691   1411     1
    692   1441     1
    692   1442     1
    693   1440     1
    694   1440     1
    696    710     1
    696    711     1
    696    713     1
    696    714     1
    696    707     1
    696    708     1
    697    701     1
    697    702     1
    697    704     1
    697    705     1
    697    722     1
    697    723     1
    698    700     1
    698    703     1
    698    721     1
    698    710     1
    698    711     1
    699    700     1
    699    703     1
    699    721     1
    699    710     1
    699    711     1
    700    704     1
    700    705     1
    700    719     1
    700    720     1
    701    703     1
    701    718     1
    701    713     1
    701    714     1
    702    703     1
    702    718     1
    702    713     1
    702    714     1
    703    716     1
    703    717     1
    704    715     1
    704    707     1
    704    708     1
    705    715     1
    705    707     1
    705    708     1
    707    724     1
    707    716     1
    707    717     1
    708    724     1
    708    716     1
    708    717     1
    710   1507     1
    710    722     1
    710    723     1
    711   1507     1
    711    722     1
    711    723     1
    713   1478     1
    713    719     1
    713    720     1
    714   1478     1
    714    719     1
    714    720     1
    718   1470     1
    718   1471     1
    719   1469     1
    720   1469     1
    721   1499     1
    721   1500     1
    722   1498     1
    723   1498     1
    725    739     1
    725    740     1
    725    742     1
    725    743     1
    725    736     1
    725    737     1
    726    730     1
    726    731     1
    726    733     1
    726    734     1
    726    751     1
    726    752     1
    727    729     1
    727    732     1
    727    750     1
    727    739     1
    727    740     1
    728    729     1
    728    732     1
    728    750     1
    728    739     1
    728    740     1
    729    733     1
    729    734     1
    729    748     1
    729    749     1
    730    732     1
    730    747     1
    730    742     1
    730    743     1
    731    732     1
    731    747     1
    731    742     1
    731    743     1
    732    745     1
    732    746     1
    733    744     1
    733    736     1
    733    737     1
    734    744     1
    734    736     1
    734    737     1
    736    753     1
    736    745     1
    736    746     1
    737    753     1
    737    745     1
    737    746     1
    739   1565     1
    739    751     1
    739    752     1
    740   1565     1
    740    751     1
    740    752     1
    742   1536     1
    742    748     1
    742    749     1
    743   1536     1
    743    748     1
    743    749     1
    747   1528     1
    747   1529     1
    748   1527     1
    749   1527     1
    750   1557     1
    750   1558     1
    751   1556     1
    752   1556     1
    754    768     1
    754    769     1
    754    771     1
    754    772     1
    754    765     1
    754    766     1
    755    759     1
    755    760     1
    755    762     1
    755    763     1
    755    780     1
    755    781     1
    756    758     1
    756    761     1
    756    779     1
    756    768     1
    756    769     1
    757    758     1
    757    761     1
    757    779     1
    757    768     1
    757    769     1
    758    762     1
    758    763     1
    758    777     1
    758    778     1
    759    761     1
    759    776     1
    759    771     1
    759    772     1
    760    761     1
    760    776     1
    760    771     1
    760    772     1
    761    774     1
    761    775     1
    762    773     1
    762    765     1
    762    766     1
    763    773     1
    763    765     1
    763    766     1
    765    782     1
    765    774     1
    765    775     1
    766    782     1
    766    774     1
    766    775     1
    768   1623     1
    768    780     1
    768    781     1
    769   1623     1
    769    780     1
    769    781     1
    771   1594     1
    771    777     1
    771    778     1
    772   1594     1
    772    777     1
    772    778     1
    776   1586     1
    776   1587     1
    777   1585     1
    778   1585     1
    779   1615     1
    779   1616     1
    780   1614     1
    781   1614     1
    783    797     1
    783    798     1
    783    800     1
    783    801     1
    783    794     1
    783    795     1
    784    788     1
    784    789     1
    784    791     1
    784    792     1
    784    809     1
    784    810     1
    785    787     1
    785    790     1
    785    808     1
    785    797     1
    785    798     1
    786    787     1
    786    790     1
    786    808     1
    786    797     1
    786    798     1
    787    791     1
    787    792     1
    787    806     1
    787    807     1
    788    790     1
    788    805     1
    788    800     1
    788    801     1
    789    790     1
    789    805     1
    789    800     1
    789    801     1
    790    803     1
    790    804     1
    791    802     1
    791    794     1
    791    795     1
    792    802     1
    792    794     1
    792    795     1
    794    811     1
    794    803     1
    794    804     1
    795    811     1
    795    803     1
    795    804     1
    797   1681     1
    797    809     1
    797    810     1
    798   1681     1
    798    809     1
    798    810     1
    800   1652     1
    800    806     1
    800    807     1
    801   1652     1
    801    806     1
    801    807     1
    805   1644     1
    805   1645     1
    806   1643     1
    807   1643     1
    808   1673     1
    808   1674     1
    809   1672     1
    810   1672     1
    812    826     1
    812    827     1
    812    829     1
    812    830     1
    812    823     1
    812    824     1
    813    817     1
    813    818     1
    813    820     1
    813    821     1
    813    838     1
    813    839     1
    814    816     1
    814    819     1
    814    837     1
    814    826     1
    814    827     1
    815    816     1
    815    819     1
    815    837     1
    815    826     1
    815    827     1
    816    820     1
    816    821     1
    816    835     1
    816    836     1
    817    819     1
    817    834     1
    817    829     1
    817    830     1
    818    819     1
    818    834     1
    818    829     1
    818    830     1
    819    832     1
    819    833     1
    820    831     1
    820    823     1
    820    824     1
    821    831     1
    821    823     1
    821    824     1
    823    840     1
    823    832     1
    823    833     1
    824    840     1
    824    832     1
    824    833     1
    826   1739     1
    826    838     1
    826    839     1
    827   1739     1
    827    838     1
    827    839     1
    829   1710     1
    829    835     1
    829    836     1
    830   1710     1
    830    835     1
    830    836     1
    834   1702     1
    834   1703     1
    835   1701     1
    836   1701     1
    837   1731     1
    837   1732     1
    838   1730     1
    839   1730     1
    841    855     1
    841    856     1
    841    858     1
    841    859     1
    841    852     1
    841    853     1
    842    846     1
    842    847     1
    842    849     1
    842    850     1
    842    867     1
    842    868     1
    843    845     1
    843    848     1
    843    866     1
    843    855     1
    843    856     1
    844    845     1
    844    848     1
    844    866     1
    844    855     1
    844    856     1
    845    849     1
    845    850     1
    845    864     1
    845    865     1
    846    848     1
    846    863     1
    846    858     1
    846    859     1
    847    848     1
    847    863     1
    847    858     1
    847    859     1
    848    861     1
    848    862     1
    849    860     1
    849    852     1
    849    853     1
    850    860     1
    850    852     1
    850    853     1
    852    869     1
    852    861     1
    852    862     1
    853    869     1
    853    861     1
    853    862     1
    855   1797     1
    855    867     1
    855    868     1
    856   1797     1
    856    867     1
    856    868     1
    858   1768     1
    858    864     1
    858    865     1
    859   1768     1
    859    864     1
    859    865     1
    863   1760     1
    863   1761     1
    864   1759     1
    865   1759     1
    866   1789     1
    866   1790     1
    867   1788     1
    868   1788     1
    870    884     1
    870    885     1
    870    887     1
    870    888     1
    870    881     1
    870    882     1
    871    875     1
    871    876     1
    871    878     1
    871    879     1
    871    896     1
    871    897     1
    872    874     1
    872    877     1
    872    895     1
    872    884     1
    872    885     1
    873    874     1
    873    877     1
    873    895     1
    873    884     1
    873    885     1
    874    878     1
    874    879     1
    874    893     1
    874    894     1
    875    877     1
    875    892     1
    875    887     1
    875    888     1
    876    877     1
    876    892     1
    876    887     1
    876    888     1
    877    890     1
    877    891     1
    878    889     1
    878    881     1
    878    882     1
    879    889     1
    879    881     1
    879    882     1
    881    898     1
    881    890     1
    881    891     1
    882    898     1
    882    890     1
    882    891     1
    884   1855     1
    884    896     1
    884    897     1
    885   1855     1
    885    896     1
    885    897     1
    887   1826     1
    887    893     1
    887    894     1
    888   1826     1
    888    893     1
    888    894     1
    892   1818     1
    892   1819     1
    893   1817     1
    894   1817     1
    895   1847     1
    895   1848     1
    896   1846     1
    897   1846     1
    899    913     1
    899    914     1
    899    916     1
    899    917     1
    899    910     1
    899    911     1
    900    904     1
    900    905     1
    900    907     1
    900    908     1
    900    925     1
    900    926     1
    901    903     1
    901    906     1
    901    924     1
    901    913     1
    901    914     1
    902    903     1
    902    906     1
    902    924     1
    902    913     1
    902    914     1
    903    907     1
    903    908     1
    903    922     1
    903    923     1
    904    906     1
    904    921     1
    904    916     1
    904    917     1
    905    906     1
    905    921     1
    905    916     1
    905    917     1
    906    919     1
    906    920     1
    907    918     1
    907    910     1
    907    911     1
    908    918     1
    908    910     1
    908    911     1
    910    927     1
    910    919     1
    910    920     1
    911    927     1
    911    919     1
    911    920     1
    913   1913     1
    913    925     1
    913    926     1
    914   1913     1
    914    925     1
    914    926     1
    916   1884     1
    916    922     1
    916    923     1
    917   1884     1
    917    922     1
    917    923     1
    921   1876     1
    921   1877     1
    922   1875     1
    923   1875     1
    924   1905     1
    924   1906     1
    925   1904     1
    926   1904     1
    928    942     1
    928    943     1
    928    945     1
    928    946     1
    928    939     1
    928    940     1
    929    933     1
    929    934     1
    929    936     1
    929    937     1
    929    954     1
    929    955     1
    930    932     1
    930    935     1
    930    953     1
    930    942     1
    930    943     1
    931    932     1
    931    935     1
    931    953     1
    931    942     1
    931    943     1
    932    936     1
    932    937     1
    932    951     1
    932    952     1
    933    935     1
    933    950     1
    933    945     1
    933    946     1
    934    935     1
    934    950     1
    934    945     1
    934    946     1
    935    948     1
    935    949     1
    936    947     1
    936    939     1
    936    940     1
    937    947     1
    937    939     1
    937    940     1
    939    956     1
    939    948     1
    939    949     1
    940    956     1
    940    948     1
    940    949     1
    942   1971     1
    942    954     1
    942    955     1
    943   1971     1
    943    954     1
    943    955     1
    945   1942     1
    945    951     1
    945    952     1
    946   1942     1
    946    951     1
    946    952     1
    950   1934     1
    950   1935     1
    951   1933     1
    952   1933     1
    953   1963     1
    953   1964     1
    954   1962     1
    955   1962     1
    957    971     1
    957    972     1
    957    974     1
    957    975     1
    957    968     1
    957    969     1
    958    962     1
    958    963     1
    958    965     1
    958    966     1
    958    983     1
    958    984     1
    959    961     1
    959    964     1
    959    982     1
    959    971     1
    959    972     1
    960    961     1
    960    964     1
    960    982     1
    960    971     1
    960    972     1
    961    965     1
    961    966     1
    961    980     1
    961    981     1
    962    964     1
    962    979     1
    962    974     1
    962    975     1
    963    964     1
    963    979     1
    963    974     1
    963    975     1
    964    977     1
    964    978     1
    965    976     1
    965    968     1
    965    969     1
    966    976     1
    966    968     1
    966    969     1
    968    985     1
    968    977     1
    968    978     1
    969    985     1
    969    977     1
    969    978     1
    971   2029     1
    971    983     1
    971    984     1
    972   2029     1
    972    983     1
    972    984     1
    974   2000     1
    974    980     1
    974    981     1
    975   2000     1
    975    980     1
    975    981     1
    979   1992     1
    979   1993     1
    980   1991     1
    981   1991     1
    982   2021     1
    982   2022     1
    983   2020     1
    984   2020     1
    986   1000     1
    986   1001     1
    986   1003     1
    986   1004     1
    986    997     1
    986    998     1
    987    991     1
    987    992     1
    987    994     1
    987    995     1
    987   1012     1
    987   1013     1
    988    990     1
    988    993     1
    988   1011     1
    988   1000     1
    988   1001     1
    989    990     1
    989    993     1
    989   1011     1
    989   1000     1
    989   1001     1
    990    994     1
    990    995     1
    990   1009     1
    990   1010     1
    991    993     1
    991   1008     1
    991   1003     1
    991   1004     1
    992    993     1
    992   1008     1
    992   1003     1
    992   1004     1
    993   1006     1
    993   1007     1
    994   1005     1
    994    997     1
    994    998     1
    995   1005     1
    995    997     1
    995    998     1
    997   1014     1
    997   1006     1
    997   1007     1
    998   1014     1
    998   1006     1
    998   1007     1
   1000   2087     1
   1000   1012     1
   1000   1013     1
   1001   2087     1
   1001   1012     1
   1001   1013     1
   1003   2058     1
   1003   1009     1
   1003   1010     1
   1004   2058     1
   1004   1009     1
   1004   1010     1
   1008   2050     1
   1008   2051     1
   1009   2049     1
   1010   2049     1
   1011   2079     1
   1011   2080     1
   1012   2078     1
   1013   2078     1
   1015   1029     1
   1015   1030     1
   1015   1032     1
   1015   1033     1
   1015   1026     1
   1015   1027     1
   1016   1020     1
   1016   1021     1
   1016   1023     1
   1016   1024     1
   1016   1041     1
   1016   1042     1
   1017   1019     1
   1017   1022     1
   1017   1040     1
   1017   1029     1
   1017   1030     1
   1018   1019     1
   1018   1022     1
   1018   1040     1
   1018   1029     1
   1018   1030     1
   1019   1023     1
   1019   1024     1
   1019   1038     1
   1019   1039     1
   1020   1022     1
   1020   1037     1
   1020   1032     1
   1020   1033     1
   1021   1022     1
   1021   1037     1
   1021   1032     1
   1021   1033     1
   1022   1035     1
   1022   1036     1
   1023   1034     1
   1023   1026     1
   1023   1027     1
   1024   1034     1
   1024   1026     1
   1024   1027     1
   1026   1043     1
   1026   1035     1
   1026   1036     1
   1027   1043     1
   1027   1035     1
   1027   1036     1
   1029   2145     1
   1029   1041     1
   1029   1042     1
   1030   2145     1
   1030   1041     1
   1030   1042     1
   1032   2116     1
   1032   1038     1
   1032   1039     1
   1033   2116     1
   1033   1038     1
   1033   1039     1
   1037   2108     1
   1037   2109     1
   1038   2107     1
   1039   2107     1
   1040   2137     1
   1040   2138     1
   1041   2136     1
   1042   2136     1
   1044   1058     1
   1044   1059     1
   1044   1061     1
   1044   1062     1
   1044   1055     1
   1044   1056     1
   1045   1049     1
   1045   1050     1
   1045   1052     1
   1045   1053     1
   1045   1070     1
   1045   1071     1
   1046   1048     1
   1046   1051     1
   1046   1069     1
   1046   1058     1
   1046   1059     1
   1047   1048     1
   1047   1051     1
   1047   1069     1
   1047   1058     1
   1047   1059     1
   1048   1052     1
   1048   1053     1
   1048   1067     1
   1048   1068     1
   1049   1051     1
   1049   1066     1
   1049   1061     1
   1049   1062     1
   1050   1051     1
   1050   1066     1
   1050   1061     1
   1050   1062     1
   1051   1064     1
   1051   1065     1
   1052   1063     1
   1052   1055     1
   1052   1056     1
   1053   1063     1
   1053   1055     1
   1053   1056     1
   1055   1072     1
   1055   1064     1
   1055   1065     1
   1056   1072     1
   1056   1064     1
   1056   1065     1
   1058   2203     1
   1058   1070     1
   1058   1071     1
   1059   2203     1
   1059   1070     1
   1059   1071     1
   1061   2174     1
   1061   1067     1
   1061   1068     1
   1062   2174     1
   1062   1067     1
   1062   1068     1
   1066   2166     1
   1066   2167     1
   1067   2165     1
   1068   2165     1
   1069   2195     1
   1069   2196     1
   1070   2194     1
   1071   2194     1
   1073   1087     1
   1073   1088     1
   1073   1090     1
   1073   1091     1
   1073   1084     1
   1073   1085     1
   1074   1078     1
   1074   1079     1
   1074   1081     1
   1074   1082     1
   1074   1099     1
   1074   1100     1
   1075   1077     1
   1075   1080     1
   1075   1098     1
   1075   1087     1
   1075   1088     1
   1076   1077     1
   1076   1080     1
   1076   1098     1
   1076   1087     1
   1076   1088     1
   1077   1081     1
   1077   1082     1
   1077   1096     1
   1077   1097     1
   1078   1080     1
   1078   1095     1
   1078   1090     1
   1078   1091     1
   1079   1080     1
   1079   1095     1
   1079   1090     1
   1079   1091     1
   1080   1093     1
   1080   1094     1
   1081   1092     1
   1081   1084     1
   1081   1085     1
   1082   1092     1
   1082   1084     1
   1082   1085     1
   1084   1101     1
   1084   1093     1
   1084   1094     1
   1085   1101     1
   1085   1093     1
   1085   1094     1
   1087   2261     1
   1087   1099     1
   1087   1100     1
   1088   2261     1
   1088   1099     1
   1088   1100     1
   1090   2232     1
   1090   1096     1
   1090   1097     1
   1091   2232     1
   1091   1096     1
   1091   1097     1
   1095   2224     1
   1095   2225     1
   1096   2223     1
   1097   2223     1
   1098   2253     1
   1098   2254     1
   1099   2252     1
   1100   2252     1
   1102   1116     1
   1102   1117     1
   1102   1119     1
   1102   1120     1
   1102   1113     1
   1102   1114     1
   1103   1107     1
   1103   1108     1
   1103   1110     1
   1103   1111     1
   1103   1128     1
   1103   1129     1
   1104   1106     1
   1104   1109     1
   1104   1127     1
   1104   1116     1
   1104   1117     1
   1105   1106     1
   1105   1109     1
   1105   1127     1
   1105   1116     1
   1105   1117     1
   1106   1110     1
   1106   1111     1
   1106   1125     1
   1106   1126     1
   1107   1109     1
   1107   1124     1
   1107   1119     1
   1107   1120     1
   1108   1109     1
   1108   1124     1
   1108   1119     1
   1108   1120     1
   1109   1122     1
   1109   1123     1
   1110   1121     1
   1110   1113     1
   1110   1114     1
   1111   1121     1
   1111   1113     1
   1111   1114     1
   1113   1130     1
   1113   1122     1
   1113   1123     1
   1114   1130     1
   1114   1122     1
   1114   1123     1
   1116   2319     1
   1116   1128     1
   1116   1129     1
   1117   2319     1
   1117   1128     1
   1117   1129     1
   1119   2290     1
   1119   1125     1
   1119   1126     1
   1120   2290     1
   1120   1125     1
   1120   1126     1
   1124   2282     1
   1124   2283     1
   1125   2281     1
   1126   2281     1
   1127   2311     1
   1127   2312     1
   1128   2310     1
   1129   2310     1
   1131   1145     1
   1131   1146     1
   1131   1148     1
   1131   1149     1
   1131   1142     1
   1131   1143     1
   1132   1136     1
   1132   1137     1
   1132   1139     1
   1132   1140     1
   1132   1157     1
   1132   1158     1
   1133   1135     1
   1133   1138     1
   1133   1156     1
   1133   1145     1
   1133   1146     1
   1134   1135     1
   1134   1138     1
   1134   1156     1
   1134   1145     1
   1134   1146     1
   1135   1139     1
   1135   1140     1
   1135   1154     1
   1135   1155     1
   1136   1138     1
   1136   1153     1
   1136   1148     1
   1136   1149     1
   1137   1138     1
   1137   1153     1
   1137   1148     1
   1137   1149     1
   1138   1151     1
   1138   1152     1
   1139   1150     1
   1139   1142     1
   1139   1143     1
   1140   1150     1
   1140   1142     1
   1140   1143     1
   1142   1159     1
   1142   1151     1
   1142   1152     1
   1143   1159     1
   1143   1151     1
   1143   1152     1
   1145   2377     1
   1145   1157     1
   1145   1158     1
   1146   2377     1
   1146   1157     1
   1146   1158     1
   1148   2348     1
   1148   1154     1
   1148   1155     1
   1149   2348     1
   1149   1154     1
   1149   1155     1
   1153   2340     1
   1153   2341     1
   1154   2339     1
   1155   2339     1
   1156   2369     1
   1156   2370     1
   1157   2368     1
   1158   2368     1
   1160   1174     1
   1160   1175     1
   1160   1177     1
   1160   1178     1
   1160   1171     1
   1160   1172     1
   1161   1165     1
   1161   1166     1
   1161   1168     1
   1161   1169     1
   1161   1186     1
   1161   1187     1
   1162   1164     1
   1162   1167     1
   1162   1185     1
   1162   1174     1
   1162   1175     1
   1163   1164     1
   1163   1167     1
   1163   1185     1
   1163   1174     1
   1163   1175     1
   1164   1168     1
   1164   1169     1
   1164   1183     1
   1164   1184     1
   1165   1167     1
   1165   1182     1
   1165   1177     1
   1165   1178     1
   1166   1167     1
   1166   1182     1
   1166   1177     1
   1166   1178     1
   1167   1180     1
   1167   1181     1
   1168   1179     1
   1168   1171     1
   1168   1172     1
   1169   1179     1
   1169   1171     1
   1169   1172     1
   1171   1188     1
   1171   1180     1
   1171   1181     1
   1172   1188     1
   1172   1180     1
   1172   1181     1
   1174   2435     1
   1174   1186     1
   1174   1187     1
   1175   2435     1
   1175   1186     1
   1175   1187     1
   1177   2406     1
   1177   1183     1
   1177   1184     1
   1178   2406     1
   1178   1183     1
   1178   1184     1
   1182   2398     1
   1182   2399     1
   1183   2397     1
   1184   2397     1
   1185   2427     1
   1185   2428     1
   1186   2426     1
   1187   2426     1
   1189   1203     1
   1189   1204     1
   1189   1206     1
   1189   1207     1
   1189   1200     1
   1189   1201     1
   1190   1194     1
   1190   1195     1
   1190   1197     1
   1190   1198     1
   1190   1215     1
   1190   1216     1
   1191   1193     1
   1191   1196     1
   1191   1214     1
   1191   1203     1
   1191   1204     1
   1192   1193     1
   1192   1196     1
   1192   1214     1
   1192   1203     1
   1192   1204     1
   1193   1197     1
   1193   1198     1
   1193   1212     1
   1193   1213     1
   1194   1196     1
   1194   1211     1
   1194   1206     1
   1194   1207     1
   1195   1196     1
   1195   1211     1
   1195   1206     1
   1195   1207     1
   1196   1209     1
   1196   1210     1
   1197   1208     1
   1197   1200     1
   1197   1201     1
   1198   1208     1
   1198   1200     1
   1198   1201     1
   1200   1217     1
   1200   1209     1
   1200   1210     1
   1201   1217     1
   1201   1209     1
   1201   1210     1
   1203   2493     1
   1203   1215     1
   1203   1216     1
   1204   2493     1
   1204   1215     1
   1204   1216     1
   1206   2464     1
   1206   1212     1
   1206   1213     1
   1207   2464     1
   1207   1212     1
   1207   1213     1
   1211   2456     1
   1211   2457     1
   1212   2455     1
   1213   2455     1
   1214   2485     1
   1214   2486     1
   1215   2484     1
   1216   2484     1
   1218   1232     1
   1218   1233     1
   1218   1235     1
   1218   1236     1
   1218   1229     1
   1218   1230     1
   1219   1223     1
   1219   1224     1
   1219   1226     1
   1219   1227     1
   1219   1244     1
   1219   1245     1
   1220   1222     1
   1220   1225     1
   1220   1243     1
   1220   1232     1
   1220   1233     1
   1221   1222     1
   1221   1225     1
   1221   1243     1
   1221   1232     1
   1221   1233     1
   1222   1226     1
   1222   1227     1
   1222   1241     1
   1222   1242     1
   1223   1225     1
   1223   1240     1
   1223   1235     1
   1223   1236     1
   1224   1225     1
   1224   1240     1
   1224   1235     1
   1224   1236     1
   1225   1238     1
   1225   1239     1
   1226   1237     1
   1226   1229     1
   1226   1230     1
   1227   1237     1
   1227   1229     1
   1227   1230     1
   1229   1246     1
   1229   1238     1
   1229   1239     1
   1230   1246     1
   1230   1238     1
   1230   1239     1
   1232   2551     1
   1232   1244     1
   1232   1245     1
   1233   2551     1
   1233   1244     1
   1233   1245     1
   1235   2522     1
   1235   1241     1
   1235   1242     1
   1236   2522     1
   1236   1241     1
   1236   1242     1
   1240   2514     1
   1240   2515     1
   1241   2513     1
   1242   2513     1
   1243   2543     1
   1243   2544     1
   1244   2542     1
   1245   2542     1
   1247   1261     1
   1247   1262     1
   1247   1264     1
   1247   1265     1
   1247   1258     1
   1247   1259     1
   1248   1252     1
   1248   1253     1
   1248   1255     1
   1248   1256     1
   1248   1273     1
   1248   1274     1
   1249   1251     1
   1249   1254     1
   1249   1272     1
   1249   1261     1
   1249   1262     1
   1250   1251     1
   1250   1254     1
   1250   1272     1
   1250   1261     1
   1250   1262     1
   1251   1255     1
   1251   1256     1
   1251   1270     1
   1251   1271     1
   1252   1254     1
   1252   1269     1
   1252   1264     1
   1252   1265     1
   1253   1254     1
   1253   1269     1
   1253   1264     1
   1253   1265     1
   1254   1267     1
   1254   1268     1
   1255   1266     1
   1255   1258     1
   1255   1259     1
   1256   1266     1
   1256   1258     1
   1256   1259     1
   1258   1275     1
   1258   1267     1
   1258   1268     1
   1259   1275     1
   1259   1267     1
   1259   1268     1
   1261   2609     1
   1261   1273     1
   1261   1274     1
   1262   2609     1
   1262   1273     1
   1262   1274     1
   1264   2580     1
   1264   1270     1
   1264   1271     1
   1265   2580     1
   1265   1270     1
   1265   1271     1
   1269   2572     1
   1269   2573     1
   1270   2571     1
   1271   2571     1
   1272   2601     1
   1272   2602     1
   1273   2600     1
   1274   2600     1
   1276   1290     1
   1276   1291     1
   1276   1293     1
   1276   1294     1
   1276   1287     1
   1276   1288     1
   1277   1281     1
   1277   1282     1
   1277   1284     1
   1277   1285     1
   1277   1302     1
   1277   1303     1
   1278   1280     1
   1278   1283     1
   1278   1301     1
   1278   1290     1
   1278   1291     1
   1279   1280     1
   1279   1283     1
   1279   1301     1
   1279   1290     1
   1279   1291     1
   1280   1284     1
   1280   1285     1
   1280   1299     1
   1280   1300     1
   1281   1283     1
   1281   1298     1
   1281   1293     1
   1281   1294     1
   1282   1283     1
   1282   1298     1
   1282   1293     1
   1282   1294     1
   1283   1296     1
   1283   1297     1
   1284   1295     1
   1284   1287     1
   1284   1288     1
   1285   1295     1
   1285   1287     1
   1285   1288     1
   1287   1304     1
   1287   1296     1
   1287   1297     1
   1288   1304     1
   1288   1296     1
   1288   1297     1
   1290   2667     1
   1290   1302     1
   1290   1303     1
   1291   2667     1
   1291   1302     1
   1291   1303     1
   1293   2638     1
   1293   1299     1
   1293   1300     1
   1294   2638     1
   1294   1299     1
   1294   1300     1
   1298   2630     1
   1298   2631     1
   1299   2629     1
   1300   2629     1
   1301   2659     1
   1301   2660     1
   1302   2658     1
   1303   2658     1
   1305   1319     1
   1305   1320     1
   1305   1322     1
   1305   1323     1
   1305   1316     1
   1305   1317     1
   1306   1310     1
   1306   1311     1
   1306   1313     1
   1306   1314     1
   1306   1331     1
   1306   1332     1
   1307   1309     1
   1307   1312     1
   1307   1330     1
   1307   1319     1
   1307   1320     1
   1308   1309     1
   1308   1312     1
   1308   1330     1
   1308   1319     1
   1308   1320     1
   1309   1313     1
   1309   1314     1
   1309   1328     1
   1309   1329     1
   1310   1312     1
   1310   1327     1
   1310   1322     1
   1310   1323     1
   1311   1312     1
   1311   1327     1
   1311   1322     1
   1311   1323     1
   1312   1325     1
   1312   1326     1
   1313   1324     1
   1313   1316     1
   1313   1317     1
   1314   1324     1
   1314   1316     1
   1314   1317     1
   1316   1333     1
   1316   1325     1
   1316   1326     1
   1317   1333     1
   1317   1325     1
   1317   1326     1
   1319   2725     1
   1319   1331     1
   1319   1332     1
   1320   2725     1
   1320   1331     1
   1320   1332     1
   1322   2696     1
   1322   1328     1
   1322   1329     1
   1323   2696     1
   1323   1328     1
   1323   1329     1
   1327   2688     1
   1327   2689     1
   1328   2687     1
   1329   2687     1
   1330   2717     1
   1330   2718     1
   1331   2716     1
   1332   2716     1
   1334   1348     1
   1334   1349     1
   1334   1351     1
   1334   1352     1
   1334   1345     1
   1334   1346     1
   1335   1339     1
   1335   1340     1
   1335   1342     1
   1335   1343     1
   1335   1360     1
   1335   1361     1
   1336   1338     1
   1336   1341     1
   1336   1359     1
   1336   1348     1
   1336   1349     1
   1337   1338     1
   1337   1341     1
   1337   1359     1
   1337   1348     1
   1337   1349     1
   1338   1342     1
   1338   1343     1
   1338   1357     1
   1338   1358     1
   1339   1341     1
   1339   1356     1
   1339   1351     1
   1339   1352     1
   1340   1341     1
   1340   1356     1
   1340   1351     1
   1340   1352     1
   1341   1354     1
   1341   1355     1
   1342   1353     1
   1342   1345     1
   1342   1346     1
   1343   1353     1
   1343   1345     1
   1343   1346     1
   1345   1362     1
   1345   1354     1
   1345   1355     1
   1346   1362     1
   1346   1354     1
   1346   1355     1
   1348   2783     1
   1348   1360     1
   1348   1361     1
   1349   2783     1
   1349   1360     1
   1349   1361     1
   1351   2754     1
   1351   1357     1
   1351   1358     1
   1352   2754     1
   1352   1357     1
   1352   1358     1
   1356   2746     1
   1356   2747     1
   1357   2745     1
   1358   2745     1
   1359   2775     1
   1359   2776     1
   1360   2774     1
   1361   2774     1
   1363   1377     1
   1363   1378     1
   1363   1380     1
   1363   1381     1
   1363   1374     1
   1363   1375     1
   1364   1368     1
   1364   1369     1
   1364   1371     1
   1364   1372     1
   1364   1389     1
   1364   1390     1
   1365   1367     1
   1365   1370     1
   1365   1388     1
   1365   1377     1
   1365   1378     1
   1366   1367     1
   1366   1370     1
   1366   1388     1
   1366   1377     1
   1366   1378     1
   1367   1371     1
   1367   1372     1
   1367   1386     1
   1367   1387     1
   1368   1370     1
   1368   1385     1
   1368   1380     1
   1368   1381     1
   1369   1370     1
   1369   1385     1
   1369   1380     1
   1369   1381     1
   1370   1383     1
   1370   1384     1
   1371   1382     1
   1371   1374     1
   1371   1375     1
   1372   1382     1
   1372   1374     1
   1372   1375     1
   1374   1391     1
   1374   1383     1
   1374   1384     1
   1375   1391     1
   1375   1383     1
   1375   1384     1
   1377   2841     1
   1377   1389     1
   1377   1390     1
   1378   2841     1
   1378   1389     1
   1378   1390     1
   1380   2812     1
   1380   1386     1
   1380   1387     1
   1381   2812     1
   1381   1386     1
   1381   1387     1
   1385   2804     1
   1385   2805     1
   1386   2803     1
   1387   2803     1
   1388   2833     1
   1388   2834     1
   1389   2832     1
   1390   2832     1
   1392   1406     1
   1392   1407     1
   1392   1409     1
   1392   1410     1
   1392   1403     1
   1392   1404     1
   1393   1397     1
   1393   1398     1
   1393   1400     1
   1393   1401     1
   1393   1418     1
   1393   1419     1
   1394   1396     1
   1394   1399     1
   1394   1417     1
   1394   1406     1
   1394   1407     1
   1395   1396     1
   1395   1399     1
   1395   1417     1
   1395   1406     1
   1395   1407     1
   1396   1400     1
   1396   1401     1
   1396   1415     1
   1396   1416     1
   1397   1399     1
   1397   1414     1
   1397   1409     1
   1397   1410     1
   1398   1399     1
   1398   1414     1
   1398   1409     1
   1398   1410     1
   1399   1412     1
   1399   1413     1
   1400   1411     1
   1400   1403     1
   1400   1404     1
   1401   1411     1
   1401   1403     1
   1401   1404     1
   1403   1420     1
   1403   1412     1
   1403   1413     1
   1404   1420     1
   1404   1412     1
   1404   1413     1
   1406   2899     1
   1406   1418     1
   1406   1419     1
   1407   2899     1
   1407   1418     1
   1407   1419     1
   1409   2870     1
   1409   1415     1
   1409   1416     1
   1410   2870     1
   1410   1415     1
   1410   1416     1
   1414   2862     1
   1414   2863     1
   1415   2861     1
   1416   2861     1
   1417   2891     1
   1417   2892     1
   1418   2890     1
   1419   2890     1
   1421   1435     1
   1421   1436     1
   1421   1438     1
   1421   1439     1
   1421   1432     1
   1421   1433     1
   1422   1426     1
   1422   1427     1
   1422   1429     1
   1422   1430     1
   1422   1447     1
   1422   1448     1
   1423   1425     1
   1423   1428     1
   1423   1446     1
   1423   1435     1
   1423   1436     1
   1424   1425     1
   1424   1428     1
   1424   1446     1
   1424   1435     1
   1424   1436     1
   1425   1429     1
   1425   1430     1
   1425   1444     1
   1425   1445     1
   1426   1428     1
   1426   1443     1
   1426   1438     1
   1426   1439     1
   1427   1428     1
   1427   1443     1
   1427   1438     1
   1427   1439     1
   1428   1441     1
   1428   1442     1
   1429   1440     1
   1429   1432     1
   1429   1433     1
   1430   1440     1
   1430   1432     1
   1430   1433     1
   1432   1449     1
   1432   1441     1
   1432   1442     1
   1433   1449     1
   1433   1441     1
   1433   1442     1
   1435   2957     1
   1435   1447     1
   1435   1448     1
   1436   2957     1
   1436   1447     1
   1436   1448     1
   1438   2928     1
   1438   1444     1
   1438   1445     1
   1439   2928     1
   1439   1444     1
   1439   1445     1
   1443   2920     1
   1443   2921     1
   1444   2919     1
   1445   2919     1
   1446   2949     1
   1446   2950     1
   1447   2948     1
   1448   2948     1
   1450   1464     1
   1450   1465     1
   1450   1467     1
   1450   1468     1
   1450   1461     1
   1450   1462     1
   1451   1455     1
   1451   1456     1
   1451   1458     1
   1451   1459     1
   1451   1476     1
   1451   1477     1
   1452   1454     1
   1452   1457     1
   1452   1475     1
   1452   1464     1
   1452   1465     1
   1453   1454     1
   1453   1457     1
   1453   1475     1
   1453   1464     1
   1453   1465     1
   1454   1458     1
   1454   1459     1
   1454   1473     1
   1454   1474     1
   1455   1457     1
   1455   1472     1
   1455   1467     1
   1455   1468     1
   1456   1457     1
   1456   1472     1
   1456   1467     1
   1456   1468     1
   1457   1470     1
   1457   1471     1
   1458   1469     1
   1458   1461     1
   1458   1462     1
   1459   1469     1
   1459   1461     1
   1459   1462     1
   1461   1478     1
   1461   1470     1
   1461   1471     1
   1462   1478     1
   1462   1470     1
   1462   1471     1
   1464   3015     1
   1464   1476     1
   1464   1477     1
   1465   3015     1
   1465   1476     1
   1465   1477     1
   1467   2986     1
   1467   1473     1
   1467   1474     1
   1468   2986     1
   1468   1473     1
   1468   1474     1
   1472   2978     1
   1472   2979     1
   1473   2977     1
   1474   2977     1
   1475   3007     1
   1475   3008     1
   1476   3006     1
   1477   3006     1
   1479   1493     1
   1479   1494     1
   1479   1496     1
   1479   1497     1
   1479   1490     1
   1479   1491     1
   1480   1484     1
   1480   1485     1
   1480   1487     1
   1480   1488     1
   1480   1505     1
   1480   1506     1
   1481   1483     1
   1481   1486     1
   1481   1504     1
   1481   1493     1
   1481   1494     1
   1482   1483     1
   1482   1486     1
   1482   1504     1
   1482   1493     1
   1482   1494     1
   1483   1487     1
   1483   1488     1
   1483   1502     1
   1483   1503     1
   1484   1486     1
   1484   1501     1
   1484   1496     1
   1484   1497     1
   1485   1486     1
   1485   1501     1
   1485   1496     1
   1485   1497     1
   1486   1499     1
   1486   1500     1
   1487   1498     1
   1487   1490     1
   1487   1491     1
   1488   1498     1
   1488   1490     1
   1488   1491     1
   1490   1507     1
   1490   1499     1
   1490   1500     1
   1491   1507     1
   1491   1499     1
   1491   1500     1
   1493   3073     1
   1493   1505     1
   1493   1506     1
   1494   3073     1
   1494   1505     1
   1494   1506     1
   1496   3044     1
   1496   1502     1
   1496   1503     1
   1497   3044     1
   1497   1502     1
   1497   1503     1
   1501   3036     1
   1501   3037     1
   1502   3035     1
   1503   3035     1
   1504   3065     1
   1504   3066     1
   1505   3064     1
   1506   3064     1
   1508   1522     1
   1508   1523     1
   1508   1525     1
   1508   1526     1
   1508   1519     1
   1508   1520     1
   1509   1513     1
   1509   1514     1
   1509   1516     1
   1509   1517     1
   1509   1534     1
   1509   1535     1
   1510   1512     1
   1510   1515     1
   1510   1533     1
   1510   1522     1
   1510   1523     1
   1511   1512     1
   1511   1515     1
   1511   1533     1
   1511   1522     1
   1511   1523     1
   1512   1516     1
   1512   1517     1
   1512   1531     1
   1512   1532     1
   1513   1515     1
   1513   1530     1
   1513   1525     1
   1513   1526     1
   1514   1515     1
   1514   1530     1
   1514   1525     1
   1514   1526     1
   1515   1528     1
   1515   1529     1
   1516   1527     1
   1516   1519     1
   1516   1520     1
   1517   1527     1
   1517   1519     1
   1517   1520     1
   1519   1536     1
   1519   1528     1
   1519   1529     1
   1520   1536     1
   1520   1528     1
   1520   1529     1
   1522   3131     1
   1522   1534     1
   1522   1535     1
   1523   3131     1
   1523   1534     1
   1523   1535     1
   1525   3102     1
   1525   1531     1
   1525   1532     1
   1526   3102     1
   1526   1531     1
   1526   1532     1
   1530   3094     1
   1530   3095     1
   1531   3093     1
   1532   3093     1
   1533   3123     1
   1533   3124     1
   1534   3122     1
   1535   3122     1
   1537   1551     1
   1537   1552     1
   1537   1554     1
   1537   1555     1
   1537   1548     1
   1537   1549     1
   1538   1542     1
   1538   1543     1
   1538   1545     1
   1538   1546     1
   1538   1563     1
   1538   1564     1
   1539   1541     1
   1539   1544     1
   1539   1562     1
   1539   1551     1
   1539   1552     1
   1540   1541     1
   1540   1544     1
   1540   1562     1
   1540   1551     1
   1540   1552     1
   1541   1545     1
   1541   1546     1
   1541   1560     1
   1541   1561     1
   1542   1544     1
   1542   1559     1
   1542   1554     1
   1542   1555     1
   1543   1544     1
   1543   1559     1
   1543   1554     1
   1543   1555     1
   1544   1557     1
   1544   1558     1
   1545   1556     1
   1545   1548     1
   1545   1549     1
   1546   1556     1
   1546   1548     1
   1546   1549     1
   1548   1565     1
   1548   1557     1
   1548   1558     1
   1549   1565     1
   1549   1557     1
   1549   1558     1
   1551   3189     1
   1551   1563     1
   1551   1564     1
   1552   3189     1
   1552   1563     1
   1552   1564     1
   1554   3160     1
   1554   1560     1
   1554   1561     1
   1555   3160     1
   1555   1560     1
   1555   1561     1
   1559   3152     1
   1559   3153     1
   1560   3151     1
   1561   3151     1
   1562   3181     1
   1562   3182     1
   1563   3180     1
   1564   3180     1
   1566   1580     1
   1566   1581     1
   1566   1583     1
   1566   1584     1
   1566   1577     1
   1566   1578     1
   1567   1571     1
   1567   1572     1
   1567   1574     1
   1567   1575     1
   1567   1592     1
   1567   1593     1
   1568   1570     1
   1568   1573     1
   1568   1591     1
   1568   1580     1
   1568   1581     1
   1569   1570     1
   1569   1573     1
   1569   1591     1
   1569   1580     1
   1569   1581     1
   1570   1574     1
   1570   1575     1
   1570   1589     1
   1570   1590     1
   1571   1573     1
   1571   1588     1
   1571   1583     1
   1571   1584     1
   1572   1573     1
   1572   1588     1
   1572   1583     1
   1572   1584     1
   1573   1586     1
   1573   1587     1
   1574   1585     1
   1574   1577     1
   1574   1578     1
   1575   1585     1
   1575   1577     1
   1575   1578     1
   1577   1594     1
   1577   1586     1
   1577   1587     1
   1578   1594     1
   1578   1586     1
   1578   1587     1
   1580   3247     1
   1580   1592     1
   1580   1593     1
   1581   3247     1
   1581   1592     1
   1581   1593     1
   1583   3218     1
   1583   1589     1
   1583   1590     1
   1584   3218     1
   1584   1589     1
   1584   1590     1
   1588   3210     1
   1588   3211     1
   1589   3209     1
   1590   3209     1
   1591   3239     1
   1591   3240     1
   1592   3238     1
   1593   3238     1
   1595   1609     1
   1595   1610     1
   1595   1612     1
   1595   1613     1
   1595   1606     1
   1595   1607     1
   1596   1600     1
   1596   1601     1
   1596   1603     1
   1596   1604     1
   1596   1621     1
   1596   1622     1
   1597   1599     1
   1597   1602     1
   1597   1620     1
   1597   1609     1
   1597   1610     1
   1598   1599     1
   1598   1602     1
   1598   1620     1
   1598   1609     1
   1598   1610     1
   1599   1603     1
   1599   1604     1
   1599   1618     1
   1599   1619     1
   1600   1602     1
   1600   1617     1
   1600   1612     1
   1600   1613     1
   1601   1602     1
   1601   1617     1
   1601   1612     1
   1601   1613     1
   1602   1615     1
   1602   1616     1
   1603   1614     1
   1603   1606     1
   1603   1607     1
   1604   1614     1
   1604   1606     1
   1604   1607     1
   1606   1623     1
   1606   1615     1
   1606   1616     1
   1607   1623     1
   1607   1615     1
   1607   1616     1
   1609   3305     1
   1609   1621     1
   1609   1622     1
   1610   3305     1
   1610   1621     1
   1610   1622     1
   1612   3276     1
   1612   1618     1
   1612   1619     1
   1613   3276     1
   1613   1618     1
   1613   1619     1
   1617   3268     1
   1617   3269     1
   1618   3267     1
   1619   3267     1
   1620   3297     1
   1620   3298     1
   1621   3296     1
   1622   3296     1
   1624   1638     1
   1624   1639     1
   1624   1641     1
   1624   1642     1
   1624   1635     1
   1624   1636     1
   1625   1629     1
   1625   1630     1
   1625   1632     1
   1625   1633     1
   1625   1650     1
   1625   1651     1
   1626   1628     1
   1626   1631     1
   1626   1649     1
   1626   1638     1
   1626   1639     1
   1627   1628     1
   1627   1631     1
   1627   1649     1
   1627   1638     1
   1627   1639     1
   1628   1632     1
   1628   1633     1
   1628   1647     1
   1628   1648     1
   1629   1631     1
   1629   1646     1
   1629   1641     1
   1629   1642     1
   1630   1631     1
   1630   1646     1
   1630   1641     1
   1630   1642     1
   1631   1644     1
   1631   1645     1
   1632   1643     1
   1632   1635     1
   1632   1636     1
   1633   1643     1
   1633   1635     1
   1633   1636     1
   1635   1652     1
   1635   1644     1
   1635   1645     1
   1636   1652     1
   1636   1644     1
   1636   1645     1
   1638   3363     1
   1638   1650     1
   1638   1651     1
   1639   3363     1
   1639   1650     1
   1639   1651     1
   1641   3334     1
   1641   1647     1
   1641   1648     1
   1642   3334     1
   1642   1647     1
   1642   1648     1
   1646   3326     1
   1646   3327     1
   1647   3325     1
   1648   3325     1
   1649   3355     1
   1649   3356     1
   1650   3354     1
   1651   3354     1
   1653   1667     1
   1653   1668     1
   1653   1670     1
   1653   1671     1
   1653   1664     1
   1653   1665     1
   1654   1658     1
   1654   1659     1
   1654   1661     1
   1654   1662     1
   1654   1679     1
   1654   1680     1
   1655   1657     1
   1655   1660     1
   1655   1678     1
   1655   1667     1
   1655   1668     1
   1656   1657     1
   1656   1660     1
   1656   1678     1
   1656   1667     1
   1656   1668     1
   1657   1661     1
   1657   1662     1
   1657   1676     1
   1657   1677     1
   1658   1660     1
   1658   1675     1
   1658   1670     1
   1658   1671     1
   1659   1660     1
   1659   1675     1
   1659   1670     1
   1659   1671     1
   1660   1673     1
   1660   1674     1
   1661   1672     1
   1661   1664     1
   1661   1665     1
   1662   1672     1
   1662   1664     1
   1662   1665     1
   1664   1681     1
   1664   1673     1
   1664   1674     1
   1665   1681     1
   1665   1673     1
   1665   1674     1
   1667   3421     1
   1667   1679     1
   1667   1680     1
   1668   3421     1
   1668   1679     1
   1668   1680     1
   1670   3392     1
   1670   1676     1
   1670   1677     1
   1671   3392     1
   1671   1676     1
   1671   1677     1
   1675   3384     1
   1675   3385     1
   1676   3383     1
   1677   3383     1
   1678   3413     1
   1678   3414     1
   1679   3412     1
   1680   3412     1
   1682   1696     1
   1682   1697     1
   1682   1699     1
   1682   1700     1
   1682   1693     1
   1682   1694     1
   1683   1687     1
   1683   1688     1
   1683   1690     1
   1683   1691     1
   1683   1708     1
   1683   1709     1
   1684   1686     1
   1684   1689     1
   1684   1707     1
   1684   1696     1
   1684   1697     1
   1685   1686     1
   1685   1689     1
   1685   1707     1
   1685   1696     1
   1685   1697     1
   1686   1690     1
   1686   1691     1
   1686   1705     1
   1686   1706     1
   1687   1689     1
   1687   1704     1
   1687   1699     1
   1687   1700     1
   1688   1689     1
   1688   1704     1
   1688   1699     1
   1688   1700     1
   1689   1702     1
   1689   1703     1
   1690   1701     1
   1690   1693     1
   1690   1694     1
   1691   1701     1
   1691   1693     1
   1691   1694     1
   1693   1710     1
   1693   1702     1
   1693   1703     1
   1694   1710     1
   1694   1702     1
   1694   1703     1
   1696   3479     1
   1696   1708     1
   1696   1709     1
   1697   3479     1
   1697   1708     1
   1697   1709     1
   1699   3450     1
   1699   1705     1
   1699   1706     1
   1700   3450     1
   1700   1705     1
   1700   1706     1
   1704   3442     1
   1704   3443     1
   1705   3441     1
   1706   3441     1
   1707   3471     1
   1707   3472     1
   1708   3470     1
   1709   3470     1
   1711   1725     1
   1711   1726     1
   1711   1728     1
   1711   1729     1
   1711   1722     1
   1711   1723     1
   1712   1716     1
   1712   1717     1
   1712   1719     1
   1712   1720     1
   1712   1737     1
   1712   1738     1
   1713   1715     1
   1713   1718     1
   1713   1736     1
   1713   1725     1
   1713   1726     1
   1714   1715     1
   1714   1718     1
   1714   1736     1
   1714   1725     1
   1714   1726     1
   1715   1719     1
   1715   1720     1
   1715   1734     1
   1715   1735     1
   1716   1718     1
   1716   1733     1
   1716   1728     1
   1716   1729     1
   1717   1718     1
   1717   1733     1
   1717   1728     1
   1717   1729     1
   1718   1731     1
   1718   1732     1
   1719   1730     1
   1719   1722     1
   1719   1723     1
   1720   1730     1
   1720   1722     1
   1720   1723     1
   1722   1739     1
   1722   1731     1
   1722   1732     1
   1723   1739     1
   1723   1731     1
   1723   1732     1
   1725   3537     1
   1725   1737     1
   1725   1738     1
   1726   3537     1
   1726   1737     1
   1726   1738     1
   1728   3508     1
   1728   1734     1
   1728   1735     1
   1729   3508     1
   1729   1734     1
   1729   1735     1
   1733   3500     1
   1733   3501     1
   1734   3499     1
   1735   3499     1
   1736   3529     1
   1736   3530     1
   1737   3528     1
   1738   3528     1
   1740   1754     1
   1740   1755     1
   1740   1757     1
   1740   1758     1
   1740   1751     1
   1740   1752     1
   1741   1745     1
   1741   1746     1
   1741   1748     1
   1741   1749     1
   1741   1766     1
   1741   1767     1
   1742   1744     1
   1742   1747     1
   1742   1765     1
   1742   1754     1
   1742   1755     1
   1743   1744     1
   1743   1747     1
   1743   1765     1
   1743   1754     1
   1743   1755     1
   1744   1748     1
   1744   1749     1
   1744   1763     1
   1744   1764     1
   1745   1747     1
   1745   1762     1
   1745   1757     1
   1745   1758     1
   1746   1747     1
   1746   1762     1
   1746   1757     1
   1746   1758     1
   1747   1760     1
   1747   1761     1
   1748   1759     1
   1748   1751     1
   1748   1752     1
   1749   1759     1
   1749   1751     1
   1749   1752     1
   1751   1768     1
   1751   1760     1
   1751   1761     1
   1752   1768     1
   1752   1760     1
   1752   1761     1
   1754   3595     1
   1754   1766     1
   1754   1767     1
   1755   3595     1
   1755   1766     1
   1755   1767     1
   1757   3566     1
   1757   1763     1
   1757   1764     1
   1758   3566     1
   1758   1763     1
   1758   1764     1
   1762   3558     1
   1762   3559     1
   1763   3557     1
   1764   3557     1
   1765   3587     1
   1765   3588     1
   1766   3586     1
   1767   3586     1
   1769   1783     1
   1769   1784     1
   1769   1786     1
   1769   1787     1
   1769   1780     1
   1769   1781     1
   1770   1774     1
   1770   1775     1
   1770   1777     1
   1770   1778     1
   1770   1795     1
   1770   1796     1
   1771   1773     1
   1771   1776     1
   1771   1794     1
   1771   1783     1
   1771   1784     1
   1772   1773     1
   1772   1776     1
   1772   1794     1
   1772   1783     1
   1772   1784     1
   1773   1777     1
   1773   1778     1
   1773   1792     1
   1773   1793     1
   1774   1776     1
   1774   1791     1
   1774   1786     1
   1774   1787     1
   1775   1776     1
   1775   1791     1
   1775   1786     1
   1775   1787     1
   1776   1789     1
   1776   1790     1
   1777   1788     1
   1777   1780     1
   1777   1781     1
   1778   1788     1
   1778   1780     1
   1778   1781     1
   1780   1797     1
   1780   1789     1
   1780   1790     1
   1781   1797     1
   1781   1789     1
   1781   1790     1
   1783   3653     1
   1783   1795     1
   1783   1796     1
   1784   3653     1
   1784   1795     1
   1784   1796     1
   1786   3624     1
   1786   1792     1
   1786   1793     1
   1787   3624     1
   1787   1792     1
   1787   1793     1
   1791   3616     1
   1791   3617     1
   1792   3615     1
   1793   3615     1
   1794   3645     1
   1794   3646     1
   1795   3644     1
   1796   3644     1
   1798   1812     1
   1798   1813     1
   1798   1815     1
   1798   1816     1
   1798   1809     1
   1798   1810     1
   1799   1803     1
   1799   1804     1
   1799   1806     1
   1799   1807     1
   1799   1824     1
   1799   1825     1
   1800   1802     1
   1800   1805     1
   1800   1823     1
   1800   1812     1
   1800   1813     1
   1801   1802     1
   1801   1805     1
   1801   1823     1
   1801   1812     1
   1801   1813     1
   1802   1806     1
   1802   1807     1
   1802   1821     1
   1802   1822     1
   1803   1805     1
   1803   1820     1
   1803   1815     1
   1803   1816     1
   1804   1805     1
   1804   1820     1
   1804   1815     1
   1804   1816     1
   1805   1818     1
   1805   1819     1
   1806   1817     1
   1806   1809     1
   1806   1810     1
   1807   1817     1
   1807   1809     1
   1807   1810     1
   1809   1826     1
   1809   1818     1
   1809   1819     1
   1810   1826     1
   1810   1818     1
   1810   1819     1
   1812   3711     1
   1812   1824     1
   1812   1825     1
   1813   3711     1
   1813   1824     1
   1813   1825     1
   1815   3682     1
   1815   1821     1
   1815   1822     1
   1816   3682     1
   1816   1821     1
   1816   1822     1
   1820   3674     1
   1820   3675     1
   1821   3673     1
   1822   3673     1
   1823   3703     1
   1823   3704     1
   1824   3702     1
   1825   3702     1
   1827   1841     1
   1827   1842     1
   1827   1844     1
   1827   1845     1
   1827   1838     1
   1827   1839     1
   1828   1832     1
   1828   1833     1
   1828   1835     1
   1828   1836     1
   1828   1853     1
   1828   1854     1
   1829   1831     1
   1829   1834     1
   1829   1852     1
   1829   1841     1
   1829   1842     1
   1830   1831     1
   1830   1834     1
   1830   1852     1
   1830   1841     1
   1830   1842     1
   1831   1835     1
   1831   1836     1
   1831   1850     1
   1831   1851     1
   1832   1834     1
   1832   1849     1
   1832   1844     1
   1832   1845     1
   1833   1834     1
   1833   1849     1
   1833   1844     1
   1833   1845     1
   1834   1847     1
   1834   1848     1
   1835   1846     1
   1835   1838     1
   1835   1839     1
   1836   1846     1
   1836   1838     1
   1836   1839     1
   1838   1855     1
   1838   1847     1
   1838   1848     1
   1839   1855     1
   1839   1847     1
   1839   1848     1
   1841   3769     1
   1841   1853     1
   1841   1854     1
   1842   3769     1
   1842   1853     1
   1842   1854     1
   1844   3740     1
   1844   1850     1
   1844   1851     1
   1845   3740     1
   1845   1850     1
   1845   1851     1
   1849   3732     1
   1849   3733     1
   1850   3731     1
   1851   3731     1
   1852   3761     1
   1852   3762     1
   1853   3760     1
   1854   3760     1
   1856   1870     1
   1856   1871     1
   1856   1873     1
   1856   1874     1
   1856   1867     1
   1856   1868     1
   1857   1861     1
   1857   1862     1
   1857   1864     1
   1857   1865     1
   1857   1882     1
   1857   1883     1
   1858   1860     1
   1858   1863     1
   1858   1881     1
   1858   1870     1
   1858   1871     1
   1859   1860     1
   1859   1863     1
   1859   1881     1
   1859   1870     1
   1859   1871     1
   1860   1864     1
   1860   1865     1
   1860   1879     1
   1860   1880     1
   1861   1863     1
   1861   1878     1
   1861   1873     1
   1861   1874     1
   1862   1863     1
   1862   1878     1
   1862   1873     1
   1862   1874     1
   1863   1876     1
   1863   1877     1
   1864   1875     1
   1864   1867     1
   1864   1868     1
   1865   1875     1
   1865   1867     1
   1865   1868     1
   1867   1884     1
   1867   1876     1
   1867   1877     1
   1868   1884     1
   1868   1876     1
   1868   1877     1
   1870   3827     1
   1870   1882     1
   1870   1883     1
   1871   3827     1
   1871   1882     1
   1871   1883     1
   1873   3798     1
   1873   1879     1
   1873   1880     1
   1874   3798     1
   1874   1879     1
   1874   1880     1
   1878   3790     1
   1878   3791     1
   1879   3789     1
   1880   3789     1
   1881   3819     1
   1881   3820     1
   1882   3818     1
   1883   3818     1
   1885   1899     1
   1885   1900     1
   1885   1902     1
   1885   1903     1
   1885   1896     1
   1885   1897     1
   1886   1890     1
   1886   1891     1
   1886   1893     1
   1886   1894     1
   1886   1911     1
   1886   1912     1
   1887   1889     1
   1887   1892     1
   1887   1910     1
   1887   1899     1
   1887   1900     1
   1888   1889     1
   1888   1892     1
   1888   1910     1
   1888   1899     1
   1888   1900     1
   1889   1893     1
   1889   1894     1
   1889   1908     1
   1889   1909     1
   1890   1892     1
   1890   1907     1
   1890   1902     1
   1890   1903     1
   1891   1892     1
   1891   1907     1
   1891   1902     1
   1891   1903     1
   1892   1905     1
   1892   1906     1
   1893   1904     1
   1893   1896     1
   1893   1897     1
   1894   1904     1
   1894   1896     1
   1894   1897     1
   1896   1913     1
   1896   1905     1
   1896   1906     1
   1897   1913     1
   1897   1905     1
   1897   1906     1
   1899   3885     1
   1899   1911     1
   1899   1912     1
   1900   3885     1
   1900   1911     1
   1900   1912     1
   1902   3856     1
   1902   1908     1
   1902   1909     1
   1903   3856     1
   1903   1908     1
   1903   1909     1
   1907   3848     1
   1907   3849     1
   1908   3847     1
   1909   3847     1
   1910   3877     1
   1910   3878     1
   1911   3876     1
   1912   3876     1
   1914   1928     1
   1914   1929     1
   1914   1931     1
   1914   1932     1
   1914   1925     1
   1914   1926     1
   1915   1919     1
   1915   1920     1
   1915   1922     1
   1915   1923     1
   1915   1940     1
   1915   1941     1
   1916   1918     1
   1916   1921     1
   1916   1939     1
   1916   1928     1
   1916   1929     1
   1917   1918     1
   1917   1921     1
   1917   1939     1
   1917   1928     1
   1917   1929     1
   1918   1922     1
   1918   1923     1
   1918   1937     1
   1918   1938     1
   1919   1921     1
   1919   1936     1
   1919   1931     1
   1919   1932     1
   1920   1921     1
   1920   1936     1
   1920   1931     1
   1920   1932     1
   1921   1934     1
   1921   1935     1
   1922   1933     1
   1922   1925     1
   1922   1926     1
   1923   1933     1
   1923   1925     1
   1923   1926     1
   1925   1942     1
   1925   1934     1
   1925   1935     1
   1926   1942     1
   1926   1934     1
   1926   1935     1
   1928   3943     1
   1928   1940     1
   1928   1941     1
   1929   3943     1
   1929   1940     1
   1929   1941     1
   1931   3914     1
   1931   1937     1
   1931   1938     1
   1932   3914     1
   1932   1937     1
   1932   1938     1
   1936   3906     1
   1936   3907     1
   1937   3905     1
   1938   3905     1
   1939   3935     1
   1939   3936     1
   1940   3934     1
   1941   3934     1
   1943   1957     1
   1943   1958     1
   1943   1960     1
   1943   1961     1
   1943   1954     1
   1943   1955     1
   1944   1948     1
   1944   1949     1
   1944   1951     1
   1944   1952     1
   1944   1969     1
   1944   1970     1
   1945   1947     1
   1945   1950     1
   1945   1968     1
   1945   1957     1
   1945   1958     1
   1946   1947     1
   1946   1950     1
   1946   1968     1
   1946   1957     1
   1946   1958     1
   1947   1951     1
   1947   1952     1
   1947   1966     1
   1947   1967     1
   1948   1950     1
   1948   1965     1
   1948   1960     1
   1948   1961     1
   1949   1950     1
   1949   1965     1
   1949   1960     1
   1949   1961     1
   1950   1963     1
   1950   1964     1
   1951   1962     1
   1951   1954     1
   1951   1955     1
   1952   1962     1
   1952   1954     1
   1952   1955     1
   1954   1971     1
   1954   1963     1
   1954   1964     1
   1955   1971     1
   1955   1963     1
   1955   1964     1
   1957   4001     1
   1957   1969     1
   1957   1970     1
   1958   4001     1
   1958   1969     1
   1958   1970     1
   1960   3972     1
   1960   1966     1
   1960   1967     1
   1961   3972     1
   1961   1966     1
   1961   1967     1
   1965   3964     1
   1965   3965     1
   1966   3963     1
   1967   3963     1
   1968   3993     1
   1968   3994     1
   1969   3992     1
   1970   3992     1
   1972   1986     1
   1972   1987     1
   1972   1989     1
   1972   1990     1
   1972   1983     1
   1972   1984     1
   1973   1977     1
   1973   1978     1
   1973   1980     1
   1973   1981     1
   1973   1998     1
   1973   1999     1
   1974   1976     1
   1974   1979     1
   1974   1997     1
   1974   1986     1
   1974   1987     1
   1975   1976     1
   1975   1979     1
   1975   1997     1
   1975   1986     1
   1975   1987     1
   1976   1980     1
   1976   1981     1
   1976   1995     1
   1976   1996     1
   1977   1979     1
   1977   1994     1
   1977   1989     1
   1977   1990     1
   1978   1979     1
   1978   1994     1
   1978   1989     1
   1978   1990     1
   1979   1992     1
   1979   1993     1
   1980   1991     1
   1980   1983     1
   1980   1984     1
   1981   1991     1
   1981   1983     1
   1981   1984     1
   1983   2000     1
   1983   1992     1
   1983   1993     1
   1984   2000     1
   1984   1992     1
   1984   1993     1
   1986   4059     1
   1986   1998     1
   1986   1999     1
   1987   4059     1
   1987   1998     1
   1987   1999     1
   1989   4030     1
   1989   1995     1
   1989   1996     1
   1990   4030     1
   1990   1995     1
   1990   1996     1
   1994   4022     1
   1994   4023     1
   1995   4021     1
   1996   4021     1
   1997   4051     1
   1997   4052     1
   1998   4050     1
   1999   4050     1
   2001   2015     1
   2001   2016     1
   2001   2018     1
   2001   2019     1
   2001   2012     1
   2001   2013     1
   2002   2006     1
   2002   2007     1
   2002   2009     1
   2002   2010     1
   2002   2027     1
   2002   2028     1
   2003   2005     1
   2003   2008     1
   2003   2026     1
   2003   2015     1
   2003   2016     1
   2004   2005     1
   2004   2008     1
   2004   2026     1
   2004   2015     1
   2004   2016     1
   2005   2009     1
   2005   2010     1
   2005   2024     1
   2005   2025     1
   2006   2008     1
   2006   2023     1
   2006   2018     1
   2006   2019     1
   2007   2008     1
   2007   2023     1
   2007   2018     1
   2007   2019     1
   2008   2021     1
   2008   2022     1
   2009   2020     1
   2009   2012     1
   2009   2013     1
   2010   2020     1
   2010   2012     1
   2010   2013     1
   2012   2029     1
   2012   2021     1
   2012   2022     1
   2013   2029     1
   2013   2021     1
   2013   2022     1
   2015   4117     1
   2015   2027     1
   2015   2028     1
   2016   4117     1
   2016   2027     1
   2016   2028     1
   2018   4088     1
   2018   2024     1
   2018   2025     1
   2019   4088     1
   2019   2024     1
   2019   2025     1
   2023   4080     1
   2023   4081     1
   2024   4079     1
   2025   4079     1
   2026   4109     1
   2026   4110     1
   2027   4108     1
   2028   4108     1
   2030   2044     1
   2030   2045     1
   2030   2047     1
   2030   2048     1
   2030   2041     1
   2030   2042     1
   2031   2035     1
   2031   2036     1
   2031   2038     1
   2031   2039     1
   2031   2056     1
   2031   2057     1
   2032   2034     1
   2032   2037     1
   2032   2055     1
   2032   2044     1
   2032   2045     1
   2033   2034     1
   2033   2037     1
   2033   2055     1
   2033   2044     1
   2033   2045     1
   2034   2038     1
   2034   2039     1
   2034   2053     1
   2034   2054     1
   2035   2037     1
   2035   2052     1
   2035   2047     1
   2035   2048     1
   2036   2037     1
   2036   2052     1
   2036   2047     1
   2036   2048     1
   2037   2050     1
   2037   2051     1
   2038   2049     1
   2038   2041     1
   2038   2042     1
   2039   2049     1
   2039   2041     1
   2039   2042     1
   2041   2058     1
   2041   2050     1
   2041   2051     1
   2042   2058     1
   2042   2050     1
   2042   2051     1
   2044   4175     1
   2044   2056     1
   2044   2057     1
   2045   4175     1
   2045   2056     1
   2045   2057     1
   2047   4146     1
   2047   2053     1
   2047   2054     1
   2048   4146     1
   2048   2053     1
   2048   2054     1
   2052   4138     1
   2052   4139     1
   2053   4137     1
   2054   4137     1
   2055   4167     1
   2055   4168     1
   2056   4166     1
   2057   4166     1
   2059   2073     1
   2059   2074     1
   2059   2076     1
   2059   2077     1
   2059   2070     1
   2059   2071     1
   2060   2064     1
   2060   2065     1
   2060   2067     1
   2060   2068     1
   2060   2085     1
   2060   2086     1
   2061   2063     1
   2061   2066     1
   2061   2084     1
   2061   2073     1
   2061   2074     1
   2062   2063     1
   2062   2066     1
   2062   2084     1
   2062   2073     1
   2062   2074     1
   2063   2067     1
   2063   2068     1
   2063   2082     1
   2063   2083     1
   2064   2066     1
   2064   2081     1
   2064   2076     1
   2064   2077     1
   2065   2066     1
   2065   2081     1
   2065   2076     1
   2065   2077     1
   2066   2079     1
   2066   2080     1
   2067   2078     1
   2067   2070     1
   2067   2071     1
   2068   2078     1
   2068   2070     1
   2068   2071     1
   2070   2087     1
   2070   2079     1
   2070   2080     1
   2071   2087     1
   2071   2079     1
   2071   2080     1
   2073   4233     1
   2073   2085     1
   2073   2086     1
   2074   4233     1
   2074   2085     1
   2074   2086     1
   2076   4204     1
   2076   2082     1
   2076   2083     1
   2077   4204     1
   2077   2082     1
   2077   2083     1
   2081   4196     1
   2081   4197     1
   2082   4195     1
   2083   4195     1
   2084   4225     1
   2084   4226     1
   2085   4224     1
   2086   4224     1
   2088   2102     1
   2088   2103     1
   2088   2105     1
   2088   2106     1
   2088   2099     1
   2088   2100     1
   2089   2093     1
   2089   2094     1
   2089   2096     1
   2089   2097     1
   2089   2114     1
   2089   2115     1
   2090   2092     1
   2090   2095     1
   2090   2113     1
   2090   2102     1
   2090   2103     1
   2091   2092     1
   2091   2095     1
   2091   2113     1
   2091   2102     1
   2091   2103     1
   2092   2096     1
   2092   2097     1
   2092   2111     1
   2092   2112     1
   2093   2095     1
   2093   2110     1
   2093   2105     1
   2093   2106     1
   2094   2095     1
   2094   2110     1
   2094   2105     1
   2094   2106     1
   2095   2108     1
   2095   2109     1
   2096   2107     1
   2096   2099     1
   2096   2100     1
   2097   2107     1
   2097   2099     1
   2097   2100     1
   2099   2116     1
   2099   2108     1
   2099   2109     1
   2100   2116     1
   2100   2108     1
   2100   2109     1
   2102   4291     1
   2102   2114     1
   2102   2115     1
   2103   4291     1
   2103   2114     1
   2103   2115     1
   2105   4262     1
   2105   2111     1
   2105   2112     1
   2106   4262     1
   2106   2111     1
   2106   2112     1
   2110   4254     1
   2110   4255     1
   2111   4253     1
   2112   4253     1
   2113   4283     1
   2113   4284     1
   2114   4282     1
   2115   4282     1
   2117   2131     1
   2117   2132     1
   2117   2134     1
   2117   2135     1
   2117   2128     1
   2117   2129     1
   2118   2122     1
   2118   2123     1
   2118   2125     1
   2118   2126     1
   2118   2143     1
   2118   2144     1
   2119   2121     1
   2119   2124     1
   2119   2142     1
   2119   2131     1
   2119   2132     1
   2120   2121     1
   2120   2124     1
   2120   2142     1
   2120   2131     1
   2120   2132     1
   2121   2125     1
   2121   2126     1
   2121   2140     1
   2121   2141     1
   2122   2124     1
   2122   2139     1
   2122   2134     1
   2122   2135     1
   2123   2124     1
   2123   2139     1
   2123   2134     1
   2123   2135     1
   2124   2137     1
   2124   2138     1
   2125   2136     1
   2125   2128     1
   2125   2129     1
   2126   2136     1
   2126   2128     1
   2126   2129     1
   2128   2145     1
   2128   2137     1
   2128   2138     1
   2129   2145     1
   2129   2137     1
   2129   2138     1
   2131   4349     1
   2131   2143     1
   2131   2144     1
   2132   4349     1
   2132   2143     1
   2132   2144     1
   2134   4320     1
   2134   2140     1
   2134   2141     1
   2135   4320     1
   2135   2140     1
   2135   2141     1
   2139   4312     1
   2139   4313     1
   2140   4311     1
   2141   4311     1
   2142   4341     1
   2142   4342     1
   2143   4340     1
   2144   4340     1
   2146   2160     1
   2146   2161     1
   2146   2163     1
   2146   2164     1
   2146   2157     1
   2146   2158     1
   2147   2151     1
   2147   2152     1
   2147   2154     1
   2147   2155     1
   2147   2172     1
   2147   2173     1
   2148   2150     1
   2148   2153     1
   2148   2171     1
   2148   2160     1
   2148   2161     1
   2149   2150     1
   2149   2153     1
   2149   2171     1
   2149   2160     1
   2149   2161     1
   2150   2154     1
   2150   2155     1
   2150   2169     1
   2150   2170     1
   2151   2153     1
   2151   2168     1
   2151   2163     1
   2151   2164     1
   2152   2153     1
   2152   2168     1
   2152   2163     1
   2152   2164     1
   2153   2166     1
   2153   2167     1
   2154   2165     1
   2154   2157     1
   2154   2158     1
   2155   2165     1
   2155   2157     1
   2155   2158     1
   2157   2174     1
   2157   2166     1
   2157   2167     1
   2158   2174     1
   2158   2166     1
   2158   2167     1
   2160   4407     1
   2160   2172     1
   2160   2173     1
   2161   4407     1
   2161   2172     1
   2161   2173     1
   2163   4378     1
   2163   2169     1
   2163   2170     1
   2164   4378     1
   2164   2169     1
   2164   2170     1
   2168   4370     1
   2168   4371     1
   2169   4369     1
   2170   4369     1
   2171   4399     1
   2171   4400     1
   2172   4398     1
   2173   4398     1
   2175   2189     1
   2175   2190     1
   2175   2192     1
   2175   2193     1
   2175   2186     1
   2175   2187     1
   2176   2180     1
   2176   2181     1
   2176   2183     1
   2176   2184     1
   2176   2201     1
   2176   2202     1
   2177   2179     1
   2177   2182     1
   2177   2200     1
   2177   2189     1
   2177   2190     1
   2178   2179     1
   2178   2182     1
   2178   2200     1
   2178   2189     1
   2178   2190     1
   2179   2183     1
   2179   2184     1
   2179   2198     1
   2179   2199     1
   2180   2182     1
   2180   2197     1
   2180   2192     1
   2180   2193     1
   2181   2182     1
   2181   2197     1
   2181   2192     1
   2181   2193     1
   2182   2195     1
   2182   2196     1
   2183   2194     1
   2183   2186     1
   2183   2187     1
   2184   2194     1
   2184   2186     1
   2184   2187     1
   2186   2203     1
   2186   2195     1
   2186   2196     1
   2187   2203     1
   2187   2195     1
   2187   2196     1
   2189   4465     1
   2189   2201     1
   2189   2202     1
   2190   4465     1
   2190   2201     1
   2190   2202     1
   2192   4436     1
   2192   2198     1
   2192   2199     1
   2193   4436     1
   2193   2198     1
   2193   2199     1
   2197   4428     1
   2197   4429     1
   2198   4427     1
   2199   4427     1
   2200   4457     1
   2200   4458     1
   2201   4456     1
   2202   4456     1
   2204   2218     1
   2204   2219     1
   2204   2221     1
   2204   2222     1
   2204   2215     1
   2204   2216     1
   2205   2209     1
   2205   2210     1
   2205   2212     1
   2205   2213     1
   2205   2230     1
   2205   2231     1
   2206   2208     1
   2206   2211     1
   2206   2229     1
   2206   2218     1
   2206   2219     1
   2207   2208     1
   2207   2211     1
   2207   2229     1
   2207   2218     1
   2207   2219     1
   2208   2212     1
   2208   2213     1
   2208   2227     1
   2208   2228     1
   2209   2211     1
   2209   2226     1
   2209   2221     1
   2209   2222     1
   2210   2211     1
   2210   2226     1
   2210   2221     1
   2210   2222     1
   2211   2224     1
   2211   2225     1
   2212   2223     1
   2212   2215     1
   2212   2216     1
   2213   2223     1
   2213   2215     1
   2213   2216     1
   2215   2232     1
   2215   2224     1
   2215   2225     1
   2216   2232     1
   2216   2224     1
   2216   2225     1
   2218   4523     1
   2218   2230     1
   2218   2231     1
   2219   4523     1
   2219   2230     1
   2219   2231     1
   2221   4494     1
   2221   2227     1
   2221   2228     1
   2222   4494     1
   2222   2227     1
   2222   2228     1
   2226   4486     1
   2226   4487     1
   2227   4485     1
   2228   4485     1
   2229   4515     1
   2229   4516     1
   2230   4514     1
   2231   4514     1
   2233   2247     1
   2233   2248     1
   2233   2250     1
   2233   2251     1
   2233   2244     1
   2233   2245     1
   2234   2238     1
   2234   2239     1
   2234   2241     1
   2234   2242     1
   2234   2259     1
   2234   2260     1
   2235   2237     1
   2235   2240     1
   2235   2258     1
   2235   2247     1
   2235   2248     1
   2236   2237     1
   2236   2240     1
   2236   2258     1
   2236   2247     1
   2236   2248     1
   2237   2241     1
   2237   2242     1
   2237   2256     1
   2237   2257     1
   2238   2240     1
   2238   2255     1
   2238   2250     1
   2238   2251     1
   2239   2240     1
   2239   2255     1
   2239   2250     1
   2239   2251     1
   2240   2253     1
   2240   2254     1
   2241   2252     1
   2241   2244     1
   2241   2245     1
   2242   2252     1
   2242   2244     1
   2242   2245     1
   2244   2261     1
   2244   2253     1
   2244   2254     1
   2245   2261     1
   2245   2253     1
   2245   2254     1
   2247   4581     1
   2247   2259     1
   2247   2260     1
   2248   4581     1
   2248   2259     1
   2248   2260     1
   2250   4552     1
   2250   2256     1
   2250   2257     1
   2251   4552     1
   2251   2256     1
   2251   2257     1
   2255   4544     1
   2255   4545     1
   2256   4543     1
   2257   4543     1
   2258   4573     1
   2258   4574     1
   2259   4572     1
   2260   4572     1
   2262   2276     1
   2262   2277     1
   2262   2279     1
   2262   2280     1
   2262   2273     1
   2262   2274     1
   2263   2267     1
   2263   2268     1
   2263   2270     1
   2263   2271     1
   2263   2288     1
   2263   2289     1
   2264   2266     1
   2264   2269     1
   2264   2287     1
   2264   2276     1
   2264   2277     1
   2265   2266     1
   2265   2269     1
   2265   2287     1
   2265   2276     1
   2265   2277     1
   2266   2270     1
   2266   2271     1
   2266   2285     1
   2266   2286     1
   2267   2269     1
   2267   2284     1
   2267   2279     1
   2267   2280     1
   2268   2269     1
   2268   2284     1
   2268   2279     1
   2268   2280     1
   2269   2282     1
   2269   2283     1
   2270   2281     1
   2270   2273     1
   2270   2274     1
   2271   2281     1
   2271   2273     1
   2271   2274     1
   2273   2290     1
   2273   2282     1
   2273   2283     1
   2274   2290     1
   2274   2282     1
   2274   2283     1
   2276   4639     1
   2276   2288     1
   2276   2289     1
   2277   4639     1
   2277   2288     1
   2277   2289     1
   2279   4610     1
   2279   2285     1
   2279   2286     1
   2280   4610     1
   2280   2285     1
   2280   2286     1
   2284   4602     1
   2284   4603     1
   2285   4601     1
   2286   4601     1
   2287   4631     1
   2287   4632     1
   2288   4630     1
   2289   4630     1
   2291   2305     1
   2291   2306     1
   2291   2308     1
   2291   2309     1
   2291   2302     1
   2291   2303     1
   2292   2296     1
   2292   2297     1
   2292   2299     1
   2292   2300     1
   2292   2317     1
   2292   2318     1
   2293   2295     1
   2293   2298     1
   2293   2316     1
   2293   2305     1
   2293   2306     1
   2294   2295     1
   2294   2298     1
   2294   2316     1
   2294   2305     1
   2294   2306     1
   2295   2299     1
   2295   2300     1
   2295   2314     1
   2295   2315     1
   2296   2298     1
   2296   2313     1
   2296   2308     1
   2296   2309     1
   2297   2298     1
   2297   2313     1
   2297   2308     1
   2297   2309     1
   2298   2311     1
   2298   2312     1
   2299   2310     1
   2299   2302     1
   2299   2303     1
   2300   2310     1
   2300   2302     1
   2300   2303     1
   2302   2319     1
   2302   2311     1
   2302   2312     1
   2303   2319     1
   2303   2311     1
   2303   2312     1
   2305   4697     1
   2305   2317     1
   2305   2318     1
   2306   4697     1
   2306   2317     1
   2306   2318     1
   2308   4668     1
   2308   2314     1
   2308   2315     1
   2309   4668     1
   2309   2314     1
   2309   2315     1
   2313   4660     1
   2313   4661     1
   2314   4659     1
   2315   4659     1
   2316   4689     1
   2316   4690     1
   2317   4688     1
   2318   4688     1
   2320   2334     1
   2320   2335     1
   2320   2337     1
   2320   2338     1
   2320   2331     1
   2320   2332     1
   2321   2325     1
   2321   2326     1
   2321   2328     1
   2321   2329     1
   2321   2346     1
   2321   2347     1
   2322   2324     1
   2322   2327     1
   2322   2345     1
   2322   2334     1
   2322   2335     1
   2323   2324     1
   2323   2327     1
   2323   2345     1
   2323   2334     1
   2323   2335     1
   2324   2328     1
   2324   2329     1
   2324   2343     1
   2324   2344     1
   2325   2327     1
   2325   2342     1
   2325   2337     1
   2325   2338     1
   2326   2327     1
   2326   2342     1
   2326   2337     1
   2326   2338     1
   2327   2340     1
   2327   2341     1
   2328   2339     1
   2328   2331     1
   2328   2332     1
   2329   2339     1
   2329   2331     1
   2329   2332     1
   2331   2348     1
   2331   2340     1
   2331   2341     1
   2332   2348     1
   2332   2340     1
   2332   2341     1
   2334   4755     1
   2334   2346     1
   2334   2347     1
   2335   4755     1
   2335   2346     1
   2335   2347     1
   2337   4726     1
   2337   2343     1
   2337   2344     1
   2338   4726     1
   2338   2343     1
   2338   2344     1
   2342   4718     1
   2342   4719     1
   2343   4717     1
   2344   4717     1
   2345   4747     1
   2345   4748     1
   2346   4746     1
   2347   4746     1
   2349   2363     1
   2349   2364     1
   2349   2366     1
   2349   2367     1
   2349   2360     1
   2349   2361     1
   2350   2354     1
   2350   2355     1
   2350   2357     1
   2350   2358     1
   2350   2375     1
   2350   2376     1
   2351   2353     1
   2351   2356     1
   2351   2374     1
   2351   2363     1
   2351   2364     1
   2352   2353     1
   2352   2356     1
   2352   2374     1
   2352   2363     1
   2352   2364     1
   2353   2357     1
   2353   2358     1
   2353   2372     1
   2353   2373     1
   2354   2356     1
   2354   2371     1
   2354   2366     1
   2354   2367     1
   2355   2356     1
   2355   2371     1
   2355   2366     1
   2355   2367     1
   2356   2369     1
   2356   2370     1
   2357   2368     1
   2357   2360     1
   2357   2361     1
   2358   2368     1
   2358   2360     1
   2358   2361     1
   2360   2377     1
   2360   2369     1
   2360   2370     1
   2361   2377     1
   2361   2369     1
   2361   2370     1
   2363   4813     1
   2363   2375     1
   2363   2376     1
   2364   4813     1
   2364   2375     1
   2364   2376     1
   2366   4784     1
   2366   2372     1
   2366   2373     1
   2367   4784     1
   2367   2372     1
   2367   2373     1
   2371   4776     1
   2371   4777     1
   2372   4775     1
   2373   4775     1
   2374   4805     1
   2374   4806     1
   2375   4804     1
   2376   4804     1
   2378   2392     1
   2378   2393     1
   2378   2395     1
   2378   2396     1
   2378   2389     1
   2378   2390     1
   2379   2383     1
   2379   2384     1
   2379   2386     1
   2379   2387     1
   2379   2404     1
   2379   2405     1
   2380   2382     1
   2380   2385     1
   2380   2403     1
   2380   2392     1
   2380   2393     1
   2381   2382     1
   2381   2385     1
   2381   2403     1
   2381   2392     1
   2381   2393     1
   2382   2386     1
   2382   2387     1
   2382   2401     1
   2382   2402     1
   2383   2385     1
   2383   2400     1
   2383   2395     1
   2383   2396     1
   2384   2385     1
   2384   2400     1
   2384   2395     1
   2384   2396     1
   2385   2398     1
   2385   2399     1
   2386   2397     1
   2386   2389     1
   2386   2390     1
   2387   2397     1
   2387   2389     1
   2387   2390     1
   2389   2406     1
   2389   2398     1
   2389   2399     1
   2390   2406     1
   2390   2398     1
   2390   2399     1
   2392   4871     1
   2392   2404     1
   2392   2405     1
   2393   4871     1
   2393   2404     1
   2393   2405     1
   2395   4842     1
   2395   2401     1
   2395   2402     1
   2396   4842     1
   2396   2401     1
   2396   2402     1
   2400   4834     1
   2400   4835     1
   2401   4833     1
   2402   4833     1
   2403   4863     1
   2403   4864     1
   2404   4862     1
   2405   4862     1
   2407   2421     1
   2407   2422     1
   2407   2424     1
   2407   2425     1
   2407   2418     1
   2407   2419     1
   2408   2412     1
   2408   2413     1
   2408   2415     1
   2408   2416     1
   2408   2433     1
   2408   2434     1
   2409   2411     1
   2409   2414     1
   2409   2432     1
   2409   2421     1
   2409   2422     1
   2410   2411     1
   2410   2414     1
   2410   2432     1
   2410   2421     1
   2410   2422     1
   2411   2415     1
   2411   2416     1
   2411   2430     1
   2411   2431     1
   2412   2414     1
   2412   2429     1
   2412   2424     1
   2412   2425     1
   2413   2414     1
   2413   2429     1
   2413   2424     1
   2413   2425     1
   2414   2427     1
   2414   2428     1
   2415   2426     1
   2415   2418     1
   2415   2419     1
   2416   2426     1
   2416   2418     1
   2416   2419     1
   2418   2435     1
   2418   2427     1
   2418   2428     1
   2419   2435     1
   2419   2427     1
   2419   2428     1
   2421   4929     1
   2421   2433     1
   2421   2434     1
   2422   4929     1
   2422   2433     1
   2422   2434     1
   2424   4900     1
   2424   2430     1
   2424   2431     1
   2425   4900     1
   2425   2430     1
   2425   2431     1
   2429   4892     1
   2429   4893     1
   2430   4891     1
   2431   4891     1
   2432   4921     1
   2432   4922     1
   2433   4920     1
   2434   4920     1
   2436   2450     1
   2436   2451     1
   2436   2453     1
   2436   2454     1
   2436   2447     1
   2436   2448     1
   2437   2441     1
   2437   2442     1
   2437   2444     1
   2437   2445     1
   2437   2462     1
   2437   2463     1
   2438   2440     1
   2438   2443     1
   2438   2461     1
   2438   2450     1
   2438   2451     1
   2439   2440     1
   2439   2443     1
   2439   2461     1
   2439   2450     1
   2439   2451     1
   2440   2444     1
   2440   2445     1
   2440   2459     1
   2440   2460     1
   2441   2443     1
   2441   2458     1
   2441   2453     1
   2441   2454     1
   2442   2443     1
   2442   2458     1
   2442   2453     1
   2442   2454     1
   2443   2456     1
   2443   2457     1
   2444   2455     1
   2444   2447     1
   2444   2448     1
   2445   2455     1
   2445   2447     1
   2445   2448     1
   2447   2464     1
   2447   2456     1
   2447   2457     1
   2448   2464     1
   2448   2456     1
   2448   2457     1
   2450   4987     1
   2450   2462     1
   2450   2463     1
   2451   4987     1
   2451   2462     1
   2451   2463     1
   2453   4958     1
   2453   2459     1
   2453   2460     1
   2454   4958     1
   2454   2459     1
   2454   2460     1
   2458   4950     1
   2458   4951     1
   2459   4949     1
   2460   4949     1
   2461   4979     1
   2461   4980     1
   2462   4978     1
   2463   4978     1
   2465   2479     1
   2465   2480     1
   2465   2482     1
   2465   2483     1
   2465   2476     1
   2465   2477     1
   2466   2470     1
   2466   2471     1
   2466   2473     1
   2466   2474     1
   2466   2491     1
   2466   2492     1
   2467   2469     1
   2467   2472     1
   2467   2490     1
   2467   2479     1
   2467   2480     1
   2468   2469     1
   2468   2472     1
   2468   2490     1
   2468   2479     1
   2468   2480     1
   2469   2473     1
   2469   2474     1
   2469   2488     1
   2469   2489     1
   2470   2472     1
   2470   2487     1
   2470   2482     1
   2470   2483     1
   2471   2472     1
   2471   2487     1
   2471   2482     1
   2471   2483     1
   2472   2485     1
   2472   2486     1
   2473   2484     1
   2473   2476     1
   2473   2477     1
   2474   2484     1
   2474   2476     1
   2474   2477     1
   2476   2493     1
   2476   2485     1
   2476   2486     1
   2477   2493     1
   2477   2485     1
   2477   2486     1
   2479   5045     1
   2479   2491     1
   2479   2492     1
   2480   5045     1
   2480   2491     1
   2480   2492     1
   2482   5016     1
   2482   2488     1
   2482   2489     1
   2483   5016     1
   2483   2488     1
   2483   2489     1
   2487   5008     1
   2487   5009     1
   2488   5007     1
   2489   5007     1
   2490   5037     1
   2490   5038     1
   2491   5036     1
   2492   5036     1
   2494   2508     1
   2494   2509     1
   2494   2511     1
   2494   2512     1
   2494   2505     1
   2494   2506     1
   2495   2499     1
   2495   2500     1
   2495   2502     1
   2495   2503     1
   2495   2520     1
   2495   2521     1
   2496   2498     1
   2496   2501     1
   2496   2519     1
   2496   2508     1
   2496   2509     1
   2497   2498     1
   2497   2501     1
   2497   2519     1
   2497   2508     1
   2497   2509     1
   2498   2502     1
   2498   2503     1
   2498   2517     1
   2498   2518     1
   2499   2501     1
   2499   2516     1
   2499   2511     1
   2499   2512     1
   2500   2501     1
   2500   2516     1
   2500   2511     1
   2500   2512     1
   2501   2514     1
   2501   2515     1
   2502   2513     1
   2502   2505     1
   2502   2506     1
   2503   2513     1
   2503   2505     1
   2503   2506     1
   2505   2522     1
   2505   2514     1
   2505   2515     1
   2506   2522     1
   2506   2514     1
   2506   2515     1
   2508   5103     1
   2508   2520     1
   2508   2521     1
   2509   5103     1
   2509   2520     1
   2509   2521     1
   2511   5074     1
   2511   2517     1
   2511   2518     1
   2512   5074     1
   2512   2517     1
   2512   2518     1
   2516   5066     1
   2516   5067     1
   2517   5065     1
   2518   5065     1
   2519   5095     1
   2519   5096     1
   2520   5094     1
   2521   5094     1
   2523   2537     1
   2523   2538     1
   2523   2540     1
   2523   2541     1
   2523   2534     1
   2523   2535     1
   2524   2528     1
   2524   2529     1
   2524   2531     1
   2524   2532     1
   2524   2549     1
   2524   2550     1
   2525   2527     1
   2525   2530     1
   2525   2548     1
   2525   2537     1
   2525   2538     1
   2526   2527     1
   2526   2530     1
   2526   2548     1
   2526   2537     1
   2526   2538     1
   2527   2531     1
   2527   2532     1
   2527   2546     1
   2527   2547     1
   2528   2530     1
   2528   2545     1
   2528   2540     1
   2528   2541     1
   2529   2530     1
   2529   2545     1
   2529   2540     1
   2529   2541     1
   2530   2543     1
   2530   2544     1
   2531   2542     1
   2531   2534     1
   2531   2535     1
   2532   2542     1
   2532   2534     1
   2532   2535     1
   2534   2551     1
   2534   2543     1
   2534   2544     1
   2535   2551     1
   2535   2543     1
   2535   2544     1
   2537   5161     1
   2537   2549     1
   2537   2550     1
   2538   5161     1
   2538   2549     1
   2538   2550     1
   2540   5132     1
   2540   2546     1
   2540   2547     1
   2541   5132     1
   2541   2546     1
   2541   2547     1
   2545   5124     1
   2545   5125     1
   2546   5123     1
   2547   5123     1
   2548   5153     1
   2548   5154     1
   2549   5152     1
   2550   5152     1
   2552   2566     1
   2552   2567     1
   2552   2569     1
   2552   2570     1
   2552   2563     1
   2552   2564     1
   2553   2557     1
   2553   2558     1
   2553   2560     1
   2553   2561     1
   2553   2578     1
   2553   2579     1
   2554   2556     1
   2554   2559     1
   2554   2577     1
   2554   2566     1
   2554   2567     1
   2555   2556     1
   2555   2559     1
   2555   2577     1
   2555   2566     1
   2555   2567     1
   2556   2560     1
   2556   2561     1
   2556   2575     1
   2556   2576     1
   2557   2559     1
   2557   2574     1
   2557   2569     1
   2557   2570     1
   2558   2559     1
   2558   2574     1
   2558   2569     1
   2558   2570     1
   2559   2572     1
   2559   2573     1
   2560   2571     1
   2560   2563     1
   2560   2564     1
   2561   2571     1
   2561   2563     1
   2561   2564     1
   2563   2580     1
   2563   2572     1
   2563   2573     1
   2564   2580     1
   2564   2572     1
   2564   2573     1
   2566   5219     1
   2566   2578     1
   2566   2579     1
   2567   5219     1
   2567   2578     1
   2567   2579     1
   2569   5190     1
   2569   2575     1
   2569   2576     1
   2570   5190     1
   2570   2575     1
   2570   2576     1
   2574   5182     1
   2574   5183     1
   2575   5181     1
   2576   5181     1
   2577   5211     1
   2577   5212     1
   2578   5210     1
   2579   5210     1
   2581   2595     1
   2581   2596     1
   2581   2598     1
   2581   2599     1
   2581   2592     1
   2581   2593     1
   2582   2586     1
   2582   2587     1
   2582   2589     1
   2582   2590     1
   2582   2607     1
   2582   2608     1
   2583   2585     1
   2583   2588     1
   2583   2606     1
   2583   2595     1
   2583   2596     1
   2584   2585     1
   2584   2588     1
   2584   2606     1
   2584   2595     1
   2584   2596     1
   2585   2589     1
   2585   2590     1
   2585   2604     1
   2585   2605     1
   2586   2588     1
   2586   2603     1
   2586   2598     1
   2586   2599     1
   2587   2588     1
   2587   2603     1
   2587   2598     1
   2587   2599     1
   2588   2601     1
   2588   2602     1
   2589   2600     1
   2589   2592     1
   2589   2593     1
   2590   2600     1
   2590   2592     1
   2590   2593     1
   2592   2609     1
   2592   2601     1
   2592   2602     1
   2593   2609     1
   2593   2601     1
   2593   2602     1
   2595   5277     1
   2595   2607     1
   2595   2608     1
   2596   5277     1
   2596   2607     1
   2596   2608     1
   2598   5248     1
   2598   2604     1
   2598   2605     1
   2599   5248     1
   2599   2604     1
   2599   2605     1
   2603   5240     1
   2603   5241     1
   2604   5239     1
   2605   5239     1
   2606   5269     1
   2606   5270     1
   2607   5268     1
   2608   5268     1
   2610   2624     1
   2610   2625     1
   2610   2627     1
   2610   2628     1
   2610   2621     1
   2610   2622     1
   2611   2615     1
   2611   2616     1
   2611   2618     1
   2611   2619     1
   2611   2636     1
   2611   2637     1
   2612   2614     1
   2612   2617     1
   2612   2635     1
   2612   2624     1
   2612   2625     1
   2613   2614     1
   2613   2617     1
   2613   2635     1
   2613   2624     1
   2613   2625     1
   2614   2618     1
   2614   2619     1
   2614   2633     1
   2614   2634     1
   2615   2617     1
   2615   2632     1
   2615   2627     1
   2615   2628     1
   2616   2617     1
   2616   2632     1
   2616   2627     1
   2616   2628     1
   2617   2630     1
   2617   2631     1
   2618   2629     1
   2618   2621     1
   2618   2622     1
   2619   2629     1
   2619   2621     1
   2619   2622     1
   2621   2638     1
   2621   2630     1
   2621   2631     1
   2622   2638     1
   2622   2630     1
   2622   2631     1
   2624   5335     1
   2624   2636     1
   2624   2637     1
   2625   5335     1
   2625   2636     1
   2625   2637     1
   2627   5306     1
   2627   2633     1
   2627   2634     1
   2628   5306     1
   2628   2633     1
   2628   2634     1
   2632   5298     1
   2632   5299     1
   2633   5297     1
   2634   5297     1
   2635   5327     1
   2635   5328     1
   2636   5326     1
   2637   5326     1
   2639   2653     1
   2639   2654     1
   2639   2656     1
   2639   2657     1
   2639   2650     1
   2639   2651     1
   2640   2644     1
   2640   2645     1
   2640   2647     1
   2640   2648     1
   2640   2665     1
   2640   2666     1
   2641   2643     1
   2641   2646     1
   2641   2664     1
   2641   2653     1
   2641   2654     1
   2642   2643     1
   2642   2646     1
   2642   2664     1
   2642   2653     1
   2642   2654     1
   2643   2647     1
   2643   2648     1
   2643   2662     1
   2643   2663     1
   2644   2646     1
   2644   2661     1
   2644   2656     1
   2644   2657     1
   2645   2646     1
   2645   2661     1
   2645   2656     1
   2645   2657     1
   2646   2659     1
   2646   2660     1
   2647   2658     1
   2647   2650     1
   2647   2651     1
   2648   2658     1
   2648   2650     1
   2648   2651     1
   2650   2667     1
   2650   2659     1
   2650   2660     1
   2651   2667     1
   2651   2659     1
   2651   2660     1
   2653   5393     1
   2653   2665     1
   2653   2666     1
   2654   5393     1
   2654   2665     1
   2654   2666     1
   2656   5364     1
   2656   2662     1
   2656   2663     1
   2657   5364     1
   2657   2662     1
   2657   2663     1
   2661   5356     1
   2661   5357     1
   2662   5355     1
   2663   5355     1
   2664   5385     1
   2664   5386     1
   2665   5384     1
   2666   5384     1
   2668   2682     1
   2668   2683     1
   2668   2685     1
   2668   2686     1
   2668   2679     1
   2668   2680     1
   2669   2673     1
   2669   2674     1
   2669   2676     1
   2669   2677     1
   2669   2694     1
   2669   2695     1
   2670   2672     1
   2670   2675     1
   2670   2693     1
   2670   2682     1
   2670   2683     1
   2671   2672     1
   2671   2675     1
   2671   2693     1
   2671   2682     1
   2671   2683     1
   2672   2676     1
   2672   2677     1
   2672   2691     1
   2672   2692     1
   2673   2675     1
   2673   2690     1
   2673   2685     1
   2673   2686     1
   2674   2675     1
   2674   2690     1
   2674   2685     1
   2674   2686     1
   2675   2688     1
   2675   2689     1
   2676   2687     1
   2676   2679     1
   2676   2680     1
   2677   2687     1
   2677   2679     1
   2677   2680     1
   2679   2696     1
   2679   2688     1
   2679   2689     1
   2680   2696     1
   2680   2688     1
   2680   2689     1
   2682   5451     1
   2682   2694     1
   2682   2695     1
   2683   5451     1
   2683   2694     1
   2683   2695     1
   2685   5422     1
   2685   2691     1
   2685   2692     1
   2686   5422     1
   2686   2691     1
   2686   2692     1
   2690   5414     1
   2690   5415     1
   2691   5413     1
   2692   5413     1
   2693   5443     1
   2693   5444     1
   2694   5442     1
   2695   5442     1
   2697   2711     1
   2697   2712     1
   2697   2714     1
   2697   2715     1
   2697   2708     1
   2697   2709     1
   2698   2702     1
   2698   2703     1
   2698   2705     1
   2698   2706     1
   2698   2723     1
   2698   2724     1
   2699   2701     1
   2699   2704     1
   2699   2722     1
   2699   2711     1
   2699   2712     1
   2700   2701     1
   2700   2704     1
   2700   2722     1
   2700   2711     1
   2700   2712     1
   2701   2705     1
   2701   2706     1
   2701   2720     1
   2701   2721     1
   2702   2704     1
   2702   2719     1
   2702   2714     1
   2702   2715     1
   2703   2704     1
   2703   2719     1
   2703   2714     1
   2703   2715     1
   2704   2717     1
   2704   2718     1
   2705   2716     1
   2705   2708     1
   2705   2709     1
   2706   2716     1
   2706   2708     1
   2706   2709     1
   2708   2725     1
   2708   2717     1
   2708   2718     1
   2709   2725     1
   2709   2717     1
   2709   2718     1
   2711   5509     1
   2711   2723     1
   2711   2724     1
   2712   5509     1
   2712   2723     1
   2712   2724     1
   2714   5480     1
   2714   2720     1
   2714   2721     1
   2715   5480     1
   2715   2720     1
   2715   2721     1
   2719   5472     1
   2719   5473     1
   2720   5471     1
   2721   5471     1
   2722   5501     1
   2722   5502     1
   2723   5500     1
   2724   5500     1
   2726   2740     1
   2726   2741     1
   2726   2743     1
   2726   2744     1
   2726   2737     1
   2726   2738     1
   2727   2731     1
   2727   2732     1
   2727   2734     1
   2727   2735     1
   2727   2752     1
   2727   2753     1
   2728   2730     1
   2728   2733     1
   2728   2751     1
   2728   2740     1
   2728   2741     1
   2729   2730     1
   2729   2733     1
   2729   2751     1
   2729   2740     1
   2729   2741     1
   2730   2734     1
   2730   2735     1
   2730   2749     1
   2730   2750     1
   2731   2733     1
   2731   2748     1
   2731   2743     1
   2731   2744     1
   2732   2733     1
   2732   2748     1
   2732   2743     1
   2732   2744     1
   2733   2746     1
   2733   2747     1
   2734   2745     1
   2734   2737     1
   2734   2738     1
   2735   2745     1
   2735   2737     1
   2735   2738     1
   2737   2754     1
   2737   2746     1
   2737   2747     1
   2738   2754     1
   2738   2746     1
   2738   2747     1
   2740   5567     1
   2740   2752     1
   2740   2753     1
   2741   5567     1
   2741   2752     1
   2741   2753     1
   2743   5538     1
   2743   2749     1
   2743   2750     1
   2744   5538     1
   2744   2749     1
   2744   2750     1
   2748   5530     1
   2748   5531     1
   2749   5529     1
   2750   5529     1
   2751   5559     1
   2751   5560     1
   2752   5558     1
   2753   5558     1
   2755   2769     1
   2755   2770     1
   2755   2772     1
   2755   2773     1
   2755   2766     1
   2755   2767     1
   2756   2760     1
   2756   2761     1
   2756   2763     1
   2756   2764     1
   2756   2781     1
   2756   2782     1
   2757   2759     1
   2757   2762     1
   2757   2780     1
   2757   2769     1
   2757   2770     1
   2758   2759     1
   2758   2762     1
   2758   2780     1
   2758   2769     1
   2758   2770     1
   2759   2763     1
   2759   2764     1
   2759   2778     1
   2759   2779     1
   2760   2762     1
   2760   2777     1
   2760   2772     1
   2760   2773     1
   2761   2762     1
   2761   2777     1
   2761   2772     1
   2761   2773     1
   2762   2775     1
   2762   2776     1
   2763   2774     1
   2763   2766     1
   2763   2767     1
   2764   2774     1
   2764   2766     1
   2764   2767     1
   2766   2783     1
   2766   2775     1
   2766   2776     1
   2767   2783     1
   2767   2775     1
   2767   2776     1
   2769   5625     1
   2769   2781     1
   2769   2782     1
   2770   5625     1
   2770   2781     1
   2770   2782     1
   2772   5596     1
   2772   2778     1
   2772   2779     1
   2773   5596     1
   2773   2778     1
   2773   2779     1
   2777   5588     1
   2777   5589     1
   2778   5587     1
   2779   5587     1
   2780   5617     1
   2780   5618     1
   2781   5616     1
   2782   5616     1
   2784   2798     1
   2784   2799     1
   2784   2801     1
   2784   2802     1
   2784   2795     1
   2784   2796     1
   2785   2789     1
   2785   2790     1
   2785   2792     1
   2785   2793     1
   2785   2810     1
   2785   2811     1
   2786   2788     1
   2786   2791     1
   2786   2809     1
   2786   2798     1
   2786   2799     1
   2787   2788     1
   2787   2791     1
   2787   2809     1
   2787   2798     1
   2787   2799     1
   2788   2792     1
   2788   2793     1
   2788   2807     1
   2788   2808     1
   2789   2791     1
   2789   2806     1
   2789   2801     1
   2789   2802     1
   2790   2791     1
   2790   2806     1
   2790   2801     1
   2790   2802     1
   2791   2804     1
   2791   2805     1
   2792   2803     1
   2792   2795     1
   2792   2796     1
   2793   2803     1
   2793   2795     1
   2793   2796     1
   2795   2812     1
   2795   2804     1
   2795   2805     1
   2796   2812     1
   2796   2804     1
   2796   2805     1
   2798   5683     1
   2798   2810     1
   2798   2811     1
   2799   5683     1
   2799   2810     1
   2799   2811     1
   2801   5654     1
   2801   2807     1
   2801   2808     1
   2802   5654     1
   2802   2807     1
   2802   2808     1
   2806   5646     1
   2806   5647     1
   2807   5645     1
   2808   5645     1
   2809   5675     1
   2809   5676     1
   2810   5674     1
   2811   5674     1
   2813   2827     1
   2813   2828     1
   2813   2830     1
   2813   2831     1
   2813   2824     1
   2813   2825     1
   2814   2818     1
   2814   2819     1
   2814   2821     1
   2814   2822     1
   2814   2839     1
   2814   2840     1
   2815   2817     1
   2815   2820     1
   2815   2838     1
   2815   2827     1
   2815   2828     1
   2816   2817     1
   2816   2820     1
   2816   2838     1
   2816   2827     1
   2816   2828     1
   2817   2821     1
   2817   2822     1
   2817   2836     1
   2817   2837     1
   2818   2820     1
   2818   2835     1
   2818   2830     1
   2818   2831     1
   2819   2820     1
   2819   2835     1
   2819   2830     1
   2819   2831     1
   2820   2833     1
   2820   2834     1
   2821   2832     1
   2821   2824     1
   2821   2825     1
   2822   2832     1
   2822   2824     1
   2822   2825     1
   2824   2841     1
   2824   2833     1
   2824   2834     1
   2825   2841     1
   2825   2833     1
   2825   2834     1
   2827   5741     1
   2827   2839     1
   2827   2840     1
   2828   5741     1
   2828   2839     1
   2828   2840     1
   2830   5712     1
   2830   2836     1
   2830   2837     1
   2831   5712     1
   2831   2836     1
   2831   2837     1
   2835   5704     1
   2835   5705     1
   2836   5703     1
   2837   5703     1
   2838   5733     1
   2838   5734     1
   2839   5732     1
   2840   5732     1
   2842   2856     1
   2842   2857     1
   2842   2859     1
   2842   2860     1
   2842   2853     1
   2842   2854     1
   2843   2847     1
   2843   2848     1
   2843   2850     1
   2843   2851     1
   2843   2868     1
   2843   2869     1
   2844   2846     1
   2844   2849     1
   2844   2867     1
   2844   2856     1
   2844   2857     1
   2845   2846     1
   2845   2849     1
   2845   2867     1
   2845   2856     1
   2845   2857     1
   2846   2850     1
   2846   2851     1
   2846   2865     1
   2846   2866     1
   2847   2849     1
   2847   2864     1
   2847   2859     1
   2847   2860     1
   2848   2849     1
   2848   2864     1
   2848   2859     1
   2848   2860     1
   2849   2862     1
   2849   2863     1
   2850   2861     1
   2850   2853     1
   2850   2854     1
   2851   2861     1
   2851   2853     1
   2851   2854     1
   2853   2870     1
   2853   2862     1
   2853   2863     1
   2854   2870     1
   2854   2862     1
   2854   2863     1
   2856   5799     1
   2856   2868     1
   2856   2869     1
   2857   5799     1
   2857   2868     1
   2857   2869     1
   2859   5770     1
   2859   2865     1
   2859   2866     1
   2860   5770     1
   2860   2865     1
   2860   2866     1
   2864   5762     1
   2864   5763     1
   2865   5761     1
   2866   5761     1
   2867   5791     1
   2867   5792     1
   2868   5790     1
   2869   5790     1
   2871   2885     1
   2871   2886     1
   2871   2888     1
   2871   2889     1
   2871   2882     1
   2871   2883     1
   2872   2876     1
   2872   2877     1
   2872   2879     1
   2872   2880     1
   2872   2897     1
   2872   2898     1
   2873   2875     1
   2873   2878     1
   2873   2896     1
   2873   2885     1
   2873   2886     1
   2874   2875     1
   2874   2878     1
   2874   2896     1
   2874   2885     1
   2874   2886     1
   2875   2879     1
   2875   2880     1
   2875   2894     1
   2875   2895     1
   2876   2878     1
   2876   2893     1
   2876   2888     1
   2876   2889     1
   2877   2878     1
   2877   2893     1
   2877   2888     1
   2877   2889     1
   2878   2891     1
   2878   2892     1
   2879   2890     1
   2879   2882     1
   2879   2883     1
   2880   2890     1
   2880   2882     1
   2880   2883     1
   2882   2899     1
   2882   2891     1
   2882   2892     1
   2883   2899     1
   2883   2891     1
   2883   2892     1
   2885   5857     1
   2885   2897     1
   2885   2898     1
   2886   5857     1
   2886   2897     1
   2886   2898     1
   2888   5828     1
   2888   2894     1
   2888   2895     1
   2889   5828     1
   2889   2894     1
   2889   2895     1
   2893   5820     1
   2893   5821     1
   2894   5819     1
   2895   5819     1
   2896   5849     1
   2896   5850     1
   2897   5848     1
   2898   5848     1
   2900   2914     1
   2900   2915     1
   2900   2917     1
   2900   2918     1
   2900   2911     1
   2900   2912     1
   2901   2905     1
   2901   2906     1
   2901   2908     1
   2901   2909     1
   2901   2926     1
   2901   2927     1
   2902   2904     1
   2902   2907     1
   2902   2925     1
   2902   2914     1
   2902   2915     1
   2903   2904     1
   2903   2907     1
   2903   2925     1
   2903   2914     1
   2903   2915     1
   2904   2908     1
   2904   2909     1
   2904   2923     1
   2904   2924     1
   2905   2907     1
   2905   2922     1
   2905   2917     1
   2905   2918     1
   2906   2907     1
   2906   2922     1
   2906   2917     1
   2906   2918     1
   2907   2920     1
   2907   2921     1
   2908   2919     1
   2908   2911     1
   2908   2912     1
   2909   2919     1
   2909   2911     1
   2909   2912     1
   2911   2928     1
   2911   2920     1
   2911   2921     1
   2912   2928     1
   2912   2920     1
   2912   2921     1
   2914   5915     1
   2914   2926     1
   2914   2927     1
   2915   5915     1
   2915   2926     1
   2915   2927     1
   2917   5886     1
   2917   2923     1
   2917   2924     1
   2918   5886     1
   2918   2923     1
   2918   2924     1
   2922   5878     1
   2922   5879     1
   2923   5877     1
   2924   5877     1
   2925   5907     1
   2925   5908     1
   2926   5906     1
   2927   5906     1
   2929   2943     1
   2929   2944     1
   2929   2946     1
   2929   2947     1
   2929   2940     1
   2929   2941     1
   2930   2934     1
   2930   2935     1
   2930   2937     1
   2930   2938     1
   2930   2955     1
   2930   2956     1
   2931   2933     1
   2931   2936     1
   2931   2954     1
   2931   2943     1
   2931   2944     1
   2932   2933     1
   2932   2936     1
   2932   2954     1
   2932   2943     1
   2932   2944     1
   2933   2937     1
   2933   2938     1
   2933   2952     1
   2933   2953     1
   2934   2936     1
   2934   2951     1
   2934   2946     1
   2934   2947     1
   2935   2936     1
   2935   2951     1
   2935   2946     1
   2935   2947     1
   2936   2949     1
   2936   2950     1
   2937   2948     1
   2937   2940     1
   2937   2941     1
   2938   2948     1
   2938   2940     1
   2938   2941     1
   2940   2957     1
   2940   2949     1
   2940   2950     1
   2941   2957     1
   2941   2949     1
   2941   2950     1
   2943   5973     1
   2943   2955     1
   2943   2956     1
   2944   5973     1
   2944   2955     1
   2944   2956     1
   2946   5944     1
   2946   2952     1
   2946   2953     1
   2947   5944     1
   2947   2952     1
   2947   2953     1
   2951   5936     1
   2951   5937     1
   2952   5935     1
   2953   5935     1
   2954   5965     1
   2954   5966     1
   2955   5964     1
   2956   5964     1
   2958   2972     1
   2958   2973     1
   2958   2975     1
   2958   2976     1
   2958   2969     1
   2958   2970     1
   2959   2963     1
   2959   2964     1
   2959   2966     1
   2959   2967     1
   2959   2984     1
   2959   2985     1
   2960   2962     1
   2960   2965     1
   2960   2983     1
   2960   2972     1
   2960   2973     1
   2961   2962     1
   2961   2965     1
   2961   2983     1
   2961   2972     1
   2961   2973     1
   2962   2966     1
   2962   2967     1
   2962   2981     1
   2962   2982     1
   2963   2965     1
   2963   2980     1
   2963   2975     1
   2963   2976     1
   2964   2965     1
   2964   2980     1
   2964   2975     1
   2964   2976     1
   2965   2978     1
   2965   2979     1
   2966   2977     1
   2966   2969     1
   2966   2970     1
   2967   2977     1
   2967   2969     1
   2967   2970     1
   2969   2986     1
   2969   2978     1
   2969   2979     1
   2970   2986     1
   2970   2978     1
   2970   2979     1
   2972   6031     1
   2972   2984     1
   2972   2985     1
   2973   6031     1
   2973   2984     1
   2973   2985     1
   2975   6002     1
   2975   2981     1
   2975   2982     1
   2976   6002     1
   2976   2981     1
   2976   2982     1
   2980   5994     1
   2980   5995     1
   2981   5993     1
   2982   5993     1
   2983   6023     1
   2983   6024     1
   2984   6022     1
   2985   6022     1
   2987   3001     1
   2987   3002     1
   2987   3004     1
   2987   3005     1
   2987   2998     1
   2987   2999     1
   2988   2992     1
   2988   2993     1
   2988   2995     1
   2988   2996     1
   2988   3013     1
   2988   3014     1
   2989   2991     1
   2989   2994     1
   2989   3012     1
   2989   3001     1
   2989   3002     1
   2990   2991     1
   2990   2994     1
   2990   3012     1
   2990   3001     1
   2990   3002     1
   2991   2995     1
   2991   2996     1
   2991   3010     1
   2991   3011     1
   2992   2994     1
   2992   3009     1
   2992   3004     1
   2992   3005     1
   2993   2994     1
   2993   3009     1
   2993   3004     1
   2993   3005     1
   2994   3007     1
   2994   3008     1
   2995   3006     1
   2995   2998     1
   2995   2999     1
   2996   3006     1
   2996   2998     1
   2996   2999     1
   2998   3015     1
   2998   3007     1
   2998   3008     1
   2999   3015     1
   2999   3007     1
   2999   3008     1
   3001   6089     1
   3001   3013     1
   3001   3014     1
   3002   6089     1
   3002   3013     1
   3002   3014     1
   3004   6060     1
   3004   3010     1
   3004   3011     1
   3005   6060     1
   3005   3010     1
   3005   3011     1
   3009   6052     1
   3009   6053     1
   3010   6051     1
   3011   6051     1
   3012   6081     1
   3012   6082     1
   3013   6080     1
   3014   6080     1
   3016   3030     1
   3016   3031     1
   3016   3033     1
   3016   3034     1
   3016   3027     1
   3016   3028     1
   3017   3021     1
   3017   3022     1
   3017   3024     1
   3017   3025     1
   3017   3042     1
   3017   3043     1
   3018   3020     1
   3018   3023     1
   3018   3041     1
   3018   3030     1
   3018   3031     1
   3019   3020     1
   3019   3023     1
   3019   3041     1
   3019   3030     1
   3019   3031     1
   3020   3024     1
   3020   3025     1
   3020   3039     1
   3020   3040     1
   3021   3023     1
   3021   3038     1
   3021   3033     1
   3021   3034     1
   3022   3023     1
   3022   3038     1
   3022   3033     1
   3022   3034     1
   3023   3036     1
   3023   3037     1
   3024   3035     1
   3024   3027     1
   3024   3028     1
   3025   3035     1
   3025   3027     1
   3025   3028     1
   3027   3044     1
   3027   3036     1
   3027   3037     1
   3028   3044     1
   3028   3036     1
   3028   3037     1
   3030   6147     1
   3030   3042     1
   3030   3043     1
   3031   6147     1
   3031   3042     1
   3031   3043     1
   3033   6118     1
   3033   3039     1
   3033   3040     1
   3034   6118     1
   3034   3039     1
   3034   3040     1
   3038   6110     1
   3038   6111     1
   3039   6109     1
   3040   6109     1
   3041   6139     1
   3041   6140     1
   3042   6138     1
   3043   6138     1
   3045   3059     1
   3045   3060     1
   3045   3062     1
   3045   3063     1
   3045   3056     1
   3045   3057     1
   3046   3050     1
   3046   3051     1
   3046   3053     1
   3046   3054     1
   3046   3071     1
   3046   3072     1
   3047   3049     1
   3047   3052     1
   3047   3070     1
   3047   3059     1
   3047   3060     1
   3048   3049     1
   3048   3052     1
   3048   3070     1
   3048   3059     1
   3048   3060     1
   3049   3053     1
   3049   3054     1
   3049   3068     1
   3049   3069     1
   3050   3052     1
   3050   3067     1
   3050   3062     1
   3050   3063     1
   3051   3052     1
   3051   3067     1
   3051   3062     1
   3051   3063     1
   3052   3065     1
   3052   3066     1
   3053   3064     1
   3053   3056     1
   3053   3057     1
   3054   3064     1
   3054   3056     1
   3054   3057     1
   3056   3073     1
   3056   3065     1
   3056   3066     1
   3057   3073     1
   3057   3065     1
   3057   3066     1
   3059   6205     1
   3059   3071     1
   3059   3072     1
   3060   6205     1
   3060   3071     1
   3060   3072     1
   3062   6176     1
   3062   3068     1
   3062   3069     1
   3063   6176     1
   3063   3068     1
   3063   3069     1
   3067   6168     1
   3067   6169     1
   3068   6167     1
   3069   6167     1
   3070   6197     1
   3070   6198     1
   3071   6196     1
   3072   6196     1
   3074   3088     1
   3074   3089     1
   3074   3091     1
   3074   3092     1
   3074   3085     1
   3074   3086     1
   3075   3079     1
   3075   3080     1
   3075   3082     1
   3075   3083     1
   3075   3100     1
   3075   3101     1
   3076   3078     1
   3076   3081     1
   3076   3099     1
   3076   3088     1
   3076   3089     1
   3077   3078     1
   3077   3081     1
   3077   3099     1
   3077   3088     1
   3077   3089     1
   3078   3082     1
   3078   3083     1
   3078   3097     1
   3078   3098     1
   3079   3081     1
   3079   3096     1
   3079   3091     1
   3079   3092     1
   3080   3081     1
   3080   3096     1
   3080   3091     1
   3080   3092     1
   3081   3094     1
   3081   3095     1
   3082   3093     1
   3082   3085     1
   3082   3086     1
   3083   3093     1
   3083   3085     1
   3083   3086     1
   3085   3102     1
   3085   3094     1
   3085   3095     1
   3086   3102     1
   3086   3094     1
   3086   3095     1
   3088   6263     1
   3088   3100     1
   3088   3101     1
   3089   6263     1
   3089   3100     1
   3089   3101     1
   3091   6234     1
   3091   3097     1
   3091   3098     1
   3092   6234     1
   3092   3097     1
   3092   3098     1
   3096   6226     1
   3096   6227     1
   3097   6225     1
   3098   6225     1
   3099   6255     1
   3099   6256     1
   3100   6254     1
   3101   6254     1
   3103   3117     1
   3103   3118     1
   3103   3120     1
   3103   3121     1
   3103   3114     1
   3103   3115     1
   3104   3108     1
   3104   3109     1
   3104   3111     1
   3104   3112     1
   3104   3129     1
   3104   3130     1
   3105   3107     1
   3105   3110     1
   3105   3128     1
   3105   3117     1
   3105   3118     1
   3106   3107     1
   3106   3110     1
   3106   3128     1
   3106   3117     1
   3106   3118     1
   3107   3111     1
   3107   3112     1
   3107   3126     1
   3107   3127     1
   3108   3110     1
   3108   3125     1
   3108   3120     1
   3108   3121     1
   3109   3110     1
   3109   3125     1
   3109   3120     1
   3109   3121     1
   3110   3123     1
   3110   3124     1
   3111   3122     1
   3111   3114     1
   3111   3115     1
   3112   3122     1
   3112   3114     1
   3112   3115     1
   3114   3131     1
   3114   3123     1
   3114   3124     1
   3115   3131     1
   3115   3123     1
   3115   3124     1
   3117   6321     1
   3117   3129     1
   3117   3130     1
   3118   6321     1
   3118   3129     1
   3118   3130     1
   3120   6292     1
   3120   3126     1
   3120   3127     1
   3121   6292     1
   3121   3126     1
   3121   3127     1
   3125   6284     1
   3125   6285     1
   3126   6283     1
   3127   6283     1
   3128   6313     1
   3128   6314     1
   3129   6312     1
   3130   6312     1
   3132   3146     1
   3132   3147     1
   3132   3149     1
   3132   3150     1
   3132   3143     1
   3132   3144     1
   3133   3137     1
   3133   3138     1
   3133   3140     1
   3133   3141     1
   3133   3158     1
   3133   3159     1
   3134   3136     1
   3134   3139     1
   3134   3157     1
   3134   3146     1
   3134   3147     1
   3135   3136     1
   3135   3139     1
   3135   3157     1
   3135   3146     1
   3135   3147     1
   3136   3140     1
   3136   3141     1
   3136   3155     1
   3136   3156     1
   3137   3139     1
   3137   3154     1
   3137   3149     1
   3137   3150     1
   3138   3139     1
   3138   3154     1
   3138   3149     1
   3138   3150     1
   3139   3152     1
   3139   3153     1
   3140   3151     1
   3140   3143     1
   3140   3144     1
   3141   3151     1
   3141   3143     1
   3141   3144     1
   3143   3160     1
   3143   3152     1
   3143   3153     1
   3144   3160     1
   3144   3152     1
   3144   3153     1
   3146   6379     1
   3146   3158     1
   3146   3159     1
   3147   6379     1
   3147   3158     1
   3147   3159     1
   3149   6350     1
   3149   3155     1
   3149   3156     1
   3150   6350     1
   3150   3155     1
   3150   3156     1
   3154   6342     1
   3154   6343     1
   3155   6341     1
   3156   6341     1
   3157   6371     1
   3157   6372     1
   3158   6370     1
   3159   6370     1
   3161   3175     1
   3161   3176     1
   3161   3178     1
   3161   3179     1
   3161   3172     1
   3161   3173     1
   3162   3166     1
   3162   3167     1
   3162   3169     1
   3162   3170     1
   3162   3187     1
   3162   3188     1
   3163   3165     1
   3163   3168     1
   3163   3186     1
   3163   3175     1
   3163   3176     1
   3164   3165     1
   3164   3168     1
   3164   3186     1
   3164   3175     1
   3164   3176     1
   3165   3169     1
   3165   3170     1
   3165   3184     1
   3165   3185     1
   3166   3168     1
   3166   3183     1
   3166   3178     1
   3166   3179     1
   3167   3168     1
   3167   3183     1
   3167   3178     1
   3167   3179     1
   3168   3181     1
   3168   3182     1
   3169   3180     1
   3169   3172     1
   3169   3173     1
   3170   3180     1
   3170   3172     1
   3170   3173     1
   3172   3189     1
   3172   3181     1
   3172   3182     1
   3173   3189     1
   3173   3181     1
   3173   3182     1
   3175   6437     1
   3175   3187     1
   3175   3188     1
   3176   6437     1
   3176   3187     1
   3176   3188     1
   3178   6408     1
   3178   3184     1
   3178   3185     1
   3179   6408     1
   3179   3184     1
   3179   3185     1
   3183   6400     1
   3183   6401     1
   3184   6399     1
   3185   6399     1
   3186   6429     1
   3186   6430     1
   3187   6428     1
   3188   6428     1
   3190   3204     1
   3190   3205     1
   3190   3207     1
   3190   3208     1
   3190   3201     1
   3190   3202     1
   3191   3195     1
   3191   3196     1
   3191   3198     1
   3191   3199     1
   3191   3216     1
   3191   3217     1
   3192   3194     1
   3192   3197     1
   3192   3215     1
   3192   3204     1
   3192   3205     1
   3193   3194     1
   3193   3197     1
   3193   3215     1
   3193   3204     1
   3193   3205     1
   3194   3198     1
   3194   3199     1
   3194   3213     1
   3194   3214     1
   3195   3197     1
   3195   3212     1
   3195   3207     1
   3195   3208     1
   3196   3197     1
   3196   3212     1
   3196   3207     1
   3196   3208     1
   3197   3210     1
   3197   3211     1
   3198   3209     1
   3198   3201     1
   3198   3202     1
   3199   3209     1
   3199   3201     1
   3199   3202     1
   3201   3218     1
   3201   3210     1
   3201   3211     1
   3202   3218     1
   3202   3210     1
   3202   3211     1
   3204   6495     1
   3204   3216     1
   3204   3217     1
   3205   6495     1
   3205   3216     1
   3205   3217     1
   3207   6466     1
   3207   3213     1
   3207   3214     1
   3208   6466     1
   3208   3213     1
   3208   3214     1
   3212   6458     1
   3212   6459     1
   3213   6457     1
   3214   6457     1
   3215   6487     1
   3215   6488     1
   3216   6486     1
   3217   6486     1
   3219   3233     1
   3219   3234     1
   3219   3236     1
   3219   3237     1
   3219   3230     1
   3219   3231     1
   3220   3224     1
   3220   3225     1
   3220   3227     1
   3220   3228     1
   3220   3245     1
   3220   3246     1
   3221   3223     1
   3221   3226     1
   3221   3244     1
   3221   3233     1
   3221   3234     1
   3222   3223     1
   3222   3226     1
   3222   3244     1
   3222   3233     1
   3222   3234     1
   3223   3227     1
   3223   3228     1
   3223   3242     1
   3223   3243     1
   3224   3226     1
   3224   3241     1
   3224   3236     1
   3224   3237     1
   3225   3226     1
   3225   3241     1
   3225   3236     1
   3225   3237     1
   3226   3239     1
   3226   3240     1
   3227   3238     1
   3227   3230     1
   3227   3231     1
   3228   3238     1
   3228   3230     1
   3228   3231     1
   3230   3247     1
   3230   3239     1
   3230   3240     1
   3231   3247     1
   3231   3239     1
   3231   3240     1
   3233   6553     1
   3233   3245     1
   3233   3246     1
   3234   6553     1
   3234   3245     1
   3234   3246     1
   3236   6524     1
   3236   3242     1
   3236   3243     1
   3237   6524     1
   3237   3242     1
   3237   3243     1
   3241   6516     1
   3241   6517     1
   3242   6515     1
   3243   6515     1
   3244   6545     1
   3244   6546     1
   3245   6544     1
   3246   6544     1
   3248   3262     1
   3248   3263     1
   3248   3265     1
   3248   3266     1
   3248   3259     1
   3248   3260     1
   3249   3253     1
   3249   3254     1
   3249   3256     1
   3249   3257     1
   3249   3274     1
   3249   3275     1
   3250   3252     1
   3250   3255     1
   3250   3273     1
   3250   3262     1
   3250   3263     1
   3251   3252     1
   3251   3255     1
   3251   3273     1
   3251   3262     1
   3251   3263     1
   3252   3256     1
   3252   3257     1
   3252   3271     1
   3252   3272     1
   3253   3255     1
   3253   3270     1
   3253   3265     1
   3253   3266     1
   3254   3255     1
   3254   3270     1
   3254   3265     1
   3254   3266     1
   3255   3268     1
   3255   3269     1
   3256   3267     1
   3256   3259     1
   3256   3260     1
   3257   3267     1
   3257   3259     1
   3257   3260     1
   3259   3276     1
   3259   3268     1
   3259   3269     1
   3260   3276     1
   3260   3268     1
   3260   3269     1
   3262   6611     1
   3262   3274     1
   3262   3275     1
   3263   6611     1
   3263   3274     1
   3263   3275     1
   3265   6582     1
   3265   3271     1
   3265   3272     1
   3266   6582     1
   3266   3271     1
   3266   3272     1
   3270   6574     1
   3270   6575     1
   3271   6573     1
   3272   6573     1
   3273   6603     1
   3273   6604     1
   3274   6602     1
   3275   6602     1
   3277   3291     1
   3277   3292     1
   3277   3294     1
   3277   3295     1
   3277   3288     1
   3277   3289     1
   3278   3282     1
   3278   3283     1
   3278   3285     1
   3278   3286     1
   3278   3303     1
   3278   3304     1
   3279   3281     1
   3279   3284     1
   3279   3302     1
   3279   3291     1
   3279   3292     1
   3280   3281     1
   3280   3284     1
   3280   3302     1
   3280   3291     1
   3280   3292     1
   3281   3285     1
   3281   3286     1
   3281   3300     1
   3281   3301     1
   3282   3284     1
   3282   3299     1
   3282   3294     1
   3282   3295     1
   3283   3284     1
   3283   3299     1
   3283   3294     1
   3283   3295     1
   3284   3297     1
   3284   3298     1
   3285   3296     1
   3285   3288     1
   3285   3289     1
   3286   3296     1
   3286   3288     1
   3286   3289     1
   3288   3305     1
   3288   3297     1
   3288   3298     1
   3289   3305     1
   3289   3297     1
   3289   3298     1
   3291   6669     1
   3291   3303     1
   3291   3304     1
   3292   6669     1
   3292   3303     1
   3292   3304     1
   3294   6640     1
   3294   3300     1
   3294   3301     1
   3295   6640     1
   3295   3300     1
   3295   3301     1
   3299   6632     1
   3299   6633     1
   3300   6631     1
   3301   6631     1
   3302   6661     1
   3302   6662     1
   3303   6660     1
   3304   6660     1
   3306   3320     1
   3306   3321     1
   3306   3323     1
   3306   3324     1
   3306   3317     1
   3306   3318     1
   3307   3311     1
   3307   3312     1
   3307   3314     1
   3307   3315     1
   3307   3332     1
   3307   3333     1
   3308   3310     1
   3308   3313     1
   3308   3331     1
   3308   3320     1
   3308   3321     1
   3309   3310     1
   3309   3313     1
   3309   3331     1
   3309   3320     1
   3309   3321     1
   3310   3314     1
   3310   3315     1
   3310   3329     1
   3310   3330     1
   3311   3313     1
   3311   3328     1
   3311   3323     1
   3311   3324     1
   3312   3313     1
   3312   3328     1
   3312   3323     1
   3312   3324     1
   3313   3326     1
   3313   3327     1
   3314   3325     1
   3314   3317     1
   3314   3318     1
   3315   3325     1
   3315   3317     1
   3315   3318     1
   3317   3334     1
   3317   3326     1
   3317   3327     1
   3318   3334     1
   3318   3326     1
   3318   3327     1
   3320   6727     1
   3320   3332     1
   3320   3333     1
   3321   6727     1
   3321   3332     1
   3321   3333     1
   3323   6698     1
   3323   3329     1
   3323   3330     1
   3324   6698     1
   3324   3329     1
   3324   3330     1
   3328   6690     1
   3328   6691     1
   3329   6689     1
   3330   6689     1
   3331   6719     1
   3331   6720     1
   3332   6718     1
   3333   6718     1
   3335   3349     1
   3335   3350     1
   3335   3352     1
   3335   3353     1
   3335   3346     1
   3335   3347     1
   3336   3340     1
   3336   3341     1
   3336   3343     1
   3336   3344     1
   3336   3361     1
   3336   3362     1
   3337   3339     1
   3337   3342     1
   3337   3360     1
   3337   3349     1
   3337   3350     1
   3338   3339     1
   3338   3342     1
   3338   3360     1
   3338   3349     1
   3338   3350     1
   3339   3343     1
   3339   3344     1
   3339   3358     1
   3339   3359     1
   3340   3342     1
   3340   3357     1
   3340   3352     1
   3340   3353     1
   3341   3342     1
   3341   3357     1
   3341   3352     1
   3341   3353     1
   3342   3355     1
   3342   3356     1
   3343   3354     1
   3343   3346     1
   3343   3347     1
   3344   3354     1
   3344   3346     1
   3344   3347     1
   3346   3363     1
   3346   3355     1
   3346   3356     1
   3347   3363     1
   3347   3355     1
   3347   3356     1
   3349   6785     1
   3349   3361     1
   3349   3362     1
   3350   6785     1
   3350   3361     1
   3350   3362     1
   3352   6756     1
   3352   3358     1
   3352   3359     1
   3353   6756     1
   3353   3358     1
   3353   3359     1
   3357   6748     1
   3357   6749     1
   3358   6747     1
   3359   6747     1
   3360   6777     1
   3360   6778     1
   3361   6776     1
   3362   6776     1
   3364   3378     1
   3364   3379     1
   3364   3381     1
   3364   3382     1
   3364   3375     1
   3364   3376     1
   3365   3369     1
   3365   3370     1
   3365   3372     1
   3365   3373     1
   3365   3390     1
   3365   3391     1
   3366   3368     1
   3366   3371     1
   3366   3389     1
   3366   3378     1
   3366   3379     1
   3367   3368     1
   3367   3371     1
   3367   3389     1
   3367   3378     1
   3367   3379     1
   3368   3372     1
   3368   3373     1
   3368   3387     1
   3368   3388     1
   3369   3371     1
   3369   3386     1
   3369   3381     1
   3369   3382     1
   3370   3371     1
   3370   3386     1
   3370   3381     1
   3370   3382     1
   3371   3384     1
   3371   3385     1
   3372   3383     1
   3372   3375     1
   3372   3376     1
   3373   3383     1
   3373   3375     1
   3373   3376     1
   3375   3392     1
   3375   3384     1
   3375   3385     1
   3376   3392     1
   3376   3384     1
   3376   3385     1
   3378   6843     1
   3378   3390     1
   3378   3391     1
   3379   6843     1
   3379   3390     1
   3379   3391     1
   3381   6814     1
   3381   3387     1
   3381   3388     1
   3382   6814     1
   3382   3387     1
   3382   3388     1
   3386   6806     1
   3386   6807     1
   3387   6805     1
   3388   6805     1
   3389   6835     1
   3389   6836     1
   3390   6834     1
   3391   6834     1
   3393   3407     1
   3393   3408     1
   3393   3410     1
   3393   3411     1
   3393   3404     1
   3393   3405     1
   3394   3398     1
   3394   3399     1
   3394   3401     1
   3394   3402     1
   3394   3419     1
   3394   3420     1
   3395   3397     1
   3395   3400     1
   3395   3418     1
   3395   3407     1
   3395   3408     1
   3396   3397     1
   3396   3400     1
   3396   3418     1
   3396   3407     1
   3396   3408     1
   3397   3401     1
   3397   3402     1
   3397   3416     1
   3397   3417     1
   3398   3400     1
   3398   3415     1
   3398   3410     1
   3398   3411     1
   3399   3400     1
   3399   3415     1
   3399   3410     1
   3399   3411     1
   3400   3413     1
   3400   3414     1
   3401   3412     1
   3401   3404     1
   3401   3405     1
   3402   3412     1
   3402   3404     1
   3402   3405     1
   3404   3421     1
   3404   3413     1
   3404   3414     1
   3405   3421     1
   3405   3413     1
   3405   3414     1
   3407   6901     1
   3407   3419     1
   3407   3420     1
   3408   6901     1
   3408   3419     1
   3408   3420     1
   3410   6872     1
   3410   3416     1
   3410   3417     1
   3411   6872     1
   3411   3416     1
   3411   3417     1
   3415   6864     1
   3415   6865     1
   3416   6863     1
   3417   6863     1
   3418   6893     1
   3418   6894     1
   3419   6892     1
   3420   6892     1
   3422   3436     1
   3422   3437     1
   3422   3439     1
   3422   3440     1
   3422   3433     1
   3422   3434     1
   3423   3427     1
   3423   3428     1
   3423   3430     1
   3423   3431     1
   3423   3448     1
   3423   3449     1
   3424   3426     1
   3424   3429     1
   3424   3447     1
   3424   3436     1
   3424   3437     1
   3425   3426     1
   3425   3429     1
   3425   3447     1
   3425   3436     1
   3425   3437     1
   3426   3430     1
   3426   3431     1
   3426   3445     1
   3426   3446     1
   3427   3429     1
   3427   3444     1
   3427   3439     1
   3427   3440     1
   3428   3429     1
   3428   3444     1
   3428   3439     1
   3428   3440     1
   3429   3442     1
   3429   3443     1
   3430   3441     1
   3430   3433     1
   3430   3434     1
   3431   3441     1
   3431   3433     1
   3431   3434     1
   3433   3450     1
   3433   3442     1
   3433   3443     1
   3434   3450     1
   3434   3442     1
   3434   3443     1
   3436   6959     1
   3436   3448     1
   3436   3449     1
   3437   6959     1
   3437   3448     1
   3437   3449     1
   3439   6930     1
   3439   3445     1
   3439   3446     1
   3440   6930     1
   3440   3445     1
   3440   3446     1
   3444   6922     1
   3444   6923     1
   3445   6921     1
   3446   6921     1
   3447   6951     1
   3447   6952     1
   3448   6950     1
   3449   6950     1
   3451   3465     1
   3451   3466     1
   3451   3468     1
   3451   3469     1
   3451   3462     1
   3451   3463     1
   3452   3456     1
   3452   3457     1
   3452   3459     1
   3452   3460     1
   3452   3477     1
   3452   3478     1
   3453   3455     1
   3453   3458     1
   3453   3476     1
   3453   3465     1
   3453   3466     1
   3454   3455     1
   3454   3458     1
   3454   3476     1
   3454   3465     1
   3454   3466     1
   3455   3459     1
   3455   3460     1
   3455   3474     1
   3455   3475     1
   3456   3458     1
   3456   3473     1
   3456   3468     1
   3456   3469     1
   3457   3458     1
   3457   3473     1
   3457   3468     1
   3457   3469     1
   3458   3471     1
   3458   3472     1
   3459   3470     1
   3459   3462     1
   3459   3463     1
   3460   3470     1
   3460   3462     1
   3460   3463     1
   3462   3479     1
   3462   3471     1
   3462   3472     1
   3463   3479     1
   3463   3471     1
   3463   3472     1
   3465   7017     1
   3465   3477     1
   3465   3478     1
   3466   7017     1
   3466   3477     1
   3466   3478     1
   3468   6988     1
   3468   3474     1
   3468   3475     1
   3469   6988     1
   3469   3474     1
   3469   3475     1
   3473   6980     1
   3473   6981     1
   3474   6979     1
   3475   6979     1
   3476   7009     1
   3476   7010     1
   3477   7008     1
   3478   7008     1
   3480   3494     1
   3480   3495     1
   3480   3497     1
   3480   3498     1
   3480   3491     1
   3480   3492     1
   3481   3485     1
   3481   3486     1
   3481   3488     1
   3481   3489     1
   3481   3506     1
   3481   3507     1
   3482   3484     1
   3482   3487     1
   3482   3505     1
   3482   3494     1
   3482   3495     1
   3483   3484     1
   3483   3487     1
   3483   3505     1
   3483   3494     1
   3483   3495     1
   3484   3488     1
   3484   3489     1
   3484   3503     1
   3484   3504     1
   3485   3487     1
   3485   3502     1
   3485   3497     1
   3485   3498     1
   3486   3487     1
   3486   3502     1
   3486   3497     1
   3486   3498     1
   3487   3500     1
   3487   3501     1
   3488   3499     1
   3488   3491     1
   3488   3492     1
   3489   3499     1
   3489   3491     1
   3489   3492     1
   3491   3508     1
   3491   3500     1
   3491   3501     1
   3492   3508     1
   3492   3500     1
   3492   3501     1
   3494   7075     1
   3494   3506     1
   3494   3507     1
   3495   7075     1
   3495   3506     1
   3495   3507     1
   3497   7046     1
   3497   3503     1
   3497   3504     1
   3498   7046     1
   3498   3503     1
   3498   3504     1
   3502   7038     1
   3502   7039     1
   3503   7037     1
   3504   7037     1
   3505   7067     1
   3505   7068     1
   3506   7066     1
   3507   7066     1
   3509   3523     1
   3509   3524     1
   3509   3526     1
   3509   3527     1
   3509   3520     1
   3509   3521     1
   3510   3514     1
   3510   3515     1
   3510   3517     1
   3510   3518     1
   3510   3535     1
   3510   3536     1
   3511   3513     1
   3511   3516     1
   3511   3534     1
   3511   3523     1
   3511   3524     1
   3512   3513     1
   3512   3516     1
   3512   3534     1
   3512   3523     1
   3512   3524     1
   3513   3517     1
   3513   3518     1
   3513   3532     1
   3513   3533     1
   3514   3516     1
   3514   3531     1
   3514   3526     1
   3514   3527     1
   3515   3516     1
   3515   3531     1
   3515   3526     1
   3515   3527     1
   3516   3529     1
   3516   3530     1
   3517   3528     1
   3517   3520     1
   3517   3521     1
   3518   3528     1
   3518   3520     1
   3518   3521     1
   3520   3537     1
   3520   3529     1
   3520   3530     1
   3521   3537     1
   3521   3529     1
   3521   3530     1
   3523   7133     1
   3523   3535     1
   3523   3536     1
   3524   7133     1
   3524   3535     1
   3524   3536     1
   3526   7104     1
   3526   3532     1
   3526   3533     1
   3527   7104     1
   3527   3532     1
   3527   3533     1
   3531   7096     1
   3531   7097     1
   3532   7095     1
   3533   7095     1
   3534   7125     1
   3534   7126     1
   3535   7124     1
   3536   7124     1
   3538   3552     1
   3538   3553     1
   3538   3555     1
   3538   3556     1
   3538   3549     1
   3538   3550     1
   3539   3543     1
   3539   3544     1
   3539   3546     1
   3539   3547     1
   3539   3564     1
   3539   3565     1
   3540   3542     1
   3540   3545     1
   3540   3563     1
   3540   3552     1
   3540   3553     1
   3541   3542     1
   3541   3545     1
   3541   3563     1
   3541   3552     1
   3541   3553     1
   3542   3546     1
   3542   3547     1
   3542   3561     1
   3542   3562     1
   3543   3545     1
   3543   3560     1
   3543   3555     1
   3543   3556     1
   3544   3545     1
   3544   3560     1
   3544   3555     1
   3544   3556     1
   3545   3558     1
   3545   3559     1
   3546   3557     1
   3546   3549     1
   3546   3550     1
   3547   3557     1
   3547   3549     1
   3547   3550     1
   3549   3566     1
   3549   3558     1
   3549   3559     1
   3550   3566     1
   3550   3558     1
   3550   3559     1
   3552   7191     1
   3552   3564     1
   3552   3565     1
   3553   7191     1
   3553   3564     1
   3553   3565     1
   3555   7162     1
   3555   3561     1
   3555   3562     1
   3556   7162     1
   3556   3561     1
   3556   3562     1
   3560   7154     1
   3560   7155     1
   3561   7153     1
   3562   7153     1
   3563   7183     1
   3563   7184     1
   3564   7182     1
   3565   7182     1
   3567   3581     1
   3567   3582     1
   3567   3584     1
   3567   3585     1
   3567   3578     1
   3567   3579     1
   3568   3572     1
   3568   3573     1
   3568   3575     1
   3568   3576     1
   3568   3593     1
   3568   3594     1
   3569   3571     1
   3569   3574     1
   3569   3592     1
   3569   3581     1
   3569   3582     1
   3570   3571     1
   3570   3574     1
   3570   3592     1
   3570   3581     1
   3570   3582     1
   3571   3575     1
   3571   3576     1
   3571   3590     1
   3571   3591     1
   3572   3574     1
   3572   3589     1
   3572   3584     1
   3572   3585     1
   3573   3574     1
   3573   3589     1
   3573   3584     1
   3573   3585     1
   3574   3587     1
   3574   3588     1
   3575   3586     1
   3575   3578     1
   3575   3579     1
   3576   3586     1
   3576   3578     1
   3576   3579     1
   3578   3595     1
   3578   3587     1
   3578   3588     1
   3579   3595     1
   3579   3587     1
   3579   3588     1
   3581   7249     1
   3581   3593     1
   3581   3594     1
   3582   7249     1
   3582   3593     1
   3582   3594     1
   3584   7220     1
   3584   3590     1
   3584   3591     1
   3585   7220     1
   3585   3590     1
   3585   3591     1
   3589   7212     1
   3589   7213     1
   3590   7211     1
   3591   7211     1
   3592   7241     1
   3592   7242     1
   3593   7240     1
   3594   7240     1
   3596   3610     1
   3596   3611     1
   3596   3613     1
   3596   3614     1
   3596   3607     1
   3596   3608     1
   3597   3601     1
   3597   3602     1
   3597   3604     1
   3597   3605     1
   3597   3622     1
   3597   3623     1
   3598   3600     1
   3598   3603     1
   3598   3621     1
   3598   3610     1
   3598   3611     1
   3599   3600     1
   3599   3603     1
   3599   3621     1
   3599   3610     1
   3599   3611     1
   3600   3604     1
   3600   3605     1
   3600   3619     1
   3600   3620     1
   3601   3603     1
   3601   3618     1
   3601   3613     1
   3601   3614     1
   3602   3603     1
   3602   3618     1
   3602   3613     1
   3602   3614     1
   3603   3616     1
   3603   3617     1
   3604   3615     1
   3604   3607     1
   3604   3608     1
   3605   3615     1
   3605   3607     1
   3605   3608     1
   3607   3624     1
   3607   3616     1
   3607   3617     1
   3608   3624     1
   3608   3616     1
   3608   3617     1
   3610   7307     1
   3610   3622     1
   3610   3623     1
   3611   7307     1
   3611   3622     1
   3611   3623     1
   3613   7278     1
   3613   3619     1
   3613   3620     1
   3614   7278     1
   3614   3619     1
   3614   3620     1
   3618   7270     1
   3618   7271     1
   3619   7269     1
   3620   7269     1
   3621   7299     1
   3621   7300     1
   3622   7298     1
   3623   7298     1
   3625   3639     1
   3625   3640     1
   3625   3642     1
   3625   3643     1
   3625   3636     1
   3625   3637     1
   3626   3630     1
   3626   3631     1
   3626   3633     1
   3626   3634     1
   3626   3651     1
   3626   3652     1
   3627   3629     1
   3627   3632     1
   3627   3650     1
   3627   3639     1
   3627   3640     1
   3628   3629     1
   3628   3632     1
   3628   3650     1
   3628   3639     1
   3628   3640     1
   3629   3633     1
   3629   3634     1
   3629   3648     1
   3629   3649     1
   3630   3632     1
   3630   3647     1
   3630   3642     1
   3630   3643     1
   3631   3632     1
   3631   3647     1
   3631   3642     1
   3631   3643     1
   3632   3645     1
   3632   3646     1
   3633   3644     1
   3633   3636     1
   3633   3637     1
   3634   3644     1
   3634   3636     1
   3634   3637     1
   3636   3653     1
   3636   3645     1
   3636   3646     1
   3637   3653     1
   3637   3645     1
   3637   3646     1
   3639   7365     1
   3639   3651     1
   3639   3652     1
   3640   7365     1
   3640   3651     1
   3640   3652     1
   3642   7336     1
   3642   3648     1
   3642   3649     1
   3643   7336     1
   3643   3648     1
   3643   3649     1
   3647   7328     1
   3647   7329     1
   3648   7327     1
   3649   7327     1
   3650   7357     1
   3650   7358     1
   3651   7356     1
   3652   7356     1
   3654   3668     1
   3654   3669     1
   3654   3671     1
   3654   3672     1
   3654   3665     1
   3654   3666     1
   3655   3659     1
   3655   3660     1
   3655   3662     1
   3655   3663     1
   3655   3680     1
   3655   3681     1
   3656   3658     1
   3656   3661     1
   3656   3679     1
   3656   3668     1
   3656   3669     1
   3657   3658     1
   3657   3661     1
   3657   3679     1
   3657   3668     1
   3657   3669     1
   3658   3662     1
   3658   3663     1
   3658   3677     1
   3658   3678     1
   3659   3661     1
   3659   3676     1
   3659   3671     1
   3659   3672     1
   3660   3661     1
   3660   3676     1
   3660   3671     1
   3660   3672     1
   3661   3674     1
   3661   3675     1
   3662   3673     1
   3662   3665     1
   3662   3666     1
   3663   3673     1
   3663   3665     1
   3663   3666     1
   3665   3682     1
   3665   3674     1
   3665   3675     1
   3666   3682     1
   3666   3674     1
   3666   3675     1
   3668   7399     1
   3668   3680     1
   3668   3681     1
   3669   7399     1
   3669   3680     1
   3669   3681     1
   3671   7376     1
   3671   3677     1
   3671   3678     1
   3672   7376     1
   3672   3677     1
   3672   3678     1
   3676   7375     1
   3677   7372     1
   3678   7372     1
   3679   7398     1
   3680   7395     1
   3681   7395     1
   3683   3697     1
   3683   3698     1
   3683   3700     1
   3683   3701     1
   3683   3694     1
   3683   3695     1
   3684   3688     1
   3684   3689     1
   3684   3691     1
   3684   3692     1
   3684   3709     1
   3684   3710     1
   3685   3687     1
   3685   3690     1
   3685   3708     1
   3685   3697     1
   3685   3698     1
   3686   3687     1
   3686   3690     1
   3686   3708     1
   3686   3697     1
   3686   3698     1
   3687   3691     1
   3687   3692     1
   3687   3706     1
   3687   3707     1
   3688   3690     1
   3688   3705     1
   3688   3700     1
   3688   3701     1
   3689   3690     1
   3689   3705     1
   3689   3700     1
   3689   3701     1
   3690   3703     1
   3690   3704     1
   3691   3702     1
   3691   3694     1
   3691   3695     1
   3692   3702     1
   3692   3694     1
   3692   3695     1
   3694   3711     1
   3694   3703     1
   3694   3704     1
   3695   3711     1
   3695   3703     1
   3695   3704     1
   3697   7445     1
   3697   3709     1
   3697   3710     1
   3698   7445     1
   3698   3709     1
   3698   3710     1
   3700   7422     1
   3700   3706     1
   3700   3707     1
   3701   7422     1
   3701   3706     1
   3701   3707     1
   3705   7421     1
   3706   7418     1
   3707   7418     1
   3708   7444     1
   3709   7441     1
   3710   7441     1
   3712   3726     1
   3712   3727     1
   3712   3729     1
   3712   3730     1
   3712   3723     1
   3712   3724     1
   3713   3717     1
   3713   3718     1
   3713   3720     1
   3713   3721     1
   3713   3738     1
   3713   3739     1
   3714   3716     1
   3714   3719     1
   3714   3737     1
   3714   3726     1
   3714   3727     1
   3715   3716     1
   3715   3719     1
   3715   3737     1
   3715   3726     1
   3715   3727     1
   3716   3720     1
   3716   3721     1
   3716   3735     1
   3716   3736     1
   3717   3719     1
   3717   3734     1
   3717   3729     1
   3717   3730     1
   3718   3719     1
   3718   3734     1
   3718   3729     1
   3718   3730     1
   3719   3732     1
   3719   3733     1
   3720   3731     1
   3720   3723     1
   3720   3724     1
   3721   3731     1
   3721   3723     1
   3721   3724     1
   3723   3740     1
   3723   3732     1
   3723   3733     1
   3724   3740     1
   3724   3732     1
   3724   3733     1
   3726   7491     1
   3726   3738     1
   3726   3739     1
   3727   7491     1
   3727   3738     1
   3727   3739     1
   3729   7468     1
   3729   3735     1
   3729   3736     1
   3730   7468     1
   3730   3735     1
   3730   3736     1
   3734   7467     1
   3735   7464     1
   3736   7464     1
   3737   7490     1
   3738   7487     1
   3739   7487     1
   3741   3755     1
   3741   3756     1
   3741   3758     1
   3741   3759     1
   3741   3752     1
   3741   3753     1
   3742   3746     1
   3742   3747     1
   3742   3749     1
   3742   3750     1
   3742   3767     1
   3742   3768     1
   3743   3745     1
   3743   3748     1
   3743   3766     1
   3743   3755     1
   3743   3756     1
   3744   3745     1
   3744   3748     1
   3744   3766     1
   3744   3755     1
   3744   3756     1
   3745   3749     1
   3745   3750     1
   3745   3764     1
   3745   3765     1
   3746   3748     1
   3746   3763     1
   3746   3758     1
   3746   3759     1
   3747   3748     1
   3747   3763     1
   3747   3758     1
   3747   3759     1
   3748   3761     1
   3748   3762     1
   3749   3760     1
   3749   3752     1
   3749   3753     1
   3750   3760     1
   3750   3752     1
   3750   3753     1
   3752   3769     1
   3752   3761     1
   3752   3762     1
   3753   3769     1
   3753   3761     1
   3753   3762     1
   3755   7537     1
   3755   3767     1
   3755   3768     1
   3756   7537     1
   3756   3767     1
   3756   3768     1
   3758   7514     1
   3758   3764     1
   3758   3765     1
   3759   7514     1
   3759   3764     1
   3759   3765     1
   3763   7513     1
   3764   7510     1
   3765   7510     1
   3766   7536     1
   3767   7533     1
   3768   7533     1
   3770   3784     1
   3770   3785     1
   3770   3787     1
   3770   3788     1
   3770   3781     1
   3770   3782     1
   3771   3775     1
   3771   3776     1
   3771   3778     1
   3771   3779     1
   3771   3796     1
   3771   3797     1
   3772   3774     1
   3772   3777     1
   3772   3795     1
   3772   3784     1
   3772   3785     1
   3773   3774     1
   3773   3777     1
   3773   3795     1
   3773   3784     1
   3773   3785     1
   3774   3778     1
   3774   3779     1
   3774   3793     1
   3774   3794     1
   3775   3777     1
   3775   3792     1
   3775   3787     1
   3775   3788     1
   3776   3777     1
   3776   3792     1
   3776   3787     1
   3776   3788     1
   3777   3790     1
   3777   3791     1
   3778   3789     1
   3778   3781     1
   3778   3782     1
   3779   3789     1
   3779   3781     1
   3779   3782     1
   3781   3798     1
   3781   3790     1
   3781   3791     1
   3782   3798     1
   3782   3790     1
   3782   3791     1
   3784   7583     1
   3784   3796     1
   3784   3797     1
   3785   7583     1
   3785   3796     1
   3785   3797     1
   3787   7560     1
   3787   3793     1
   3787   3794     1
   3788   7560     1
   3788   3793     1
   3788   3794     1
   3792   7559     1
   3793   7556     1
   3794   7556     1
   3795   7582     1
   3796   7579     1
   3797   7579     1
   3799   3813     1
   3799   3814     1
   3799   3816     1
   3799   3817     1
   3799   3810     1
   3799   3811     1
   3800   3804     1
   3800   3805     1
   3800   3807     1
   3800   3808     1
   3800   3825     1
   3800   3826     1
   3801   3803     1
   3801   3806     1
   3801   3824     1
   3801   3813     1
   3801   3814     1
   3802   3803     1
   3802   3806     1
   3802   3824     1
   3802   3813     1
   3802   3814     1
   3803   3807     1
   3803   3808     1
   3803   3822     1
   3803   3823     1
   3804   3806     1
   3804   3821     1
   3804   3816     1
   3804   3817     1
   3805   3806     1
   3805   3821     1
   3805   3816     1
   3805   3817     1
   3806   3819     1
   3806   3820     1
   3807   3818     1
   3807   3810     1
   3807   3811     1
   3808   3818     1
   3808   3810     1
   3808   3811     1
   3810   3827     1
   3810   3819     1
   3810   3820     1
   3811   3827     1
   3811   3819     1
   3811   3820     1
   3813   7629     1
   3813   3825     1
   3813   3826     1
   3814   7629     1
   3814   3825     1
   3814   3826     1
   3816   7606     1
   3816   3822     1
   3816   3823     1
   3817   7606     1
   3817   3822     1
   3817   3823     1
   3821   7605     1
   3822   7602     1
   3823   7602     1
   3824   7628     1
   3825   7625     1
   3826   7625     1
   3828   3842     1
   3828   3843     1
   3828   3845     1
   3828   3846     1
   3828   3839     1
   3828   3840     1
   3829   3833     1
   3829   3834     1
   3829   3836     1
   3829   3837     1
   3829   3854     1
   3829   3855     1
   3830   3832     1
   3830   3835     1
   3830   3853     1
   3830   3842     1
   3830   3843     1
   3831   3832     1
   3831   3835     1
   3831   3853     1
   3831   3842     1
   3831   3843     1
   3832   3836     1
   3832   3837     1
   3832   3851     1
   3832   3852     1
   3833   3835     1
   3833   3850     1
   3833   3845     1
   3833   3846     1
   3834   3835     1
   3834   3850     1
   3834   3845     1
   3834   3846     1
   3835   3848     1
   3835   3849     1
   3836   3847     1
   3836   3839     1
   3836   3840     1
   3837   3847     1
   3837   3839     1
   3837   3840     1
   3839   3856     1
   3839   3848     1
   3839   3849     1
   3840   3856     1
   3840   3848     1
   3840   3849     1
   3842   7675     1
   3842   3854     1
   3842   3855     1
   3843   7675     1
   3843   3854     1
   3843   3855     1
   3845   7652     1
   3845   3851     1
   3845   3852     1
   3846   7652     1
   3846   3851     1
   3846   3852     1
   3850   7651     1
   3851   7648     1
   3852   7648     1
   3853   7674     1
   3854   7671     1
   3855   7671     1
   3857   3871     1
   3857   3872     1
   3857   3874     1
   3857   3875     1
   3857   3868     1
   3857   3869     1
   3858   3862     1
   3858   3863     1
   3858   3865     1
   3858   3866     1
   3858   3883     1
   3858   3884     1
   3859   3861     1
   3859   3864     1
   3859   3882     1
   3859   3871     1
   3859   3872     1
   3860   3861     1
   3860   3864     1
   3860   3882     1
   3860   3871     1
   3860   3872     1
   3861   3865     1
   3861   3866     1
   3861   3880     1
   3861   3881     1
   3862   3864     1
   3862   3879     1
   3862   3874     1
   3862   3875     1
   3863   3864     1
   3863   3879     1
   3863   3874     1
   3863   3875     1
   3864   3877     1
   3864   3878     1
   3865   3876     1
   3865   3868     1
   3865   3869     1
   3866   3876     1
   3866   3868     1
   3866   3869     1
   3868   3885     1
   3868   3877     1
   3868   3878     1
   3869   3885     1
   3869   3877     1
   3869   3878     1
   3871   7721     1
   3871   3883     1
   3871   3884     1
   3872   7721     1
   3872   3883     1
   3872   3884     1
   3874   7698     1
   3874   3880     1
   3874   3881     1
   3875   7698     1
   3875   3880     1
   3875   3881     1
   3879   7697     1
   3880   7694     1
   3881   7694     1
   3882   7720     1
   3883   7717     1
   3884   7717     1
   3886   3900     1
   3886   3901     1
   3886   3903     1
   3886   3904     1
   3886   3897     1
   3886   3898     1
   3887   3891     1
   3887   3892     1
   3887   3894     1
   3887   3895     1
   3887   3912     1
   3887   3913     1
   3888   3890     1
   3888   3893     1
   3888   3911     1
   3888   3900     1
   3888   3901     1
   3889   3890     1
   3889   3893     1
   3889   3911     1
   3889   3900     1
   3889   3901     1
   3890   3894     1
   3890   3895     1
   3890   3909     1
   3890   3910     1
   3891   3893     1
   3891   3908     1
   3891   3903     1
   3891   3904     1
   3892   3893     1
   3892   3908     1
   3892   3903     1
   3892   3904     1
   3893   3906     1
   3893   3907     1
   3894   3905     1
   3894   3897     1
   3894   3898     1
   3895   3905     1
   3895   3897     1
   3895   3898     1
   3897   3914     1
   3897   3906     1
   3897   3907     1
   3898   3914     1
   3898   3906     1
   3898   3907     1
   3900   7767     1
   3900   3912     1
   3900   3913     1
   3901   7767     1
   3901   3912     1
   3901   3913     1
   3903   7744     1
   3903   3909     1
   3903   3910     1
   3904   7744     1
   3904   3909     1
   3904   3910     1
   3908   7743     1
   3909   7740     1
   3910   7740     1
   3911   7766     1
   3912   7763     1
   3913   7763     1
   3915   3929     1
   3915   3930     1
   3915   3932     1
   3915   3933     1
   3915   3926     1
   3915   3927     1
   3916   3920     1
   3916   3921     1
   3916   3923     1
   3916   3924     1
   3916   3941     1
   3916   3942     1
   3917   3919     1
   3917   3922     1
   3917   3940     1
   3917   3929     1
   3917   3930     1
   3918   3919     1
   3918   3922     1
   3918   3940     1
   3918   3929     1
   3918   3930     1
   3919   3923     1
   3919   3924     1
   3919   3938     1
   3919   3939     1
   3920   3922     1
   3920   3937     1
   3920   3932     1
   3920   3933     1
   3921   3922     1
   3921   3937     1
   3921   3932     1
   3921   3933     1
   3922   3935     1
   3922   3936     1
   3923   3934     1
   3923   3926     1
   3923   3927     1
   3924   3934     1
   3924   3926     1
   3924   3927     1
   3926   3943     1
   3926   3935     1
   3926   3936     1
   3927   3943     1
   3927   3935     1
   3927   3936     1
   3929   7813     1
   3929   3941     1
   3929   3942     1
   3930   7813     1
   3930   3941     1
   3930   3942     1
   3932   7790     1
   3932   3938     1
   3932   3939     1
   3933   7790     1
   3933   3938     1
   3933   3939     1
   3937   7789     1
   3938   7786     1
   3939   7786     1
   3940   7812     1
   3941   7809     1
   3942   7809     1
   3944   3958     1
   3944   3959     1
   3944   3961     1
   3944   3962     1
   3944   3955     1
   3944   3956     1
   3945   3949     1
   3945   3950     1
   3945   3952     1
   3945   3953     1
   3945   3970     1
   3945   3971     1
   3946   3948     1
   3946   3951     1
   3946   3969     1
   3946   3958     1
   3946   3959     1
   3947   3948     1
   3947   3951     1
   3947   3969     1
   3947   3958     1
   3947   3959     1
   3948   3952     1
   3948   3953     1
   3948   3967     1
   3948   3968     1
   3949   3951     1
   3949   3966     1
   3949   3961     1
   3949   3962     1
   3950   3951     1
   3950   3966     1
   3950   3961     1
   3950   3962     1
   3951   3964     1
   3951   3965     1
   3952   3963     1
   3952   3955     1
   3952   3956     1
   3953   3963     1
   3953   3955     1
   3953   3956     1
   3955   3972     1
   3955   3964     1
   3955   3965     1
   3956   3972     1
   3956   3964     1
   3956   3965     1
   3958   7859     1
   3958   3970     1
   3958   3971     1
   3959   7859     1
   3959   3970     1
   3959   3971     1
   3961   7836     1
   3961   3967     1
   3961   3968     1
   3962   7836     1
   3962   3967     1
   3962   3968     1
   3966   7835     1
   3967   7832     1
   3968   7832     1
   3969   7858     1
   3970   7855     1
   3971   7855     1
   3973   3987     1
   3973   3988     1
   3973   3990     1
   3973   3991     1
   3973   3984     1
   3973   3985     1
   3974   3978     1
   3974   3979     1
   3974   3981     1
   3974   3982     1
   3974   3999     1
   3974   4000     1
   3975   3977     1
   3975   3980     1
   3975   3998     1
   3975   3987     1
   3975   3988     1
   3976   3977     1
   3976   3980     1
   3976   3998     1
   3976   3987     1
   3976   3988     1
   3977   3981     1
   3977   3982     1
   3977   3996     1
   3977   3997     1
   3978   3980     1
   3978   3995     1
   3978   3990     1
   3978   3991     1
   3979   3980     1
   3979   3995     1
   3979   3990     1
   3979   3991     1
   3980   3993     1
   3980   3994     1
   3981   3992     1
   3981   3984     1
   3981   3985     1
   3982   3992     1
   3982   3984     1
   3982   3985     1
   3984   4001     1
   3984   3993     1
   3984   3994     1
   3985   4001     1
   3985   3993     1
   3985   3994     1
   3987   7905     1
   3987   3999     1
   3987   4000     1
   3988   7905     1
   3988   3999     1
   3988   4000     1
   3990   7882     1
   3990   3996     1
   3990   3997     1
   3991   7882     1
   3991   3996     1
   3991   3997     1
   3995   7881     1
   3996   7878     1
   3997   7878     1
   3998   7904     1
   3999   7901     1
   4000   7901     1
   4002   4016     1
   4002   4017     1
   4002   4019     1
   4002   4020     1
   4002   4013     1
   4002   4014     1
   4003   4007     1
   4003   4008     1
   4003   4010     1
   4003   4011     1
   4003   4028     1
   4003   4029     1
   4004   4006     1
   4004   4009     1
   4004   4027     1
   4004   4016     1
   4004   4017     1
   4005   4006     1
   4005   4009     1
   4005   4027     1
   4005   4016     1
   4005   4017     1
   4006   4010     1
   4006   4011     1
   4006   4025     1
   4006   4026     1
   4007   4009     1
   4007   4024     1
   4007   4019     1
   4007   4020     1
   4008   4009     1
   4008   4024     1
   4008   4019     1
   4008   4020     1
   4009   4022     1
   4009   4023     1
   4010   4021     1
   4010   4013     1
   4010   4014     1
   4011   4021     1
   4011   4013     1
   4011   4014     1
   4013   4030     1
   4013   4022     1
   4013   4023     1
   4014   4030     1
   4014   4022     1
   4014   4023     1
   4016   7951     1
   4016   4028     1
   4016   4029     1
   4017   7951     1
   4017   4028     1
   4017   4029     1
   4019   7928     1
   4019   4025     1
   4019   4026     1
   4020   7928     1
   4020   4025     1
   4020   4026     1
   4024   7927     1
   4025   7924     1
   4026   7924     1
   4027   7950     1
   4028   7947     1
   4029   7947     1
   4031   4045     1
   4031   4046     1
   4031   4048     1
   4031   4049     1
   4031   4042     1
   4031   4043     1
   4032   4036     1
   4032   4037     1
   4032   4039     1
   4032   4040     1
   4032   4057     1
   4032   4058     1
   4033   4035     1
   4033   4038     1
   4033   4056     1
   4033   4045     1
   4033   4046     1
   4034   4035     1
   4034   4038     1
   4034   4056     1
   4034   4045     1
   4034   4046     1
   4035   4039     1
   4035   4040     1
   4035   4054     1
   4035   4055     1
   4036   4038     1
   4036   4053     1
   4036   4048     1
   4036   4049     1
   4037   4038     1
   4037   4053     1
   4037   4048     1
   4037   4049     1
   4038   4051     1
   4038   4052     1
   4039   4050     1
   4039   4042     1
   4039   4043     1
   4040   4050     1
   4040   4042     1
   4040   4043     1
   4042   4059     1
   4042   4051     1
   4042   4052     1
   4043   4059     1
   4043   4051     1
   4043   4052     1
   4045   7997     1
   4045   4057     1
   4045   4058     1
   4046   7997     1
   4046   4057     1
   4046   4058     1
   4048   7974     1
   4048   4054     1
   4048   4055     1
   4049   7974     1
   4049   4054     1
   4049   4055     1
   4053   7973     1
   4054   7970     1
   4055   7970     1
   4056   7996     1
   4057   7993     1
   4058   7993     1
   4060   4074     1
   4060   4075     1
   4060   4077     1
   4060   4078     1
   4060   4071     1
   4060   4072     1
   4061   4065     1
   4061   4066     1
   4061   4068     1
   4061   4069     1
   4061   4086     1
   4061   4087     1
   4062   4064     1
   4062   4067     1
   4062   4085     1
   4062   4074     1
   4062   4075     1
   4063   4064     1
   4063   4067     1
   4063   4085     1
   4063   4074     1
   4063   4075     1
   4064   4068     1
   4064   4069     1
   4064   4083     1
   4064   4084     1
   4065   4067     1
   4065   4082     1
   4065   4077     1
   4065   4078     1
   4066   4067     1
   4066   4082     1
   4066   4077     1
   4066   4078     1
   4067   4080     1
   4067   4081     1
   4068   4079     1
   4068   4071     1
   4068   4072     1
   4069   4079     1
   4069   4071     1
   4069   4072     1
   4071   4088     1
   4071   4080     1
   4071   4081     1
   4072   4088     1
   4072   4080     1
   4072   4081     1
   4074   8043     1
   4074   4086     1
   4074   4087     1
   4075   8043     1
   4075   4086     1
   4075   4087     1
   4077   8020     1
   4077   4083     1
   4077   4084     1
   4078   8020     1
   4078   4083     1
   4078   4084     1
   4082   8019     1
   4083   8016     1
   4084   8016     1
   4085   8042     1
   4086   8039     1
   4087   8039     1
   4089   4103     1
   4089   4104     1
   4089   4106     1
   4089   4107     1
   4089   4100     1
   4089   4101     1
   4090   4094     1
   4090   4095     1
   4090   4097     1
   4090   4098     1
   4090   4115     1
   4090   4116     1
   4091   4093     1
   4091   4096     1
   4091   4114     1
   4091   4103     1
   4091   4104     1
   4092   4093     1
   4092   4096     1
   4092   4114     1
   4092   4103     1
   4092   4104     1
   4093   4097     1
   4093   4098     1
   4093   4112     1
   4093   4113     1
   4094   4096     1
   4094   4111     1
   4094   4106     1
   4094   4107     1
   4095   4096     1
   4095   4111     1
   4095   4106     1
   4095   4107     1
   4096   4109     1
   4096   4110     1
   4097   4108     1
   4097   4100     1
   4097   4101     1
   4098   4108     1
   4098   4100     1
   4098   4101     1
   4100   4117     1
   4100   4109     1
   4100   4110     1
   4101   4117     1
   4101   4109     1
   4101   4110     1
   4103   8089     1
   4103   4115     1
   4103   4116     1
   4104   8089     1
   4104   4115     1
   4104   4116     1
   4106   8066     1
   4106   4112     1
   4106   4113     1
   4107   8066     1
   4107   4112     1
   4107   4113     1
   4111   8065     1
   4112   8062     1
   4113   8062     1
   4114   8088     1
   4115   8085     1
   4116   8085     1
   4118   4132     1
   4118   4133     1
   4118   4135     1
   4118   4136     1
   4118   4129     1
   4118   4130     1
   4119   4123     1
   4119   4124     1
   4119   4126     1
   4119   4127     1
   4119   4144     1
   4119   4145     1
   4120   4122     1
   4120   4125     1
   4120   4143     1
   4120   4132     1
   4120   4133     1
   4121   4122     1
   4121   4125     1
   4121   4143     1
   4121   4132     1
   4121   4133     1
   4122   4126     1
   4122   4127     1
   4122   4141     1
   4122   4142     1
   4123   4125     1
   4123   4140     1
   4123   4135     1
   4123   4136     1
   4124   4125     1
   4124   4140     1
   4124   4135     1
   4124   4136     1
   4125   4138     1
   4125   4139     1
   4126   4137     1
   4126   4129     1
   4126   4130     1
   4127   4137     1
   4127   4129     1
   4127   4130     1
   4129   4146     1
   4129   4138     1
   4129   4139     1
   4130   4146     1
   4130   4138     1
   4130   4139     1
   4132   8135     1
   4132   4144     1
   4132   4145     1
   4133   8135     1
   4133   4144     1
   4133   4145     1
   4135   8112     1
   4135   4141     1
   4135   4142     1
   4136   8112     1
   4136   4141     1
   4136   4142     1
   4140   8111     1
   4141   8108     1
   4142   8108     1
   4143   8134     1
   4144   8131     1
   4145   8131     1
   4147   4161     1
   4147   4162     1
   4147   4164     1
   4147   4165     1
   4147   4158     1
   4147   4159     1
   4148   4152     1
   4148   4153     1
   4148   4155     1
   4148   4156     1
   4148   4173     1
   4148   4174     1
   4149   4151     1
   4149   4154     1
   4149   4172     1
   4149   4161     1
   4149   4162     1
   4150   4151     1
   4150   4154     1
   4150   4172     1
   4150   4161     1
   4150   4162     1
   4151   4155     1
   4151   4156     1
   4151   4170     1
   4151   4171     1
   4152   4154     1
   4152   4169     1
   4152   4164     1
   4152   4165     1
   4153   4154     1
   4153   4169     1
   4153   4164     1
   4153   4165     1
   4154   4167     1
   4154   4168     1
   4155   4166     1
   4155   4158     1
   4155   4159     1
   4156   4166     1
   4156   4158     1
   4156   4159     1
   4158   4175     1
   4158   4167     1
   4158   4168     1
   4159   4175     1
   4159   4167     1
   4159   4168     1
   4161   8181     1
   4161   4173     1
   4161   4174     1
   4162   8181     1
   4162   4173     1
   4162   4174     1
   4164   8158     1
   4164   4170     1
   4164   4171     1
   4165   8158     1
   4165   4170     1
   4165   4171     1
   4169   8157     1
   4170   8154     1
   4171   8154     1
   4172   8180     1
   4173   8177     1
   4174   8177     1
   4176   4190     1
   4176   4191     1
   4176   4193     1
   4176   4194     1
   4176   4187     1
   4176   4188     1
   4177   4181     1
   4177   4182     1
   4177   4184     1
   4177   4185     1
   4177   4202     1
   4177   4203     1
   4178   4180     1
   4178   4183     1
   4178   4201     1
   4178   4190     1
   4178   4191     1
   4179   4180     1
   4179   4183     1
   4179   4201     1
   4179   4190     1
   4179   4191     1
   4180   4184     1
   4180   4185     1
   4180   4199     1
   4180   4200     1
   4181   4183     1
   4181   4198     1
   4181   4193     1
   4181   4194     1
   4182   4183     1
   4182   4198     1
   4182   4193     1
   4182   4194     1
   4183   4196     1
   4183   4197     1
   4184   4195     1
   4184   4187     1
   4184   4188     1
   4185   4195     1
   4185   4187     1
   4185   4188     1
   4187   4204     1
   4187   4196     1
   4187   4197     1
   4188   4204     1
   4188   4196     1
   4188   4197     1
   4190   8227     1
   4190   4202     1
   4190   4203     1
   4191   8227     1
   4191   4202     1
   4191   4203     1
   4193   8204     1
   4193   4199     1
   4193   4200     1
   4194   8204     1
   4194   4199     1
   4194   4200     1
   4198   8203     1
   4199   8200     1
   4200   8200     1
   4201   8226     1
   4202   8223     1
   4203   8223     1
   4205   4219     1
   4205   4220     1
   4205   4222     1
   4205   4223     1
   4205   4216     1
   4205   4217     1
   4206   4210     1
   4206   4211     1
   4206   4213     1
   4206   4214     1
   4206   4231     1
   4206   4232     1
   4207   4209     1
   4207   4212     1
   4207   4230     1
   4207   4219     1
   4207   4220     1
   4208   4209     1
   4208   4212     1
   4208   4230     1
   4208   4219     1
   4208   4220     1
   4209   4213     1
   4209   4214     1
   4209   4228     1
   4209   4229     1
   4210   4212     1
   4210   4227     1
   4210   4222     1
   4210   4223     1
   4211   4212     1
   4211   4227     1
   4211   4222     1
   4211   4223     1
   4212   4225     1
   4212   4226     1
   4213   4224     1
   4213   4216     1
   4213   4217     1
   4214   4224     1
   4214   4216     1
   4214   4217     1
   4216   4233     1
   4216   4225     1
   4216   4226     1
   4217   4233     1
   4217   4225     1
   4217   4226     1
   4219   8273     1
   4219   4231     1
   4219   4232     1
   4220   8273     1
   4220   4231     1
   4220   4232     1
   4222   8250     1
   4222   4228     1
   4222   4229     1
   4223   8250     1
   4223   4228     1
   4223   4229     1
   4227   8249     1
   4228   8246     1
   4229   8246     1
   4230   8272     1
   4231   8269     1
   4232   8269     1
   4234   4248     1
   4234   4249     1
   4234   4251     1
   4234   4252     1
   4234   4245     1
   4234   4246     1
   4235   4239     1
   4235   4240     1
   4235   4242     1
   4235   4243     1
   4235   4260     1
   4235   4261     1
   4236   4238     1
   4236   4241     1
   4236   4259     1
   4236   4248     1
   4236   4249     1
   4237   4238     1
   4237   4241     1
   4237   4259     1
   4237   4248     1
   4237   4249     1
   4238   4242     1
   4238   4243     1
   4238   4257     1
   4238   4258     1
   4239   4241     1
   4239   4256     1
   4239   4251     1
   4239   4252     1
   4240   4241     1
   4240   4256     1
   4240   4251     1
   4240   4252     1
   4241   4254     1
   4241   4255     1
   4242   4253     1
   4242   4245     1
   4242   4246     1
   4243   4253     1
   4243   4245     1
   4243   4246     1
   4245   4262     1
   4245   4254     1
   4245   4255     1
   4246   4262     1
   4246   4254     1
   4246   4255     1
   4248   8319     1
   4248   4260     1
   4248   4261     1
   4249   8319     1
   4249   4260     1
   4249   4261     1
   4251   8296     1
   4251   4257     1
   4251   4258     1
   4252   8296     1
   4252   4257     1
   4252   4258     1
   4256   8295     1
   4257   8292     1
   4258   8292     1
   4259   8318     1
   4260   8315     1
   4261   8315     1
   4263   4277     1
   4263   4278     1
   4263   4280     1
   4263   4281     1
   4263   4274     1
   4263   4275     1
   4264   4268     1
   4264   4269     1
   4264   4271     1
   4264   4272     1
   4264   4289     1
   4264   4290     1
   4265   4267     1
   4265   4270     1
   4265   4288     1
   4265   4277     1
   4265   4278     1
   4266   4267     1
   4266   4270     1
   4266   4288     1
   4266   4277     1
   4266   4278     1
   4267   4271     1
   4267   4272     1
   4267   4286     1
   4267   4287     1
   4268   4270     1
   4268   4285     1
   4268   4280     1
   4268   4281     1
   4269   4270     1
   4269   4285     1
   4269   4280     1
   4269   4281     1
   4270   4283     1
   4270   4284     1
   4271   4282     1
   4271   4274     1
   4271   4275     1
   4272   4282     1
   4272   4274     1
   4272   4275     1
   4274   4291     1
   4274   4283     1
   4274   4284     1
   4275   4291     1
   4275   4283     1
   4275   4284     1
   4277   8365     1
   4277   4289     1
   4277   4290     1
   4278   8365     1
   4278   4289     1
   4278   4290     1
   4280   8342     1
   4280   4286     1
   4280   4287     1
   4281   8342     1
   4281   4286     1
   4281   4287     1
   4285   8341     1
   4286   8338     1
   4287   8338     1
   4288   8364     1
   4289   8361     1
   4290   8361     1
   4292   4306     1
   4292   4307     1
   4292   4309     1
   4292   4310     1
   4292   4303     1
   4292   4304     1
   4293   4297     1
   4293   4298     1
   4293   4300     1
   4293   4301     1
   4293   4318     1
   4293   4319     1
   4294   4296     1
   4294   4299     1
   4294   4317     1
   4294   4306     1
   4294   4307     1
   4295   4296     1
   4295   4299     1
   4295   4317     1
   4295   4306     1
   4295   4307     1
   4296   4300     1
   4296   4301     1
   4296   4315     1
   4296   4316     1
   4297   4299     1
   4297   4314     1
   4297   4309     1
   4297   4310     1
   4298   4299     1
   4298   4314     1
   4298   4309     1
   4298   4310     1
   4299   4312     1
   4299   4313     1
   4300   4311     1
   4300   4303     1
   4300   4304     1
   4301   4311     1
   4301   4303     1
   4301   4304     1
   4303   4320     1
   4303   4312     1
   4303   4313     1
   4304   4320     1
   4304   4312     1
   4304   4313     1
   4306   8411     1
   4306   4318     1
   4306   4319     1
   4307   8411     1
   4307   4318     1
   4307   4319     1
   4309   8388     1
   4309   4315     1
   4309   4316     1
   4310   8388     1
   4310   4315     1
   4310   4316     1
   4314   8387     1
   4315   8384     1
   4316   8384     1
   4317   8410     1
   4318   8407     1
   4319   8407     1
   4321   4335     1
   4321   4336     1
   4321   4338     1
   4321   4339     1
   4321   4332     1
   4321   4333     1
   4322   4326     1
   4322   4327     1
   4322   4329     1
   4322   4330     1
   4322   4347     1
   4322   4348     1
   4323   4325     1
   4323   4328     1
   4323   4346     1
   4323   4335     1
   4323   4336     1
   4324   4325     1
   4324   4328     1
   4324   4346     1
   4324   4335     1
   4324   4336     1
   4325   4329     1
   4325   4330     1
   4325   4344     1
   4325   4345     1
   4326   4328     1
   4326   4343     1
   4326   4338     1
   4326   4339     1
   4327   4328     1
   4327   4343     1
   4327   4338     1
   4327   4339     1
   4328   4341     1
   4328   4342     1
   4329   4340     1
   4329   4332     1
   4329   4333     1
   4330   4340     1
   4330   4332     1
   4330   4333     1
   4332   4349     1
   4332   4341     1
   4332   4342     1
   4333   4349     1
   4333   4341     1
   4333   4342     1
   4335   8457     1
   4335   4347     1
   4335   4348     1
   4336   8457     1
   4336   4347     1
   4336   4348     1
   4338   8434     1
   4338   4344     1
   4338   4345     1
   4339   8434     1
   4339   4344     1
   4339   4345     1
   4343   8433     1
   4344   8430     1
   4345   8430     1
   4346   8456     1
   4347   8453     1
   4348   8453     1
   4350   4364     1
   4350   4365     1
   4350   4367     1
   4350   4368     1
   4350   4361     1
   4350   4362     1
   4351   4355     1
   4351   4356     1
   4351   4358     1
   4351   4359     1
   4351   4376     1
   4351   4377     1
   4352   4354     1
   4352   4357     1
   4352   4375     1
   4352   4364     1
   4352   4365     1
   4353   4354     1
   4353   4357     1
   4353   4375     1
   4353   4364     1
   4353   4365     1
   4354   4358     1
   4354   4359     1
   4354   4373     1
   4354   4374     1
   4355   4357     1
   4355   4372     1
   4355   4367     1
   4355   4368     1
   4356   4357     1
   4356   4372     1
   4356   4367     1
   4356   4368     1
   4357   4370     1
   4357   4371     1
   4358   4369     1
   4358   4361     1
   4358   4362     1
   4359   4369     1
   4359   4361     1
   4359   4362     1
   4361   4378     1
   4361   4370     1
   4361   4371     1
   4362   4378     1
   4362   4370     1
   4362   4371     1
   4364   8503     1
   4364   4376     1
   4364   4377     1
   4365   8503     1
   4365   4376     1
   4365   4377     1
   4367   8480     1
   4367   4373     1
   4367   4374     1
   4368   8480     1
   4368   4373     1
   4368   4374     1
   4372   8479     1
   4373   8476     1
   4374   8476     1
   4375   8502     1
   4376   8499     1
   4377   8499     1
   4379   4393     1
   4379   4394     1
   4379   4396     1
   4379   4397     1
   4379   4390     1
   4379   4391     1
   4380   4384     1
   4380   4385     1
   4380   4387     1
   4380   4388     1
   4380   4405     1
   4380   4406     1
   4381   4383     1
   4381   4386     1
   4381   4404     1
   4381   4393     1
   4381   4394     1
   4382   4383     1
   4382   4386     1
   4382   4404     1
   4382   4393     1
   4382   4394     1
   4383   4387     1
   4383   4388     1
   4383   4402     1
   4383   4403     1
   4384   4386     1
   4384   4401     1
   4384   4396     1
   4384   4397     1
   4385   4386     1
   4385   4401     1
   4385   4396     1
   4385   4397     1
   4386   4399     1
   4386   4400     1
   4387   4398     1
   4387   4390     1
   4387   4391     1
   4388   4398     1
   4388   4390     1
   4388   4391     1
   4390   4407     1
   4390   4399     1
   4390   4400     1
   4391   4407     1
   4391   4399     1
   4391   4400     1
   4393   8549     1
   4393   4405     1
   4393   4406     1
   4394   8549     1
   4394   4405     1
   4394   4406     1
   4396   8526     1
   4396   4402     1
   4396   4403     1
   4397   8526     1
   4397   4402     1
   4397   4403     1
   4401   8525     1
   4402   8522     1
   4403   8522     1
   4404   8548     1
   4405   8545     1
   4406   8545     1
   4408   4422     1
   4408   4423     1
   4408   4425     1
   4408   4426     1
   4408   4419     1
   4408   4420     1
   4409   4413     1
   4409   4414     1
   4409   4416     1
   4409   4417     1
   4409   4434     1
   4409   4435     1
   4410   4412     1
   4410   4415     1
   4410   4433     1
   4410   4422     1
   4410   4423     1
   4411   4412     1
   4411   4415     1
   4411   4433     1
   4411   4422     1
   4411   4423     1
   4412   4416     1
   4412   4417     1
   4412   4431     1
   4412   4432     1
   4413   4415     1
   4413   4430     1
   4413   4425     1
   4413   4426     1
   4414   4415     1
   4414   4430     1
   4414   4425     1
   4414   4426     1
   4415   4428     1
   4415   4429     1
   4416   4427     1
   4416   4419     1
   4416   4420     1
   4417   4427     1
   4417   4419     1
   4417   4420     1
   4419   4436     1
   4419   4428     1
   4419   4429     1
   4420   4436     1
   4420   4428     1
   4420   4429     1
   4422   8595     1
   4422   4434     1
   4422   4435     1
   4423   8595     1
   4423   4434     1
   4423   4435     1
   4425   8572     1
   4425   4431     1
   4425   4432     1
   4426   8572     1
   4426   4431     1
   4426   4432     1
   4430   8571     1
   4431   8568     1
   4432   8568     1
   4433   8594     1
   4434   8591     1
   4435   8591     1
   4437   4451     1
   4437   4452     1
   4437   4454     1
   4437   4455     1
   4437   4448     1
   4437   4449     1
   4438   4442     1
   4438   4443     1
   4438   4445     1
   4438   4446     1
   4438   4463     1
   4438   4464     1
   4439   4441     1
   4439   4444     1
   4439   4462     1
   4439   4451     1
   4439   4452     1
   4440   4441     1
   4440   4444     1
   4440   4462     1
   4440   4451     1
   4440   4452     1
   4441   4445     1
   4441   4446     1
   4441   4460     1
   4441   4461     1
   4442   4444     1
   4442   4459     1
   4442   4454     1
   4442   4455     1
   4443   4444     1
   4443   4459     1
   4443   4454     1
   4443   4455     1
   4444   4457     1
   4444   4458     1
   4445   4456     1
   4445   4448     1
   4445   4449     1
   4446   4456     1
   4446   4448     1
   4446   4449     1
   4448   4465     1
   4448   4457     1
   4448   4458     1
   4449   4465     1
   4449   4457     1
   4449   4458     1
   4451   8641     1
   4451   4463     1
   4451   4464     1
   4452   8641     1
   4452   4463     1
   4452   4464     1
   4454   8618     1
   4454   4460     1
   4454   4461     1
   4455   8618     1
   4455   4460     1
   4455   4461     1
   4459   8617     1
   4460   8614     1
   4461   8614     1
   4462   8640     1
   4463   8637     1
   4464   8637     1
   4466   4480     1
   4466   4481     1
   4466   4483     1
   4466   4484     1
   4466   4477     1
   4466   4478     1
   4467   4471     1
   4467   4472     1
   4467   4474     1
   4467   4475     1
   4467   4492     1
   4467   4493     1
   4468   4470     1
   4468   4473     1
   4468   4491     1
   4468   4480     1
   4468   4481     1
   4469   4470     1
   4469   4473     1
   4469   4491     1
   4469   4480     1
   4469   4481     1
   4470   4474     1
   4470   4475     1
   4470   4489     1
   4470   4490     1
   4471   4473     1
   4471   4488     1
   4471   4483     1
   4471   4484     1
   4472   4473     1
   4472   4488     1
   4472   4483     1
   4472   4484     1
   4473   4486     1
   4473   4487     1
   4474   4485     1
   4474   4477     1
   4474   4478     1
   4475   4485     1
   4475   4477     1
   4475   4478     1
   4477   4494     1
   4477   4486     1
   4477   4487     1
   4478   4494     1
   4478   4486     1
   4478   4487     1
   4480   8687     1
   4480   4492     1
   4480   4493     1
   4481   8687     1
   4481   4492     1
   4481   4493     1
   4483   8664     1
   4483   4489     1
   4483   4490     1
   4484   8664     1
   4484   4489     1
   4484   4490     1
   4488   8663     1
   4489   8660     1
   4490   8660     1
   4491   8686     1
   4492   8683     1
   4493   8683     1
   4495   4509     1
   4495   4510     1
   4495   4512     1
   4495   4513     1
   4495   4506     1
   4495   4507     1
   4496   4500     1
   4496   4501     1
   4496   4503     1
   4496   4504     1
   4496   4521     1
   4496   4522     1
   4497   4499     1
   4497   4502     1
   4497   4520     1
   4497   4509     1
   4497   4510     1
   4498   4499     1
   4498   4502     1
   4498   4520     1
   4498   4509     1
   4498   4510     1
   4499   4503     1
   4499   4504     1
   4499   4518     1
   4499   4519     1
   4500   4502     1
   4500   4517     1
   4500   4512     1
   4500   4513     1
   4501   4502     1
   4501   4517     1
   4501   4512     1
   4501   4513     1
   4502   4515     1
   4502   4516     1
   4503   4514     1
   4503   4506     1
   4503   4507     1
   4504   4514     1
   4504   4506     1
   4504   4507     1
   4506   4523     1
   4506   4515     1
   4506   4516     1
   4507   4523     1
   4507   4515     1
   4507   4516     1
   4509   8733     1
   4509   4521     1
   4509   4522     1
   4510   8733     1
   4510   4521     1
   4510   4522     1
   4512   8710     1
   4512   4518     1
   4512   4519     1
   4513   8710     1
   4513   4518     1
   4513   4519     1
   4517   8709     1
   4518   8706     1
   4519   8706     1
   4520   8732     1
   4521   8729     1
   4522   8729     1
   4524   4538     1
   4524   4539     1
   4524   4541     1
   4524   4542     1
   4524   4535     1
   4524   4536     1
   4525   4529     1
   4525   4530     1
   4525   4532     1
   4525   4533     1
   4525   4550     1
   4525   4551     1
   4526   4528     1
   4526   4531     1
   4526   4549     1
   4526   4538     1
   4526   4539     1
   4527   4528     1
   4527   4531     1
   4527   4549     1
   4527   4538     1
   4527   4539     1
   4528   4532     1
   4528   4533     1
   4528   4547     1
   4528   4548     1
   4529   4531     1
   4529   4546     1
   4529   4541     1
   4529   4542     1
   4530   4531     1
   4530   4546     1
   4530   4541     1
   4530   4542     1
   4531   4544     1
   4531   4545     1
   4532   4543     1
   4532   4535     1
   4532   4536     1
   4533   4543     1
   4533   4535     1
   4533   4536     1
   4535   4552     1
   4535   4544     1
   4535   4545     1
   4536   4552     1
   4536   4544     1
   4536   4545     1
   4538   8779     1
   4538   4550     1
   4538   4551     1
   4539   8779     1
   4539   4550     1
   4539   4551     1
   4541   8756     1
   4541   4547     1
   4541   4548     1
   4542   8756     1
   4542   4547     1
   4542   4548     1
   4546   8755     1
   4547   8752     1
   4548   8752     1
   4549   8778     1
   4550   8775     1
   4551   8775     1
   4553   4567     1
   4553   4568     1
   4553   4570     1
   4553   4571     1
   4553   4564     1
   4553   4565     1
   4554   4558     1
   4554   4559     1
   4554   4561     1
   4554   4562     1
   4554   4579     1
   4554   4580     1
   4555   4557     1
   4555   4560     1
   4555   4578     1
   4555   4567     1
   4555   4568     1
   4556   4557     1
   4556   4560     1
   4556   4578     1
   4556   4567     1
   4556   4568     1
   4557   4561     1
   4557   4562     1
   4557   4576     1
   4557   4577     1
   4558   4560     1
   4558   4575     1
   4558   4570     1
   4558   4571     1
   4559   4560     1
   4559   4575     1
   4559   4570     1
   4559   4571     1
   4560   4573     1
   4560   4574     1
   4561   4572     1
   4561   4564     1
   4561   4565     1
   4562   4572     1
   4562   4564     1
   4562   4565     1
   4564   4581     1
   4564   4573     1
   4564   4574     1
   4565   4581     1
   4565   4573     1
   4565   4574     1
   4567   8825     1
   4567   4579     1
   4567   4580     1
   4568   8825     1
   4568   4579     1
   4568   4580     1
   4570   8802     1
   4570   4576     1
   4570   4577     1
   4571   8802     1
   4571   4576     1
   4571   4577     1
   4575   8801     1
   4576   8798     1
   4577   8798     1
   4578   8824     1
   4579   8821     1
   4580   8821     1
   4582   4596     1
   4582   4597     1
   4582   4599     1
   4582   4600     1
   4582   4593     1
   4582   4594     1
   4583   4587     1
   4583   4588     1
   4583   4590     1
   4583   4591     1
   4583   4608     1
   4583   4609     1
   4584   4586     1
   4584   4589     1
   4584   4607     1
   4584   4596     1
   4584   4597     1
   4585   4586     1
   4585   4589     1
   4585   4607     1
   4585   4596     1
   4585   4597     1
   4586   4590     1
   4586   4591     1
   4586   4605     1
   4586   4606     1
   4587   4589     1
   4587   4604     1
   4587   4599     1
   4587   4600     1
   4588   4589     1
   4588   4604     1
   4588   4599     1
   4588   4600     1
   4589   4602     1
   4589   4603     1
   4590   4601     1
   4590   4593     1
   4590   4594     1
   4591   4601     1
   4591   4593     1
   4591   4594     1
   4593   4610     1
   4593   4602     1
   4593   4603     1
   4594   4610     1
   4594   4602     1
   4594   4603     1
   4596   8871     1
   4596   4608     1
   4596   4609     1
   4597   8871     1
   4597   4608     1
   4597   4609     1
   4599   8848     1
   4599   4605     1
   4599   4606     1
   4600   8848     1
   4600   4605     1
   4600   4606     1
   4604   8847     1
   4605   8844     1
   4606   8844     1
   4607   8870     1
   4608   8867     1
   4609   8867     1
   4611   4625     1
   4611   4626     1
   4611   4628     1
   4611   4629     1
   4611   4622     1
   4611   4623     1
   4612   4616     1
   4612   4617     1
   4612   4619     1
   4612   4620     1
   4612   4637     1
   4612   4638     1
   4613   4615     1
   4613   4618     1
   4613   4636     1
   4613   4625     1
   4613   4626     1
   4614   4615     1
   4614   4618     1
   4614   4636     1
   4614   4625     1
   4614   4626     1
   4615   4619     1
   4615   4620     1
   4615   4634     1
   4615   4635     1
   4616   4618     1
   4616   4633     1
   4616   4628     1
   4616   4629     1
   4617   4618     1
   4617   4633     1
   4617   4628     1
   4617   4629     1
   4618   4631     1
   4618   4632     1
   4619   4630     1
   4619   4622     1
   4619   4623     1
   4620   4630     1
   4620   4622     1
   4620   4623     1
   4622   4639     1
   4622   4631     1
   4622   4632     1
   4623   4639     1
   4623   4631     1
   4623   4632     1
   4625   8917     1
   4625   4637     1
   4625   4638     1
   4626   8917     1
   4626   4637     1
   4626   4638     1
   4628   8894     1
   4628   4634     1
   4628   4635     1
   4629   8894     1
   4629   4634     1
   4629   4635     1
   4633   8893     1
   4634   8890     1
   4635   8890     1
   4636   8916     1
   4637   8913     1
   4638   8913     1
   4640   4654     1
   4640   4655     1
   4640   4657     1
   4640   4658     1
   4640   4651     1
   4640   4652     1
   4641   4645     1
   4641   4646     1
   4641   4648     1
   4641   4649     1
   4641   4666     1
   4641   4667     1
   4642   4644     1
   4642   4647     1
   4642   4665     1
   4642   4654     1
   4642   4655     1
   4643   4644     1
   4643   4647     1
   4643   4665     1
   4643   4654     1
   4643   4655     1
   4644   4648     1
   4644   4649     1
   4644   4663     1
   4644   4664     1
   4645   4647     1
   4645   4662     1
   4645   4657     1
   4645   4658     1
   4646   4647     1
   4646   4662     1
   4646   4657     1
   4646   4658     1
   4647   4660     1
   4647   4661     1
   4648   4659     1
   4648   4651     1
   4648   4652     1
   4649   4659     1
   4649   4651     1
   4649   4652     1
   4651   4668     1
   4651   4660     1
   4651   4661     1
   4652   4668     1
   4652   4660     1
   4652   4661     1
   4654   8963     1
   4654   4666     1
   4654   4667     1
   4655   8963     1
   4655   4666     1
   4655   4667     1
   4657   8940     1
   4657   4663     1
   4657   4664     1
   4658   8940     1
   4658   4663     1
   4658   4664     1
   4662   8939     1
   4663   8936     1
   4664   8936     1
   4665   8962     1
   4666   8959     1
   4667   8959     1
   4669   4683     1
   4669   4684     1
   4669   4686     1
   4669   4687     1
   4669   4680     1
   4669   4681     1
   4670   4674     1
   4670   4675     1
   4670   4677     1
   4670   4678     1
   4670   4695     1
   4670   4696     1
   4671   4673     1
   4671   4676     1
   4671   4694     1
   4671   4683     1
   4671   4684     1
   4672   4673     1
   4672   4676     1
   4672   4694     1
   4672   4683     1
   4672   4684     1
   4673   4677     1
   4673   4678     1
   4673   4692     1
   4673   4693     1
   4674   4676     1
   4674   4691     1
   4674   4686     1
   4674   4687     1
   4675   4676     1
   4675   4691     1
   4675   4686     1
   4675   4687     1
   4676   4689     1
   4676   4690     1
   4677   4688     1
   4677   4680     1
   4677   4681     1
   4678   4688     1
   4678   4680     1
   4678   4681     1
   4680   4697     1
   4680   4689     1
   4680   4690     1
   4681   4697     1
   4681   4689     1
   4681   4690     1
   4683   9009     1
   4683   4695     1
   4683   4696     1
   4684   9009     1
   4684   4695     1
   4684   4696     1
   4686   8986     1
   4686   4692     1
   4686   4693     1
   4687   8986     1
   4687   4692     1
   4687   4693     1
   4691   8985     1
   4692   8982     1
   4693   8982     1
   4694   9008     1
   4695   9005     1
   4696   9005     1
   4698   4712     1
   4698   4713     1
   4698   4715     1
   4698   4716     1
   4698   4709     1
   4698   4710     1
   4699   4703     1
   4699   4704     1
   4699   4706     1
   4699   4707     1
   4699   4724     1
   4699   4725     1
   4700   4702     1
   4700   4705     1
   4700   4723     1
   4700   4712     1
   4700   4713     1
   4701   4702     1
   4701   4705     1
   4701   4723     1
   4701   4712     1
   4701   4713     1
   4702   4706     1
   4702   4707     1
   4702   4721     1
   4702   4722     1
   4703   4705     1
   4703   4720     1
   4703   4715     1
   4703   4716     1
   4704   4705     1
   4704   4720     1
   4704   4715     1
   4704   4716     1
   4705   4718     1
   4705   4719     1
   4706   4717     1
   4706   4709     1
   4706   4710     1
   4707   4717     1
   4707   4709     1
   4707   4710     1
   4709   4726     1
   4709   4718     1
   4709   4719     1
   4710   4726     1
   4710   4718     1
   4710   4719     1
   4712   9055     1
   4712   4724     1
   4712   4725     1
   4713   9055     1
   4713   4724     1
   4713   4725     1
   4715   9032     1
   4715   4721     1
   4715   4722     1
   4716   9032     1
   4716   4721     1
   4716   4722     1
   4720   9031     1
   4721   9028     1
   4722   9028     1
   4723   9054     1
   4724   9051     1
   4725   9051     1
   4727   4741     1
   4727   4742     1
   4727   4744     1
   4727   4745     1
   4727   4738     1
   4727   4739     1
   4728   4732     1
   4728   4733     1
   4728   4735     1
   4728   4736     1
   4728   4753     1
   4728   4754     1
   4729   4731     1
   4729   4734     1
   4729   4752     1
   4729   4741     1
   4729   4742     1
   4730   4731     1
   4730   4734     1
   4730   4752     1
   4730   4741     1
   4730   4742     1
   4731   4735     1
   4731   4736     1
   4731   4750     1
   4731   4751     1
   4732   4734     1
   4732   4749     1
   4732   4744     1
   4732   4745     1
   4733   4734     1
   4733   4749     1
   4733   4744     1
   4733   4745     1
   4734   4747     1
   4734   4748     1
   4735   4746     1
   4735   4738     1
   4735   4739     1
   4736   4746     1
   4736   4738     1
   4736   4739     1
   4738   4755     1
   4738   4747     1
   4738   4748     1
   4739   4755     1
   4739   4747     1
   4739   4748     1
   4741   9101     1
   4741   4753     1
   4741   4754     1
   4742   9101     1
   4742   4753     1
   4742   4754     1
   4744   9078     1
   4744   4750     1
   4744   4751     1
   4745   9078     1
   4745   4750     1
   4745   4751     1
   4749   9077     1
   4750   9074     1
   4751   9074     1
   4752   9100     1
   4753   9097     1
   4754   9097     1
   4756   4770     1
   4756   4771     1
   4756   4773     1
   4756   4774     1
   4756   4767     1
   4756   4768     1
   4757   4761     1
   4757   4762     1
   4757   4764     1
   4757   4765     1
   4757   4782     1
   4757   4783     1
   4758   4760     1
   4758   4763     1
   4758   4781     1
   4758   4770     1
   4758   4771     1
   4759   4760     1
   4759   4763     1
   4759   4781     1
   4759   4770     1
   4759   4771     1
   4760   4764     1
   4760   4765     1
   4760   4779     1
   4760   4780     1
   4761   4763     1
   4761   4778     1
   4761   4773     1
   4761   4774     1
   4762   4763     1
   4762   4778     1
   4762   4773     1
   4762   4774     1
   4763   4776     1
   4763   4777     1
   4764   4775     1
   4764   4767     1
   4764   4768     1
   4765   4775     1
   4765   4767     1
   4765   4768     1
   4767   4784     1
   4767   4776     1
   4767   4777     1
   4768   4784     1
   4768   4776     1
   4768   4777     1
   4770   9147     1
   4770   4782     1
   4770   4783     1
   4771   9147     1
   4771   4782     1
   4771   4783     1
   4773   9124     1
   4773   4779     1
   4773   4780     1
   4774   9124     1
   4774   4779     1
   4774   4780     1
   4778   9123     1
   4779   9120     1
   4780   9120     1
   4781   9146     1
   4782   9143     1
   4783   9143     1
   4785   4799     1
   4785   4800     1
   4785   4802     1
   4785   4803     1
   4785   4796     1
   4785   4797     1
   4786   4790     1
   4786   4791     1
   4786   4793     1
   4786   4794     1
   4786   4811     1
   4786   4812     1
   4787   4789     1
   4787   4792     1
   4787   4810     1
   4787   4799     1
   4787   4800     1
   4788   4789     1
   4788   4792     1
   4788   4810     1
   4788   4799     1
   4788   4800     1
   4789   4793     1
   4789   4794     1
   4789   4808     1
   4789   4809     1
   4790   4792     1
   4790   4807     1
   4790   4802     1
   4790   4803     1
   4791   4792     1
   4791   4807     1
   4791   4802     1
   4791   4803     1
   4792   4805     1
   4792   4806     1
   4793   4804     1
   4793   4796     1
   4793   4797     1
   4794   4804     1
   4794   4796     1
   4794   4797     1
   4796   4813     1
   4796   4805     1
   4796   4806     1
   4797   4813     1
   4797   4805     1
   4797   4806     1
   4799   9193     1
   4799   4811     1
   4799   4812     1
   4800   9193     1
   4800   4811     1
   4800   4812     1
   4802   9170     1
   4802   4808     1
   4802   4809     1
   4803   9170     1
   4803   4808     1
   4803   4809     1
   4807   9169     1
   4808   9166     1
   4809   9166     1
   4810   9192     1
   4811   9189     1
   4812   9189     1
   4814   4828     1
   4814   4829     1
   4814   4831     1
   4814   4832     1
   4814   4825     1
   4814   4826     1
   4815   4819     1
   4815   4820     1
   4815   4822     1
   4815   4823     1
   4815   4840     1
   4815   4841     1
   4816   4818     1
   4816   4821     1
   4816   4839     1
   4816   4828     1
   4816   4829     1
   4817   4818     1
   4817   4821     1
   4817   4839     1
   4817   4828     1
   4817   4829     1
   4818   4822     1
   4818   4823     1
   4818   4837     1
   4818   4838     1
   4819   4821     1
   4819   4836     1
   4819   4831     1
   4819   4832     1
   4820   4821     1
   4820   4836     1
   4820   4831     1
   4820   4832     1
   4821   4834     1
   4821   4835     1
   4822   4833     1
   4822   4825     1
   4822   4826     1
   4823   4833     1
   4823   4825     1
   4823   4826     1
   4825   4842     1
   4825   4834     1
   4825   4835     1
   4826   4842     1
   4826   4834     1
   4826   4835     1
   4828   9239     1
   4828   4840     1
   4828   4841     1
   4829   9239     1
   4829   4840     1
   4829   4841     1
   4831   9216     1
   4831   4837     1
   4831   4838     1
   4832   9216     1
   4832   4837     1
   4832   4838     1
   4836   9215     1
   4837   9212     1
   4838   9212     1
   4839   9238     1
   4840   9235     1
   4841   9235     1
   4843   4857     1
   4843   4858     1
   4843   4860     1
   4843   4861     1
   4843   4854     1
   4843   4855     1
   4844   4848     1
   4844   4849     1
   4844   4851     1
   4844   4852     1
   4844   4869     1
   4844   4870     1
   4845   4847     1
   4845   4850     1
   4845   4868     1
   4845   4857     1
   4845   4858     1
   4846   4847     1
   4846   4850     1
   4846   4868     1
   4846   4857     1
   4846   4858     1
   4847   4851     1
   4847   4852     1
   4847   4866     1
   4847   4867     1
   4848   4850     1
   4848   4865     1
   4848   4860     1
   4848   4861     1
   4849   4850     1
   4849   4865     1
   4849   4860     1
   4849   4861     1
   4850   4863     1
   4850   4864     1
   4851   4862     1
   4851   4854     1
   4851   4855     1
   4852   4862     1
   4852   4854     1
   4852   4855     1
   4854   4871     1
   4854   4863     1
   4854   4864     1
   4855   4871     1
   4855   4863     1
   4855   4864     1
   4857   9285     1
   4857   4869     1
   4857   4870     1
   4858   9285     1
   4858   4869     1
   4858   4870     1
   4860   9262     1
   4860   4866     1
   4860   4867     1
   4861   9262     1
   4861   4866     1
   4861   4867     1
   4865   9261     1
   4866   9258     1
   4867   9258     1
   4868   9284     1
   4869   9281     1
   4870   9281     1
   4872   4886     1
   4872   4887     1
   4872   4889     1
   4872   4890     1
   4872   4883     1
   4872   4884     1
   4873   4877     1
   4873   4878     1
   4873   4880     1
   4873   4881     1
   4873   4898     1
   4873   4899     1
   4874   4876     1
   4874   4879     1
   4874   4897     1
   4874   4886     1
   4874   4887     1
   4875   4876     1
   4875   4879     1
   4875   4897     1
   4875   4886     1
   4875   4887     1
   4876   4880     1
   4876   4881     1
   4876   4895     1
   4876   4896     1
   4877   4879     1
   4877   4894     1
   4877   4889     1
   4877   4890     1
   4878   4879     1
   4878   4894     1
   4878   4889     1
   4878   4890     1
   4879   4892     1
   4879   4893     1
   4880   4891     1
   4880   4883     1
   4880   4884     1
   4881   4891     1
   4881   4883     1
   4881   4884     1
   4883   4900     1
   4883   4892     1
   4883   4893     1
   4884   4900     1
   4884   4892     1
   4884   4893     1
   4886   9331     1
   4886   4898     1
   4886   4899     1
   4887   9331     1
   4887   4898     1
   4887   4899     1
   4889   9308     1
   4889   4895     1
   4889   4896     1
   4890   9308     1
   4890   4895     1
   4890   4896     1
   4894   9307     1
   4895   9304     1
   4896   9304     1
   4897   9330     1
   4898   9327     1
   4899   9327     1
   4901   4915     1
   4901   4916     1
   4901   4918     1
   4901   4919     1
   4901   4912     1
   4901   4913     1
   4902   4906     1
   4902   4907     1
   4902   4909     1
   4902   4910     1
   4902   4927     1
   4902   4928     1
   4903   4905     1
   4903   4908     1
   4903   4926     1
   4903   4915     1
   4903   4916     1
   4904   4905     1
   4904   4908     1
   4904   4926     1
   4904   4915     1
   4904   4916     1
   4905   4909     1
   4905   4910     1
   4905   4924     1
   4905   4925     1
   4906   4908     1
   4906   4923     1
   4906   4918     1
   4906   4919     1
   4907   4908     1
   4907   4923     1
   4907   4918     1
   4907   4919     1
   4908   4921     1
   4908   4922     1
   4909   4920     1
   4909   4912     1
   4909   4913     1
   4910   4920     1
   4910   4912     1
   4910   4913     1
   4912   4929     1
   4912   4921     1
   4912   4922     1
   4913   4929     1
   4913   4921     1
   4913   4922     1
   4915   9377     1
   4915   4927     1
   4915   4928     1
   4916   9377     1
   4916   4927     1
   4916   4928     1
   4918   9354     1
   4918   4924     1
   4918   4925     1
   4919   9354     1
   4919   4924     1
   4919   4925     1
   4923   9353     1
   4924   9350     1
   4925   9350     1
   4926   9376     1
   4927   9373     1
   4928   9373     1
   4930   4944     1
   4930   4945     1
   4930   4947     1
   4930   4948     1
   4930   4941     1
   4930   4942     1
   4931   4935     1
   4931   4936     1
   4931   4938     1
   4931   4939     1
   4931   4956     1
   4931   4957     1
   4932   4934     1
   4932   4937     1
   4932   4955     1
   4932   4944     1
   4932   4945     1
   4933   4934     1
   4933   4937     1
   4933   4955     1
   4933   4944     1
   4933   4945     1
   4934   4938     1
   4934   4939     1
   4934   4953     1
   4934   4954     1
   4935   4937     1
   4935   4952     1
   4935   4947     1
   4935   4948     1
   4936   4937     1
   4936   4952     1
   4936   4947     1
   4936   4948     1
   4937   4950     1
   4937   4951     1
   4938   4949     1
   4938   4941     1
   4938   4942     1
   4939   4949     1
   4939   4941     1
   4939   4942     1
   4941   4958     1
   4941   4950     1
   4941   4951     1
   4942   4958     1
   4942   4950     1
   4942   4951     1
   4944   9423     1
   4944   4956     1
   4944   4957     1
   4945   9423     1
   4945   4956     1
   4945   4957     1
   4947   9400     1
   4947   4953     1
   4947   4954     1
   4948   9400     1
   4948   4953     1
   4948   4954     1
   4952   9399     1
   4953   9396     1
   4954   9396     1
   4955   9422     1
   4956   9419     1
   4957   9419     1
   4959   4973     1
   4959   4974     1
   4959   4976     1
   4959   4977     1
   4959   4970     1
   4959   4971     1
   4960   4964     1
   4960   4965     1
   4960   4967     1
   4960   4968     1
   4960   4985     1
   4960   4986     1
   4961   4963     1
   4961   4966     1
   4961   4984     1
   4961   4973     1
   4961   4974     1
   4962   4963     1
   4962   4966     1
   4962   4984     1
   4962   4973     1
   4962   4974     1
   4963   4967     1
   4963   4968     1
   4963   4982     1
   4963   4983     1
   4964   4966     1
   4964   4981     1
   4964   4976     1
   4964   4977     1
   4965   4966     1
   4965   4981     1
   4965   4976     1
   4965   4977     1
   4966   4979     1
   4966   4980     1
   4967   4978     1
   4967   4970     1
   4967   4971     1
   4968   4978     1
   4968   4970     1
   4968   4971     1
   4970   4987     1
   4970   4979     1
   4970   4980     1
   4971   4987     1
   4971   4979     1
   4971   4980     1
   4973   9469     1
   4973   4985     1
   4973   4986     1
   4974   9469     1
   4974   4985     1
   4974   4986     1
   4976   9446     1
   4976   4982     1
   4976   4983     1
   4977   9446     1
   4977   4982     1
   4977   4983     1
   4981   9445     1
   4982   9442     1
   4983   9442     1
   4984   9468     1
   4985   9465     1
   4986   9465     1
   4988   5002     1
   4988   5003     1
   4988   5005     1
   4988   5006     1
   4988   4999     1
   4988   5000     1
   4989   4993     1
   4989   4994     1
   4989   4996     1
   4989   4997     1
   4989   5014     1
   4989   5015     1
   4990   4992     1
   4990   4995     1
   4990   5013     1
   4990   5002     1
   4990   5003     1
   4991   4992     1
   4991   4995     1
   4991   5013     1
   4991   5002     1
   4991   5003     1
   4992   4996     1
   4992   4997     1
   4992   5011     1
   4992   5012     1
   4993   4995     1
   4993   5010     1
   4993   5005     1
   4993   5006     1
   4994   4995     1
   4994   5010     1
   4994   5005     1
   4994   5006     1
   4995   5008     1
   4995   5009     1
   4996   5007     1
   4996   4999     1
   4996   5000     1
   4997   5007     1
   4997   4999     1
   4997   5000     1
   4999   5016     1
   4999   5008     1
   4999   5009     1
   5000   5016     1
   5000   5008     1
   5000   5009     1
   5002   9515     1
   5002   5014     1
   5002   5015     1
   5003   9515     1
   5003   5014     1
   5003   5015     1
   5005   9492     1
   5005   5011     1
   5005   5012     1
   5006   9492     1
   5006   5011     1
   5006   5012     1
   5010   9491     1
   5011   9488     1
   5012   9488     1
   5013   9514     1
   5014   9511     1
   5015   9511     1
   5017   5031     1
   5017   5032     1
   5017   5034     1
   5017   5035     1
   5017   5028     1
   5017   5029     1
   5018   5022     1
   5018   5023     1
   5018   5025     1
   5018   5026     1
   5018   5043     1
   5018   5044     1
   5019   5021     1
   5019   5024     1
   5019   5042     1
   5019   5031     1
   5019   5032     1
   5020   5021     1
   5020   5024     1
   5020   5042     1
   5020   5031     1
   5020   5032     1
   5021   5025     1
   5021   5026     1
   5021   5040     1
   5021   5041     1
   5022   5024     1
   5022   5039     1
   5022   5034     1
   5022   5035     1
   5023   5024     1
   5023   5039     1
   5023   5034     1
   5023   5035     1
   5024   5037     1
   5024   5038     1
   5025   5036     1
   5025   5028     1
   5025   5029     1
   5026   5036     1
   5026   5028     1
   5026   5029     1
   5028   5045     1
   5028   5037     1
   5028   5038     1
   5029   5045     1
   5029   5037     1
   5029   5038     1
   5031   9561     1
   5031   5043     1
   5031   5044     1
   5032   9561     1
   5032   5043     1
   5032   5044     1
   5034   9538     1
   5034   5040     1
   5034   5041     1
   5035   9538     1
   5035   5040     1
   5035   5041     1
   5039   9537     1
   5040   9534     1
   5041   9534     1
   5042   9560     1
   5043   9557     1
   5044   9557     1
   5046   5060     1
   5046   5061     1
   5046   5063     1
   5046   5064     1
   5046   5057     1
   5046   5058     1
   5047   5051     1
   5047   5052     1
   5047   5054     1
   5047   5055     1
   5047   5072     1
   5047   5073     1
   5048   5050     1
   5048   5053     1
   5048   5071     1
   5048   5060     1
   5048   5061     1
   5049   5050     1
   5049   5053     1
   5049   5071     1
   5049   5060     1
   5049   5061     1
   5050   5054     1
   5050   5055     1
   5050   5069     1
   5050   5070     1
   5051   5053     1
   5051   5068     1
   5051   5063     1
   5051   5064     1
   5052   5053     1
   5052   5068     1
   5052   5063     1
   5052   5064     1
   5053   5066     1
   5053   5067     1
   5054   5065     1
   5054   5057     1
   5054   5058     1
   5055   5065     1
   5055   5057     1
   5055   5058     1
   5057   5074     1
   5057   5066     1
   5057   5067     1
   5058   5074     1
   5058   5066     1
   5058   5067     1
   5060   9607     1
   5060   5072     1
   5060   5073     1
   5061   9607     1
   5061   5072     1
   5061   5073     1
   5063   9584     1
   5063   5069     1
   5063   5070     1
   5064   9584     1
   5064   5069     1
   5064   5070     1
   5068   9583     1
   5069   9580     1
   5070   9580     1
   5071   9606     1
   5072   9603     1
   5073   9603     1
   5075   5089     1
   5075   5090     1
   5075   5092     1
   5075   5093     1
   5075   5086     1
   5075   5087     1
   5076   5080     1
   5076   5081     1
   5076   5083     1
   5076   5084     1
   5076   5101     1
   5076   5102     1
   5077   5079     1
   5077   5082     1
   5077   5100     1
   5077   5089     1
   5077   5090     1
   5078   5079     1
   5078   5082     1
   5078   5100     1
   5078   5089     1
   5078   5090     1
   5079   5083     1
   5079   5084     1
   5079   5098     1
   5079   5099     1
   5080   5082     1
   5080   5097     1
   5080   5092     1
   5080   5093     1
   5081   5082     1
   5081   5097     1
   5081   5092     1
   5081   5093     1
   5082   5095     1
   5082   5096     1
   5083   5094     1
   5083   5086     1
   5083   5087     1
   5084   5094     1
   5084   5086     1
   5084   5087     1
   5086   5103     1
   5086   5095     1
   5086   5096     1
   5087   5103     1
   5087   5095     1
   5087   5096     1
   5089   9653     1
   5089   5101     1
   5089   5102     1
   5090   9653     1
   5090   5101     1
   5090   5102     1
   5092   9630     1
   5092   5098     1
   5092   5099     1
   5093   9630     1
   5093   5098     1
   5093   5099     1
   5097   9629     1
   5098   9626     1
   5099   9626     1
   5100   9652     1
   5101   9649     1
   5102   9649     1
   5104   5118     1
   5104   5119     1
   5104   5121     1
   5104   5122     1
   5104   5115     1
   5104   5116     1
   5105   5109     1
   5105   5110     1
   5105   5112     1
   5105   5113     1
   5105   5130     1
   5105   5131     1
   5106   5108     1
   5106   5111     1
   5106   5129     1
   5106   5118     1
   5106   5119     1
   5107   5108     1
   5107   5111     1
   5107   5129     1
   5107   5118     1
   5107   5119     1
   5108   5112     1
   5108   5113     1
   5108   5127     1
   5108   5128     1
   5109   5111     1
   5109   5126     1
   5109   5121     1
   5109   5122     1
   5110   5111     1
   5110   5126     1
   5110   5121     1
   5110   5122     1
   5111   5124     1
   5111   5125     1
   5112   5123     1
   5112   5115     1
   5112   5116     1
   5113   5123     1
   5113   5115     1
   5113   5116     1
   5115   5132     1
   5115   5124     1
   5115   5125     1
   5116   5132     1
   5116   5124     1
   5116   5125     1
   5118   9699     1
   5118   5130     1
   5118   5131     1
   5119   9699     1
   5119   5130     1
   5119   5131     1
   5121   9676     1
   5121   5127     1
   5121   5128     1
   5122   9676     1
   5122   5127     1
   5122   5128     1
   5126   9675     1
   5127   9672     1
   5128   9672     1
   5129   9698     1
   5130   9695     1
   5131   9695     1
   5133   5147     1
   5133   5148     1
   5133   5150     1
   5133   5151     1
   5133   5144     1
   5133   5145     1
   5134   5138     1
   5134   5139     1
   5134   5141     1
   5134   5142     1
   5134   5159     1
   5134   5160     1
   5135   5137     1
   5135   5140     1
   5135   5158     1
   5135   5147     1
   5135   5148     1
   5136   5137     1
   5136   5140     1
   5136   5158     1
   5136   5147     1
   5136   5148     1
   5137   5141     1
   5137   5142     1
   5137   5156     1
   5137   5157     1
   5138   5140     1
   5138   5155     1
   5138   5150     1
   5138   5151     1
   5139   5140     1
   5139   5155     1
   5139   5150     1
   5139   5151     1
   5140   5153     1
   5140   5154     1
   5141   5152     1
   5141   5144     1
   5141   5145     1
   5142   5152     1
   5142   5144     1
   5142   5145     1
   5144   5161     1
   5144   5153     1
   5144   5154     1
   5145   5161     1
   5145   5153     1
   5145   5154     1
   5147   9745     1
   5147   5159     1
   5147   5160     1
   5148   9745     1
   5148   5159     1
   5148   5160     1
   5150   9722     1
   5150   5156     1
   5150   5157     1
   5151   9722     1
   5151   5156     1
   5151   5157     1
   5155   9721     1
   5156   9718     1
   5157   9718     1
   5158   9744     1
   5159   9741     1
   5160   9741     1
   5162   5176     1
   5162   5177     1
   5162   5179     1
   5162   5180     1
   5162   5173     1
   5162   5174     1
   5163   5167     1
   5163   5168     1
   5163   5170     1
   5163   5171     1
   5163   5188     1
   5163   5189     1
   5164   5166     1
   5164   5169     1
   5164   5187     1
   5164   5176     1
   5164   5177     1
   5165   5166     1
   5165   5169     1
   5165   5187     1
   5165   5176     1
   5165   5177     1
   5166   5170     1
   5166   5171     1
   5166   5185     1
   5166   5186     1
   5167   5169     1
   5167   5184     1
   5167   5179     1
   5167   5180     1
   5168   5169     1
   5168   5184     1
   5168   5179     1
   5168   5180     1
   5169   5182     1
   5169   5183     1
   5170   5181     1
   5170   5173     1
   5170   5174     1
   5171   5181     1
   5171   5173     1
   5171   5174     1
   5173   5190     1
   5173   5182     1
   5173   5183     1
   5174   5190     1
   5174   5182     1
   5174   5183     1
   5176   9791     1
   5176   5188     1
   5176   5189     1
   5177   9791     1
   5177   5188     1
   5177   5189     1
   5179   9768     1
   5179   5185     1
   5179   5186     1
   5180   9768     1
   5180   5185     1
   5180   5186     1
   5184   9767     1
   5185   9764     1
   5186   9764     1
   5187   9790     1
   5188   9787     1
   5189   9787     1
   5191   5205     1
   5191   5206     1
   5191   5208     1
   5191   5209     1
   5191   5202     1
   5191   5203     1
   5192   5196     1
   5192   5197     1
   5192   5199     1
   5192   5200     1
   5192   5217     1
   5192   5218     1
   5193   5195     1
   5193   5198     1
   5193   5216     1
   5193   5205     1
   5193   5206     1
   5194   5195     1
   5194   5198     1
   5194   5216     1
   5194   5205     1
   5194   5206     1
   5195   5199     1
   5195   5200     1
   5195   5214     1
   5195   5215     1
   5196   5198     1
   5196   5213     1
   5196   5208     1
   5196   5209     1
   5197   5198     1
   5197   5213     1
   5197   5208     1
   5197   5209     1
   5198   5211     1
   5198   5212     1
   5199   5210     1
   5199   5202     1
   5199   5203     1
   5200   5210     1
   5200   5202     1
   5200   5203     1
   5202   5219     1
   5202   5211     1
   5202   5212     1
   5203   5219     1
   5203   5211     1
   5203   5212     1
   5205   9837     1
   5205   5217     1
   5205   5218     1
   5206   9837     1
   5206   5217     1
   5206   5218     1
   5208   9814     1
   5208   5214     1
   5208   5215     1
   5209   9814     1
   5209   5214     1
   5209   5215     1
   5213   9813     1
   5214   9810     1
   5215   9810     1
   5216   9836     1
   5217   9833     1
   5218   9833     1
   5220   5234     1
   5220   5235     1
   5220   5237     1
   5220   5238     1
   5220   5231     1
   5220   5232     1
   5221   5225     1
   5221   5226     1
   5221   5228     1
   5221   5229     1
   5221   5246     1
   5221   5247     1
   5222   5224     1
   5222   5227     1
   5222   5245     1
   5222   5234     1
   5222   5235     1
   5223   5224     1
   5223   5227     1
   5223   5245     1
   5223   5234     1
   5223   5235     1
   5224   5228     1
   5224   5229     1
   5224   5243     1
   5224   5244     1
   5225   5227     1
   5225   5242     1
   5225   5237     1
   5225   5238     1
   5226   5227     1
   5226   5242     1
   5226   5237     1
   5226   5238     1
   5227   5240     1
   5227   5241     1
   5228   5239     1
   5228   5231     1
   5228   5232     1
   5229   5239     1
   5229   5231     1
   5229   5232     1
   5231   5248     1
   5231   5240     1
   5231   5241     1
   5232   5248     1
   5232   5240     1
   5232   5241     1
   5234   9883     1
   5234   5246     1
   5234   5247     1
   5235   9883     1
   5235   5246     1
   5235   5247     1
   5237   9860     1
   5237   5243     1
   5237   5244     1
   5238   9860     1
   5238   5243     1
   5238   5244     1
   5242   9859     1
   5243   9856     1
   5244   9856     1
   5245   9882     1
   5246   9879     1
   5247   9879     1
   5249   5263     1
   5249   5264     1
   5249   5266     1
   5249   5267     1
   5249   5260     1
   5249   5261     1
   5250   5254     1
   5250   5255     1
   5250   5257     1
   5250   5258     1
   5250   5275     1
   5250   5276     1
   5251   5253     1
   5251   5256     1
   5251   5274     1
   5251   5263     1
   5251   5264     1
   5252   5253     1
   5252   5256     1
   5252   5274     1
   5252   5263     1
   5252   5264     1
   5253   5257     1
   5253   5258     1
   5253   5272     1
   5253   5273     1
   5254   5256     1
   5254   5271     1
   5254   5266     1
   5254   5267     1
   5255   5256     1
   5255   5271     1
   5255   5266     1
   5255   5267     1
   5256   5269     1
   5256   5270     1
   5257   5268     1
   5257   5260     1
   5257   5261     1
   5258   5268     1
   5258   5260     1
   5258   5261     1
   5260   5277     1
   5260   5269     1
   5260   5270     1
   5261   5277     1
   5261   5269     1
   5261   5270     1
   5263   9929     1
   5263   5275     1
   5263   5276     1
   5264   9929     1
   5264   5275     1
   5264   5276     1
   5266   9906     1
   5266   5272     1
   5266   5273     1
   5267   9906     1
   5267   5272     1
   5267   5273     1
   5271   9905     1
   5272   9902     1
   5273   9902     1
   5274   9928     1
   5275   9925     1
   5276   9925     1
   5278   5292     1
   5278   5293     1
   5278   5295     1
   5278   5296     1
   5278   5289     1
   5278   5290     1
   5279   5283     1
   5279   5284     1
   5279   5286     1
   5279   5287     1
   5279   5304     1
   5279   5305     1
   5280   5282     1
   5280   5285     1
   5280   5303     1
   5280   5292     1
   5280   5293     1
   5281   5282     1
   5281   5285     1
   5281   5303     1
   5281   5292     1
   5281   5293     1
   5282   5286     1
   5282   5287     1
   5282   5301     1
   5282   5302     1
   5283   5285     1
   5283   5300     1
   5283   5295     1
   5283   5296     1
   5284   5285     1
   5284   5300     1
   5284   5295     1
   5284   5296     1
   5285   5298     1
   5285   5299     1
   5286   5297     1
   5286   5289     1
   5286   5290     1
   5287   5297     1
   5287   5289     1
   5287   5290     1
   5289   5306     1
   5289   5298     1
   5289   5299     1
   5290   5306     1
   5290   5298     1
   5290   5299     1
   5292   9975     1
   5292   5304     1
   5292   5305     1
   5293   9975     1
   5293   5304     1
   5293   5305     1
   5295   9952     1
   5295   5301     1
   5295   5302     1
   5296   9952     1
   5296   5301     1
   5296   5302     1
   5300   9951     1
   5301   9948     1
   5302   9948     1
   5303   9974     1
   5304   9971     1
   5305   9971     1
   5307   5321     1
   5307   5322     1
   5307   5324     1
   5307   5325     1
   5307   5318     1
   5307   5319     1
   5308   5312     1
   5308   5313     1
   5308   5315     1
   5308   5316     1
   5308   5333     1
   5308   5334     1
   5309   5311     1
   5309   5314     1
   5309   5332     1
   5309   5321     1
   5309   5322     1
   5310   5311     1
   5310   5314     1
   5310   5332     1
   5310   5321     1
   5310   5322     1
   5311   5315     1
   5311   5316     1
   5311   5330     1
   5311   5331     1
   5312   5314     1
   5312   5329     1
   5312   5324     1
   5312   5325     1
   5313   5314     1
   5313   5329     1
   5313   5324     1
   5313   5325     1
   5314   5327     1
   5314   5328     1
   5315   5326     1
   5315   5318     1
   5315   5319     1
   5316   5326     1
   5316   5318     1
   5316   5319     1
   5318   5335     1
   5318   5327     1
   5318   5328     1
   5319   5335     1
   5319   5327     1
   5319   5328     1
   5321  10021     1
   5321   5333     1
   5321   5334     1
   5322  10021     1
   5322   5333     1
   5322   5334     1
   5324   9998     1
   5324   5330     1
   5324   5331     1
   5325   9998     1
   5325   5330     1
   5325   5331     1
   5329   9997     1
   5330   9994     1
   5331   9994     1
   5332  10020     1
   5333  10017     1
   5334  10017     1
   5336   5350     1
   5336   5351     1
   5336   5353     1
   5336   5354     1
   5336   5347     1
   5336   5348     1
   5337   5341     1
   5337   5342     1
   5337   5344     1
   5337   5345     1
   5337   5362     1
   5337   5363     1
   5338   5340     1
   5338   5343     1
   5338   5361     1
   5338   5350     1
   5338   5351     1
   5339   5340     1
   5339   5343     1
   5339   5361     1
   5339   5350     1
   5339   5351     1
   5340   5344     1
   5340   5345     1
   5340   5359     1
   5340   5360     1
   5341   5343     1
   5341   5358     1
   5341   5353     1
   5341   5354     1
   5342   5343     1
   5342   5358     1
   5342   5353     1
   5342   5354     1
   5343   5356     1
   5343   5357     1
   5344   5355     1
   5344   5347     1
   5344   5348     1
   5345   5355     1
   5345   5347     1
   5345   5348     1
   5347   5364     1
   5347   5356     1
   5347   5357     1
   5348   5364     1
   5348   5356     1
   5348   5357     1
   5350  10067     1
   5350   5362     1
   5350   5363     1
   5351  10067     1
   5351   5362     1
   5351   5363     1
   5353  10044     1
   5353   5359     1
   5353   5360     1
   5354  10044     1
   5354   5359     1
   5354   5360     1
   5358  10043     1
   5359  10040     1
   5360  10040     1
   5361  10066     1
   5362  10063     1
   5363  10063     1
   5365   5379     1
   5365   5380     1
   5365   5382     1
   5365   5383     1
   5365   5376     1
   5365   5377     1
   5366   5370     1
   5366   5371     1
   5366   5373     1
   5366   5374     1
   5366   5391     1
   5366   5392     1
   5367   5369     1
   5367   5372     1
   5367   5390     1
   5367   5379     1
   5367   5380     1
   5368   5369     1
   5368   5372     1
   5368   5390     1
   5368   5379     1
   5368   5380     1
   5369   5373     1
   5369   5374     1
   5369   5388     1
   5369   5389     1
   5370   5372     1
   5370   5387     1
   5370   5382     1
   5370   5383     1
   5371   5372     1
   5371   5387     1
   5371   5382     1
   5371   5383     1
   5372   5385     1
   5372   5386     1
   5373   5384     1
   5373   5376     1
   5373   5377     1
   5374   5384     1
   5374   5376     1
   5374   5377     1
   5376   5393     1
   5376   5385     1
   5376   5386     1
   5377   5393     1
   5377   5385     1
   5377   5386     1
   5379  10113     1
   5379   5391     1
   5379   5392     1
   5380  10113     1
   5380   5391     1
   5380   5392     1
   5382  10090     1
   5382   5388     1
   5382   5389     1
   5383  10090     1
   5383   5388     1
   5383   5389     1
   5387  10089     1
   5388  10086     1
   5389  10086     1
   5390  10112     1
   5391  10109     1
   5392  10109     1
   5394   5408     1
   5394   5409     1
   5394   5411     1
   5394   5412     1
   5394   5405     1
   5394   5406     1
   5395   5399     1
   5395   5400     1
   5395   5402     1
   5395   5403     1
   5395   5420     1
   5395   5421     1
   5396   5398     1
   5396   5401     1
   5396   5419     1
   5396   5408     1
   5396   5409     1
   5397   5398     1
   5397   5401     1
   5397   5419     1
   5397   5408     1
   5397   5409     1
   5398   5402     1
   5398   5403     1
   5398   5417     1
   5398   5418     1
   5399   5401     1
   5399   5416     1
   5399   5411     1
   5399   5412     1
   5400   5401     1
   5400   5416     1
   5400   5411     1
   5400   5412     1
   5401   5414     1
   5401   5415     1
   5402   5413     1
   5402   5405     1
   5402   5406     1
   5403   5413     1
   5403   5405     1
   5403   5406     1
   5405   5422     1
   5405   5414     1
   5405   5415     1
   5406   5422     1
   5406   5414     1
   5406   5415     1
   5408  10159     1
   5408   5420     1
   5408   5421     1
   5409  10159     1
   5409   5420     1
   5409   5421     1
   5411  10136     1
   5411   5417     1
   5411   5418     1
   5412  10136     1
   5412   5417     1
   5412   5418     1
   5416  10135     1
   5417  10132     1
   5418  10132     1
   5419  10158     1
   5420  10155     1
   5421  10155     1
   5423   5437     1
   5423   5438     1
   5423   5440     1
   5423   5441     1
   5423   5434     1
   5423   5435     1
   5424   5428     1
   5424   5429     1
   5424   5431     1
   5424   5432     1
   5424   5449     1
   5424   5450     1
   5425   5427     1
   5425   5430     1
   5425   5448     1
   5425   5437     1
   5425   5438     1
   5426   5427     1
   5426   5430     1
   5426   5448     1
   5426   5437     1
   5426   5438     1
   5427   5431     1
   5427   5432     1
   5427   5446     1
   5427   5447     1
   5428   5430     1
   5428   5445     1
   5428   5440     1
   5428   5441     1
   5429   5430     1
   5429   5445     1
   5429   5440     1
   5429   5441     1
   5430   5443     1
   5430   5444     1
   5431   5442     1
   5431   5434     1
   5431   5435     1
   5432   5442     1
   5432   5434     1
   5432   5435     1
   5434   5451     1
   5434   5443     1
   5434   5444     1
   5435   5451     1
   5435   5443     1
   5435   5444     1
   5437  10205     1
   5437   5449     1
   5437   5450     1
   5438  10205     1
   5438   5449     1
   5438   5450     1
   5440  10182     1
   5440   5446     1
   5440   5447     1
   5441  10182     1
   5441   5446     1
   5441   5447     1
   5445  10181     1
   5446  10178     1
   5447  10178     1
   5448  10204     1
   5449  10201     1
   5450  10201     1
   5452   5466     1
   5452   5467     1
   5452   5469     1
   5452   5470     1
   5452   5463     1
   5452   5464     1
   5453   5457     1
   5453   5458     1
   5453   5460     1
   5453   5461     1
   5453   5478     1
   5453   5479     1
   5454   5456     1
   5454   5459     1
   5454   5477     1
   5454   5466     1
   5454   5467     1
   5455   5456     1
   5455   5459     1
   5455   5477     1
   5455   5466     1
   5455   5467     1
   5456   5460     1
   5456   5461     1
   5456   5475     1
   5456   5476     1
   5457   5459     1
   5457   5474     1
   5457   5469     1
   5457   5470     1
   5458   5459     1
   5458   5474     1
   5458   5469     1
   5458   5470     1
   5459   5472     1
   5459   5473     1
   5460   5471     1
   5460   5463     1
   5460   5464     1
   5461   5471     1
   5461   5463     1
   5461   5464     1
   5463   5480     1
   5463   5472     1
   5463   5473     1
   5464   5480     1
   5464   5472     1
   5464   5473     1
   5466  10251     1
   5466   5478     1
   5466   5479     1
   5467  10251     1
   5467   5478     1
   5467   5479     1
   5469  10228     1
   5469   5475     1
   5469   5476     1
   5470  10228     1
   5470   5475     1
   5470   5476     1
   5474  10227     1
   5475  10224     1
   5476  10224     1
   5477  10250     1
   5478  10247     1
   5479  10247     1
   5481   5495     1
   5481   5496     1
   5481   5498     1
   5481   5499     1
   5481   5492     1
   5481   5493     1
   5482   5486     1
   5482   5487     1
   5482   5489     1
   5482   5490     1
   5482   5507     1
   5482   5508     1
   5483   5485     1
   5483   5488     1
   5483   5506     1
   5483   5495     1
   5483   5496     1
   5484   5485     1
   5484   5488     1
   5484   5506     1
   5484   5495     1
   5484   5496     1
   5485   5489     1
   5485   5490     1
   5485   5504     1
   5485   5505     1
   5486   5488     1
   5486   5503     1
   5486   5498     1
   5486   5499     1
   5487   5488     1
   5487   5503     1
   5487   5498     1
   5487   5499     1
   5488   5501     1
   5488   5502     1
   5489   5500     1
   5489   5492     1
   5489   5493     1
   5490   5500     1
   5490   5492     1
   5490   5493     1
   5492   5509     1
   5492   5501     1
   5492   5502     1
   5493   5509     1
   5493   5501     1
   5493   5502     1
   5495  10297     1
   5495   5507     1
   5495   5508     1
   5496  10297     1
   5496   5507     1
   5496   5508     1
   5498  10274     1
   5498   5504     1
   5498   5505     1
   5499  10274     1
   5499   5504     1
   5499   5505     1
   5503  10273     1
   5504  10270     1
   5505  10270     1
   5506  10296     1
   5507  10293     1
   5508  10293     1
   5510   5524     1
   5510   5525     1
   5510   5527     1
   5510   5528     1
   5510   5521     1
   5510   5522     1
   5511   5515     1
   5511   5516     1
   5511   5518     1
   5511   5519     1
   5511   5536     1
   5511   5537     1
   5512   5514     1
   5512   5517     1
   5512   5535     1
   5512   5524     1
   5512   5525     1
   5513   5514     1
   5513   5517     1
   5513   5535     1
   5513   5524     1
   5513   5525     1
   5514   5518     1
   5514   5519     1
   5514   5533     1
   5514   5534     1
   5515   5517     1
   5515   5532     1
   5515   5527     1
   5515   5528     1
   5516   5517     1
   5516   5532     1
   5516   5527     1
   5516   5528     1
   5517   5530     1
   5517   5531     1
   5518   5529     1
   5518   5521     1
   5518   5522     1
   5519   5529     1
   5519   5521     1
   5519   5522     1
   5521   5538     1
   5521   5530     1
   5521   5531     1
   5522   5538     1
   5522   5530     1
   5522   5531     1
   5524  10343     1
   5524   5536     1
   5524   5537     1
   5525  10343     1
   5525   5536     1
   5525   5537     1
   5527  10320     1
   5527   5533     1
   5527   5534     1
   5528  10320     1
   5528   5533     1
   5528   5534     1
   5532  10319     1
   5533  10316     1
   5534  10316     1
   5535  10342     1
   5536  10339     1
   5537  10339     1
   5539   5553     1
   5539   5554     1
   5539   5556     1
   5539   5557     1
   5539   5550     1
   5539   5551     1
   5540   5544     1
   5540   5545     1
   5540   5547     1
   5540   5548     1
   5540   5565     1
   5540   5566     1
   5541   5543     1
   5541   5546     1
   5541   5564     1
   5541   5553     1
   5541   5554     1
   5542   5543     1
   5542   5546     1
   5542   5564     1
   5542   5553     1
   5542   5554     1
   5543   5547     1
   5543   5548     1
   5543   5562     1
   5543   5563     1
   5544   5546     1
   5544   5561     1
   5544   5556     1
   5544   5557     1
   5545   5546     1
   5545   5561     1
   5545   5556     1
   5545   5557     1
   5546   5559     1
   5546   5560     1
   5547   5558     1
   5547   5550     1
   5547   5551     1
   5548   5558     1
   5548   5550     1
   5548   5551     1
   5550   5567     1
   5550   5559     1
   5550   5560     1
   5551   5567     1
   5551   5559     1
   5551   5560     1
   5553  10389     1
   5553   5565     1
   5553   5566     1
   5554  10389     1
   5554   5565     1
   5554   5566     1
   5556  10366     1
   5556   5562     1
   5556   5563     1
   5557  10366     1
   5557   5562     1
   5557   5563     1
   5561  10365     1
   5562  10362     1
   5563  10362     1
   5564  10388     1
   5565  10385     1
   5566  10385     1
   5568   5582     1
   5568   5583     1
   5568   5585     1
   5568   5586     1
   5568   5579     1
   5568   5580     1
   5569   5573     1
   5569   5574     1
   5569   5576     1
   5569   5577     1
   5569   5594     1
   5569   5595     1
   5570   5572     1
   5570   5575     1
   5570   5593     1
   5570   5582     1
   5570   5583     1
   5571   5572     1
   5571   5575     1
   5571   5593     1
   5571   5582     1
   5571   5583     1
   5572   5576     1
   5572   5577     1
   5572   5591     1
   5572   5592     1
   5573   5575     1
   5573   5590     1
   5573   5585     1
   5573   5586     1
   5574   5575     1
   5574   5590     1
   5574   5585     1
   5574   5586     1
   5575   5588     1
   5575   5589     1
   5576   5587     1
   5576   5579     1
   5576   5580     1
   5577   5587     1
   5577   5579     1
   5577   5580     1
   5579   5596     1
   5579   5588     1
   5579   5589     1
   5580   5596     1
   5580   5588     1
   5580   5589     1
   5582  10435     1
   5582   5594     1
   5582   5595     1
   5583  10435     1
   5583   5594     1
   5583   5595     1
   5585  10412     1
   5585   5591     1
   5585   5592     1
   5586  10412     1
   5586   5591     1
   5586   5592     1
   5590  10411     1
   5591  10408     1
   5592  10408     1
   5593  10434     1
   5594  10431     1
   5595  10431     1
   5597   5611     1
   5597   5612     1
   5597   5614     1
   5597   5615     1
   5597   5608     1
   5597   5609     1
   5598   5602     1
   5598   5603     1
   5598   5605     1
   5598   5606     1
   5598   5623     1
   5598   5624     1
   5599   5601     1
   5599   5604     1
   5599   5622     1
   5599   5611     1
   5599   5612     1
   5600   5601     1
   5600   5604     1
   5600   5622     1
   5600   5611     1
   5600   5612     1
   5601   5605     1
   5601   5606     1
   5601   5620     1
   5601   5621     1
   5602   5604     1
   5602   5619     1
   5602   5614     1
   5602   5615     1
   5603   5604     1
   5603   5619     1
   5603   5614     1
   5603   5615     1
   5604   5617     1
   5604   5618     1
   5605   5616     1
   5605   5608     1
   5605   5609     1
   5606   5616     1
   5606   5608     1
   5606   5609     1
   5608   5625     1
   5608   5617     1
   5608   5618     1
   5609   5625     1
   5609   5617     1
   5609   5618     1
   5611  10481     1
   5611   5623     1
   5611   5624     1
   5612  10481     1
   5612   5623     1
   5612   5624     1
   5614  10458     1
   5614   5620     1
   5614   5621     1
   5615  10458     1
   5615   5620     1
   5615   5621     1
   5619  10457     1
   5620  10454     1
   5621  10454     1
   5622  10480     1
   5623  10477     1
   5624  10477     1
   5626   5640     1
   5626   5641     1
   5626   5643     1
   5626   5644     1
   5626   5637     1
   5626   5638     1
   5627   5631     1
   5627   5632     1
   5627   5634     1
   5627   5635     1
   5627   5652     1
   5627   5653     1
   5628   5630     1
   5628   5633     1
   5628   5651     1
   5628   5640     1
   5628   5641     1
   5629   5630     1
   5629   5633     1
   5629   5651     1
   5629   5640     1
   5629   5641     1
   5630   5634     1
   5630   5635     1
   5630   5649     1
   5630   5650     1
   5631   5633     1
   5631   5648     1
   5631   5643     1
   5631   5644     1
   5632   5633     1
   5632   5648     1
   5632   5643     1
   5632   5644     1
   5633   5646     1
   5633   5647     1
   5634   5645     1
   5634   5637     1
   5634   5638     1
   5635   5645     1
   5635   5637     1
   5635   5638     1
   5637   5654     1
   5637   5646     1
   5637   5647     1
   5638   5654     1
   5638   5646     1
   5638   5647     1
   5640  10527     1
   5640   5652     1
   5640   5653     1
   5641  10527     1
   5641   5652     1
   5641   5653     1
   5643  10504     1
   5643   5649     1
   5643   5650     1
   5644  10504     1
   5644   5649     1
   5644   5650     1
   5648  10503     1
   5649  10500     1
   5650  10500     1
   5651  10526     1
   5652  10523     1
   5653  10523     1
   5655   5669     1
   5655   5670     1
   5655   5672     1
   5655   5673     1
   5655   5666     1
   5655   5667     1
   5656   5660     1
   5656   5661     1
   5656   5663     1
   5656   5664     1
   5656   5681     1
   5656   5682     1
   5657   5659     1
   5657   5662     1
   5657   5680     1
   5657   5669     1
   5657   5670     1
   5658   5659     1
   5658   5662     1
   5658   5680     1
   5658   5669     1
   5658   5670     1
   5659   5663     1
   5659   5664     1
   5659   5678     1
   5659   5679     1
   5660   5662     1
   5660   5677     1
   5660   5672     1
   5660   5673     1
   5661   5662     1
   5661   5677     1
   5661   5672     1
   5661   5673     1
   5662   5675     1
   5662   5676     1
   5663   5674     1
   5663   5666     1
   5663   5667     1
   5664   5674     1
   5664   5666     1
   5664   5667     1
   5666   5683     1
   5666   5675     1
   5666   5676     1
   5667   5683     1
   5667   5675     1
   5667   5676     1
   5669  10573     1
   5669   5681     1
   5669   5682     1
   5670  10573     1
   5670   5681     1
   5670   5682     1
   5672  10550     1
   5672   5678     1
   5672   5679     1
   5673  10550     1
   5673   5678     1
   5673   5679     1
   5677  10549     1
   5678  10546     1
   5679  10546     1
   5680  10572     1
   5681  10569     1
   5682  10569     1
   5684   5698     1
   5684   5699     1
   5684   5701     1
   5684   5702     1
   5684   5695     1
   5684   5696     1
   5685   5689     1
   5685   5690     1
   5685   5692     1
   5685   5693     1
   5685   5710     1
   5685   5711     1
   5686   5688     1
   5686   5691     1
   5686   5709     1
   5686   5698     1
   5686   5699     1
   5687   5688     1
   5687   5691     1
   5687   5709     1
   5687   5698     1
   5687   5699     1
   5688   5692     1
   5688   5693     1
   5688   5707     1
   5688   5708     1
   5689   5691     1
   5689   5706     1
   5689   5701     1
   5689   5702     1
   5690   5691     1
   5690   5706     1
   5690   5701     1
   5690   5702     1
   5691   5704     1
   5691   5705     1
   5692   5703     1
   5692   5695     1
   5692   5696     1
   5693   5703     1
   5693   5695     1
   5693   5696     1
   5695   5712     1
   5695   5704     1
   5695   5705     1
   5696   5712     1
   5696   5704     1
   5696   5705     1
   5698  10619     1
   5698   5710     1
   5698   5711     1
   5699  10619     1
   5699   5710     1
   5699   5711     1
   5701  10596     1
   5701   5707     1
   5701   5708     1
   5702  10596     1
   5702   5707     1
   5702   5708     1
   5706  10595     1
   5707  10592     1
   5708  10592     1
   5709  10618     1
   5710  10615     1
   5711  10615     1
   5713   5727     1
   5713   5728     1
   5713   5730     1
   5713   5731     1
   5713   5724     1
   5713   5725     1
   5714   5718     1
   5714   5719     1
   5714   5721     1
   5714   5722     1
   5714   5739     1
   5714   5740     1
   5715   5717     1
   5715   5720     1
   5715   5738     1
   5715   5727     1
   5715   5728     1
   5716   5717     1
   5716   5720     1
   5716   5738     1
   5716   5727     1
   5716   5728     1
   5717   5721     1
   5717   5722     1
   5717   5736     1
   5717   5737     1
   5718   5720     1
   5718   5735     1
   5718   5730     1
   5718   5731     1
   5719   5720     1
   5719   5735     1
   5719   5730     1
   5719   5731     1
   5720   5733     1
   5720   5734     1
   5721   5732     1
   5721   5724     1
   5721   5725     1
   5722   5732     1
   5722   5724     1
   5722   5725     1
   5724   5741     1
   5724   5733     1
   5724   5734     1
   5725   5741     1
   5725   5733     1
   5725   5734     1
   5727  10665     1
   5727   5739     1
   5727   5740     1
   5728  10665     1
   5728   5739     1
   5728   5740     1
   5730  10642     1
   5730   5736     1
   5730   5737     1
   5731  10642     1
   5731   5736     1
   5731   5737     1
   5735  10641     1
   5736  10638     1
   5737  10638     1
   5738  10664     1
   5739  10661     1
   5740  10661     1
   5742   5756     1
   5742   5757     1
   5742   5759     1
   5742   5760     1
   5742   5753     1
   5742   5754     1
   5743   5747     1
   5743   5748     1
   5743   5750     1
   5743   5751     1
   5743   5768     1
   5743   5769     1
   5744   5746     1
   5744   5749     1
   5744   5767     1
   5744   5756     1
   5744   5757     1
   5745   5746     1
   5745   5749     1
   5745   5767     1
   5745   5756     1
   5745   5757     1
   5746   5750     1
   5746   5751     1
   5746   5765     1
   5746   5766     1
   5747   5749     1
   5747   5764     1
   5747   5759     1
   5747   5760     1
   5748   5749     1
   5748   5764     1
   5748   5759     1
   5748   5760     1
   5749   5762     1
   5749   5763     1
   5750   5761     1
   5750   5753     1
   5750   5754     1
   5751   5761     1
   5751   5753     1
   5751   5754     1
   5753   5770     1
   5753   5762     1
   5753   5763     1
   5754   5770     1
   5754   5762     1
   5754   5763     1
   5756  10711     1
   5756   5768     1
   5756   5769     1
   5757  10711     1
   5757   5768     1
   5757   5769     1
   5759  10688     1
   5759   5765     1
   5759   5766     1
   5760  10688     1
   5760   5765     1
   5760   5766     1
   5764  10687     1
   5765  10684     1
   5766  10684     1
   5767  10710     1
   5768  10707     1
   5769  10707     1
   5771   5785     1
   5771   5786     1
   5771   5788     1
   5771   5789     1
   5771   5782     1
   5771   5783     1
   5772   5776     1
   5772   5777     1
   5772   5779     1
   5772   5780     1
   5772   5797     1
   5772   5798     1
   5773   5775     1
   5773   5778     1
   5773   5796     1
   5773   5785     1
   5773   5786     1
   5774   5775     1
   5774   5778     1
   5774   5796     1
   5774   5785     1
   5774   5786     1
   5775   5779     1
   5775   5780     1
   5775   5794     1
   5775   5795     1
   5776   5778     1
   5776   5793     1
   5776   5788     1
   5776   5789     1
   5777   5778     1
   5777   5793     1
   5777   5788     1
   5777   5789     1
   5778   5791     1
   5778   5792     1
   5779   5790     1
   5779   5782     1
   5779   5783     1
   5780   5790     1
   5780   5782     1
   5780   5783     1
   5782   5799     1
   5782   5791     1
   5782   5792     1
   5783   5799     1
   5783   5791     1
   5783   5792     1
   5785  10757     1
   5785   5797     1
   5785   5798     1
   5786  10757     1
   5786   5797     1
   5786   5798     1
   5788  10734     1
   5788   5794     1
   5788   5795     1
   5789  10734     1
   5789   5794     1
   5789   5795     1
   5793  10733     1
   5794  10730     1
   5795  10730     1
   5796  10756     1
   5797  10753     1
   5798  10753     1
   5800   5814     1
   5800   5815     1
   5800   5817     1
   5800   5818     1
   5800   5811     1
   5800   5812     1
   5801   5805     1
   5801   5806     1
   5801   5808     1
   5801   5809     1
   5801   5826     1
   5801   5827     1
   5802   5804     1
   5802   5807     1
   5802   5825     1
   5802   5814     1
   5802   5815     1
   5803   5804     1
   5803   5807     1
   5803   5825     1
   5803   5814     1
   5803   5815     1
   5804   5808     1
   5804   5809     1
   5804   5823     1
   5804   5824     1
   5805   5807     1
   5805   5822     1
   5805   5817     1
   5805   5818     1
   5806   5807     1
   5806   5822     1
   5806   5817     1
   5806   5818     1
   5807   5820     1
   5807   5821     1
   5808   5819     1
   5808   5811     1
   5808   5812     1
   5809   5819     1
   5809   5811     1
   5809   5812     1
   5811   5828     1
   5811   5820     1
   5811   5821     1
   5812   5828     1
   5812   5820     1
   5812   5821     1
   5814  10803     1
   5814   5826     1
   5814   5827     1
   5815  10803     1
   5815   5826     1
   5815   5827     1
   5817  10780     1
   5817   5823     1
   5817   5824     1
   5818  10780     1
   5818   5823     1
   5818   5824     1
   5822  10779     1
   5823  10776     1
   5824  10776     1
   5825  10802     1
   5826  10799     1
   5827  10799     1
   5829   5843     1
   5829   5844     1
   5829   5846     1
   5829   5847     1
   5829   5840     1
   5829   5841     1
   5830   5834     1
   5830   5835     1
   5830   5837     1
   5830   5838     1
   5830   5855     1
   5830   5856     1
   5831   5833     1
   5831   5836     1
   5831   5854     1
   5831   5843     1
   5831   5844     1
   5832   5833     1
   5832   5836     1
   5832   5854     1
   5832   5843     1
   5832   5844     1
   5833   5837     1
   5833   5838     1
   5833   5852     1
   5833   5853     1
   5834   5836     1
   5834   5851     1
   5834   5846     1
   5834   5847     1
   5835   5836     1
   5835   5851     1
   5835   5846     1
   5835   5847     1
   5836   5849     1
   5836   5850     1
   5837   5848     1
   5837   5840     1
   5837   5841     1
   5838   5848     1
   5838   5840     1
   5838   5841     1
   5840   5857     1
   5840   5849     1
   5840   5850     1
   5841   5857     1
   5841   5849     1
   5841   5850     1
   5843  10849     1
   5843   5855     1
   5843   5856     1
   5844  10849     1
   5844   5855     1
   5844   5856     1
   5846  10826     1
   5846   5852     1
   5846   5853     1
   5847  10826     1
   5847   5852     1
   5847   5853     1
   5851  10825     1
   5852  10822     1
   5853  10822     1
   5854  10848     1
   5855  10845     1
   5856  10845     1
   5858   5872     1
   5858   5873     1
   5858   5875     1
   5858   5876     1
   5858   5869     1
   5858   5870     1
   5859   5863     1
   5859   5864     1
   5859   5866     1
   5859   5867     1
   5859   5884     1
   5859   5885     1
   5860   5862     1
   5860   5865     1
   5860   5883     1
   5860   5872     1
   5860   5873     1
   5861   5862     1
   5861   5865     1
   5861   5883     1
   5861   5872     1
   5861   5873     1
   5862   5866     1
   5862   5867     1
   5862   5881     1
   5862   5882     1
   5863   5865     1
   5863   5880     1
   5863   5875     1
   5863   5876     1
   5864   5865     1
   5864   5880     1
   5864   5875     1
   5864   5876     1
   5865   5878     1
   5865   5879     1
   5866   5877     1
   5866   5869     1
   5866   5870     1
   5867   5877     1
   5867   5869     1
   5867   5870     1
   5869   5886     1
   5869   5878     1
   5869   5879     1
   5870   5886     1
   5870   5878     1
   5870   5879     1
   5872  10895     1
   5872   5884     1
   5872   5885     1
   5873  10895     1
   5873   5884     1
   5873   5885     1
   5875  10872     1
   5875   5881     1
   5875   5882     1
   5876  10872     1
   5876   5881     1
   5876   5882     1
   5880  10871     1
   5881  10868     1
   5882  10868     1
   5883  10894     1
   5884  10891     1
   5885  10891     1
   5887   5901     1
   5887   5902     1
   5887   5904     1
   5887   5905     1
   5887   5898     1
   5887   5899     1
   5888   5892     1
   5888   5893     1
   5888   5895     1
   5888   5896     1
   5888   5913     1
   5888   5914     1
   5889   5891     1
   5889   5894     1
   5889   5912     1
   5889   5901     1
   5889   5902     1
   5890   5891     1
   5890   5894     1
   5890   5912     1
   5890   5901     1
   5890   5902     1
   5891   5895     1
   5891   5896     1
   5891   5910     1
   5891   5911     1
   5892   5894     1
   5892   5909     1
   5892   5904     1
   5892   5905     1
   5893   5894     1
   5893   5909     1
   5893   5904     1
   5893   5905     1
   5894   5907     1
   5894   5908     1
   5895   5906     1
   5895   5898     1
   5895   5899     1
   5896   5906     1
   5896   5898     1
   5896   5899     1
   5898   5915     1
   5898   5907     1
   5898   5908     1
   5899   5915     1
   5899   5907     1
   5899   5908     1
   5901  10941     1
   5901   5913     1
   5901   5914     1
   5902  10941     1
   5902   5913     1
   5902   5914     1
   5904  10918     1
   5904   5910     1
   5904   5911     1
   5905  10918     1
   5905   5910     1
   5905   5911     1
   5909  10917     1
   5910  10914     1
   5911  10914     1
   5912  10940     1
   5913  10937     1
   5914  10937     1
   5916   5930     1
   5916   5931     1
   5916   5933     1
   5916   5934     1
   5916   5927     1
   5916   5928     1
   5917   5921     1
   5917   5922     1
   5917   5924     1
   5917   5925     1
   5917   5942     1
   5917   5943     1
   5918   5920     1
   5918   5923     1
   5918   5941     1
   5918   5930     1
   5918   5931     1
   5919   5920     1
   5919   5923     1
   5919   5941     1
   5919   5930     1
   5919   5931     1
   5920   5924     1
   5920   5925     1
   5920   5939     1
   5920   5940     1
   5921   5923     1
   5921   5938     1
   5921   5933     1
   5921   5934     1
   5922   5923     1
   5922   5938     1
   5922   5933     1
   5922   5934     1
   5923   5936     1
   5923   5937     1
   5924   5935     1
   5924   5927     1
   5924   5928     1
   5925   5935     1
   5925   5927     1
   5925   5928     1
   5927   5944     1
   5927   5936     1
   5927   5937     1
   5928   5944     1
   5928   5936     1
   5928   5937     1
   5930  10987     1
   5930   5942     1
   5930   5943     1
   5931  10987     1
   5931   5942     1
   5931   5943     1
   5933  10964     1
   5933   5939     1
   5933   5940     1
   5934  10964     1
   5934   5939     1
   5934   5940     1
   5938  10963     1
   5939  10960     1
   5940  10960     1
   5941  10986     1
   5942  10983     1
   5943  10983     1
   5945   5959     1
   5945   5960     1
   5945   5962     1
   5945   5963     1
   5945   5956     1
   5945   5957     1
   5946   5950     1
   5946   5951     1
   5946   5953     1
   5946   5954     1
   5946   5971     1
   5946   5972     1
   5947   5949     1
   5947   5952     1
   5947   5970     1
   5947   5959     1
   5947   5960     1
   5948   5949     1
   5948   5952     1
   5948   5970     1
   5948   5959     1
   5948   5960     1
   5949   5953     1
   5949   5954     1
   5949   5968     1
   5949   5969     1
   5950   5952     1
   5950   5967     1
   5950   5962     1
   5950   5963     1
   5951   5952     1
   5951   5967     1
   5951   5962     1
   5951   5963     1
   5952   5965     1
   5952   5966     1
   5953   5964     1
   5953   5956     1
   5953   5957     1
   5954   5964     1
   5954   5956     1
   5954   5957     1
   5956   5973     1
   5956   5965     1
   5956   5966     1
   5957   5973     1
   5957   5965     1
   5957   5966     1
   5959  11033     1
   5959   5971     1
   5959   5972     1
   5960  11033     1
   5960   5971     1
   5960   5972     1
   5962  11010     1
   5962   5968     1
   5962   5969     1
   5963  11010     1
   5963   5968     1
   5963   5969     1
   5967  11009     1
   5968  11006     1
   5969  11006     1
   5970  11032     1
   5971  11029     1
   5972  11029     1
   5974   5988     1
   5974   5989     1
   5974   5991     1
   5974   5992     1
   5974   5985     1
   5974   5986     1
   5975   5979     1
   5975   5980     1
   5975   5982     1
   5975   5983     1
   5975   6000     1
   5975   6001     1
   5976   5978     1
   5976   5981     1
   5976   5999     1
   5976   5988     1
   5976   5989     1
   5977   5978     1
   5977   5981     1
   5977   5999     1
   5977   5988     1
   5977   5989     1
   5978   5982     1
   5978   5983     1
   5978   5997     1
   5978   5998     1
   5979   5981     1
   5979   5996     1
   5979   5991     1
   5979   5992     1
   5980   5981     1
   5980   5996     1
   5980   5991     1
   5980   5992     1
   5981   5994     1
   5981   5995     1
   5982   5993     1
   5982   5985     1
   5982   5986     1
   5983   5993     1
   5983   5985     1
   5983   5986     1
   5985   6002     1
   5985   5994     1
   5985   5995     1
   5986   6002     1
   5986   5994     1
   5986   5995     1
   5988  11079     1
   5988   6000     1
   5988   6001     1
   5989  11079     1
   5989   6000     1
   5989   6001     1
   5991  11056     1
   5991   5997     1
   5991   5998     1
   5992  11056     1
   5992   5997     1
   5992   5998     1
   5996  11055     1
   5997  11052     1
   5998  11052     1
   5999  11078     1
   6000  11075     1
   6001  11075     1
   6003   6017     1
   6003   6018     1
   6003   6020     1
   6003   6021     1
   6003   6014     1
   6003   6015     1
   6004   6008     1
   6004   6009     1
   6004   6011     1
   6004   6012     1
   6004   6029     1
   6004   6030     1
   6005   6007     1
   6005   6010     1
   6005   6028     1
   6005   6017     1
   6005   6018     1
   6006   6007     1
   6006   6010     1
   6006   6028     1
   6006   6017     1
   6006   6018     1
   6007   6011     1
   6007   6012     1
   6007   6026     1
   6007   6027     1
   6008   6010     1
   6008   6025     1
   6008   6020     1
   6008   6021     1
   6009   6010     1
   6009   6025     1
   6009   6020     1
   6009   6021     1
   6010   6023     1
   6010   6024     1
   6011   6022     1
   6011   6014     1
   6011   6015     1
   6012   6022     1
   6012   6014     1
   6012   6015     1
   6014   6031     1
   6014   6023     1
   6014   6024     1
   6015   6031     1
   6015   6023     1
   6015   6024     1
   6017  11125     1
   6017   6029     1
   6017   6030     1
   6018  11125     1
   6018   6029     1
   6018   6030     1
   6020  11102     1
   6020   6026     1
   6020   6027     1
   6021  11102     1
   6021   6026     1
   6021   6027     1
   6025  11101     1
   6026  11098     1
   6027  11098     1
   6028  11124     1
   6029  11121     1
   6030  11121     1
   6032   6046     1
   6032   6047     1
   6032   6049     1
   6032   6050     1
   6032   6043     1
   6032   6044     1
   6033   6037     1
   6033   6038     1
   6033   6040     1
   6033   6041     1
   6033   6058     1
   6033   6059     1
   6034   6036     1
   6034   6039     1
   6034   6057     1
   6034   6046     1
   6034   6047     1
   6035   6036     1
   6035   6039     1
   6035   6057     1
   6035   6046     1
   6035   6047     1
   6036   6040     1
   6036   6041     1
   6036   6055     1
   6036   6056     1
   6037   6039     1
   6037   6054     1
   6037   6049     1
   6037   6050     1
   6038   6039     1
   6038   6054     1
   6038   6049     1
   6038   6050     1
   6039   6052     1
   6039   6053     1
   6040   6051     1
   6040   6043     1
   6040   6044     1
   6041   6051     1
   6041   6043     1
   6041   6044     1
   6043   6060     1
   6043   6052     1
   6043   6053     1
   6044   6060     1
   6044   6052     1
   6044   6053     1
   6046  11171     1
   6046   6058     1
   6046   6059     1
   6047  11171     1
   6047   6058     1
   6047   6059     1
   6049  11148     1
   6049   6055     1
   6049   6056     1
   6050  11148     1
   6050   6055     1
   6050   6056     1
   6054  11147     1
   6055  11144     1
   6056  11144     1
   6057  11170     1
   6058  11167     1
   6059  11167     1
   6061   6075     1
   6061   6076     1
   6061   6078     1
   6061   6079     1
   6061   6072     1
   6061   6073     1
   6062   6066     1
   6062   6067     1
   6062   6069     1
   6062   6070     1
   6062   6087     1
   6062   6088     1
   6063   6065     1
   6063   6068     1
   6063   6086     1
   6063   6075     1
   6063   6076     1
   6064   6065     1
   6064   6068     1
   6064   6086     1
   6064   6075     1
   6064   6076     1
   6065   6069     1
   6065   6070     1
   6065   6084     1
   6065   6085     1
   6066   6068     1
   6066   6083     1
   6066   6078     1
   6066   6079     1
   6067   6068     1
   6067   6083     1
   6067   6078     1
   6067   6079     1
   6068   6081     1
   6068   6082     1
   6069   6080     1
   6069   6072     1
   6069   6073     1
   6070   6080     1
   6070   6072     1
   6070   6073     1
   6072   6089     1
   6072   6081     1
   6072   6082     1
   6073   6089     1
   6073   6081     1
   6073   6082     1
   6075  11217     1
   6075   6087     1
   6075   6088     1
   6076  11217     1
   6076   6087     1
   6076   6088     1
   6078  11194     1
   6078   6084     1
   6078   6085     1
   6079  11194     1
   6079   6084     1
   6079   6085     1
   6083  11193     1
   6084  11190     1
   6085  11190     1
   6086  11216     1
   6087  11213     1
   6088  11213     1
   6090   6104     1
   6090   6105     1
   6090   6107     1
   6090   6108     1
   6090   6101     1
   6090   6102     1
   6091   6095     1
   6091   6096     1
   6091   6098     1
   6091   6099     1
   6091   6116     1
   6091   6117     1
   6092   6094     1
   6092   6097     1
   6092   6115     1
   6092   6104     1
   6092   6105     1
   6093   6094     1
   6093   6097     1
   6093   6115     1
   6093   6104     1
   6093   6105     1
   6094   6098     1
   6094   6099     1
   6094   6113     1
   6094   6114     1
   6095   6097     1
   6095   6112     1
   6095   6107     1
   6095   6108     1
   6096   6097     1
   6096   6112     1
   6096   6107     1
   6096   6108     1
   6097   6110     1
   6097   6111     1
   6098   6109     1
   6098   6101     1
   6098   6102     1
   6099   6109     1
   6099   6101     1
   6099   6102     1
   6101   6118     1
   6101   6110     1
   6101   6111     1
   6102   6118     1
   6102   6110     1
   6102   6111     1
   6104  11263     1
   6104   6116     1
   6104   6117     1
   6105  11263     1
   6105   6116     1
   6105   6117     1
   6107  11240     1
   6107   6113     1
   6107   6114     1
   6108  11240     1
   6108   6113     1
   6108   6114     1
   6112  11239     1
   6113  11236     1
   6114  11236     1
   6115  11262     1
   6116  11259     1
   6117  11259     1
   6119   6133     1
   6119   6134     1
   6119   6136     1
   6119   6137     1
   6119   6130     1
   6119   6131     1
   6120   6124     1
   6120   6125     1
   6120   6127     1
   6120   6128     1
   6120   6145     1
   6120   6146     1
   6121   6123     1
   6121   6126     1
   6121   6144     1
   6121   6133     1
   6121   6134     1
   6122   6123     1
   6122   6126     1
   6122   6144     1
   6122   6133     1
   6122   6134     1
   6123   6127     1
   6123   6128     1
   6123   6142     1
   6123   6143     1
   6124   6126     1
   6124   6141     1
   6124   6136     1
   6124   6137     1
   6125   6126     1
   6125   6141     1
   6125   6136     1
   6125   6137     1
   6126   6139     1
   6126   6140     1
   6127   6138     1
   6127   6130     1
   6127   6131     1
   6128   6138     1
   6128   6130     1
   6128   6131     1
   6130   6147     1
   6130   6139     1
   6130   6140     1
   6131   6147     1
   6131   6139     1
   6131   6140     1
   6133  11309     1
   6133   6145     1
   6133   6146     1
   6134  11309     1
   6134   6145     1
   6134   6146     1
   6136  11286     1
   6136   6142     1
   6136   6143     1
   6137  11286     1
   6137   6142     1
   6137   6143     1
   6141  11285     1
   6142  11282     1
   6143  11282     1
   6144  11308     1
   6145  11305     1
   6146  11305     1
   6148   6162     1
   6148   6163     1
   6148   6165     1
   6148   6166     1
   6148   6159     1
   6148   6160     1
   6149   6153     1
   6149   6154     1
   6149   6156     1
   6149   6157     1
   6149   6174     1
   6149   6175     1
   6150   6152     1
   6150   6155     1
   6150   6173     1
   6150   6162     1
   6150   6163     1
   6151   6152     1
   6151   6155     1
   6151   6173     1
   6151   6162     1
   6151   6163     1
   6152   6156     1
   6152   6157     1
   6152   6171     1
   6152   6172     1
   6153   6155     1
   6153   6170     1
   6153   6165     1
   6153   6166     1
   6154   6155     1
   6154   6170     1
   6154   6165     1
   6154   6166     1
   6155   6168     1
   6155   6169     1
   6156   6167     1
   6156   6159     1
   6156   6160     1
   6157   6167     1
   6157   6159     1
   6157   6160     1
   6159   6176     1
   6159   6168     1
   6159   6169     1
   6160   6176     1
   6160   6168     1
   6160   6169     1
   6162  11355     1
   6162   6174     1
   6162   6175     1
   6163  11355     1
   6163   6174     1
   6163   6175     1
   6165  11332     1
   6165   6171     1
   6165   6172     1
   6166  11332     1
   6166   6171     1
   6166   6172     1
   6170  11331     1
   6171  11328     1
   6172  11328     1
   6173  11354     1
   6174  11351     1
   6175  11351     1
   6177   6191     1
   6177   6192     1
   6177   6194     1
   6177   6195     1
   6177   6188     1
   6177   6189     1
   6178   6182     1
   6178   6183     1
   6178   6185     1
   6178   6186     1
   6178   6203     1
   6178   6204     1
   6179   6181     1
   6179   6184     1
   6179   6202     1
   6179   6191     1
   6179   6192     1
   6180   6181     1
   6180   6184     1
   6180   6202     1
   6180   6191     1
   6180   6192     1
   6181   6185     1
   6181   6186     1
   6181   6200     1
   6181   6201     1
   6182   6184     1
   6182   6199     1
   6182   6194     1
   6182   6195     1
   6183   6184     1
   6183   6199     1
   6183   6194     1
   6183   6195     1
   6184   6197     1
   6184   6198     1
   6185   6196     1
   6185   6188     1
   6185   6189     1
   6186   6196     1
   6186   6188     1
   6186   6189     1
   6188   6205     1
   6188   6197     1
   6188   6198     1
   6189   6205     1
   6189   6197     1
   6189   6198     1
   6191  11401     1
   6191   6203     1
   6191   6204     1
   6192  11401     1
   6192   6203     1
   6192   6204     1
   6194  11378     1
   6194   6200     1
   6194   6201     1
   6195  11378     1
   6195   6200     1
   6195   6201     1
   6199  11377     1
   6200  11374     1
   6201  11374     1
   6202  11400     1
   6203  11397     1
   6204  11397     1
   6206   6220     1
   6206   6221     1
   6206   6223     1
   6206   6224     1
   6206   6217     1
   6206   6218     1
   6207   6211     1
   6207   6212     1
   6207   6214     1
   6207   6215     1
   6207   6232     1
   6207   6233     1
   6208   6210     1
   6208   6213     1
   6208   6231     1
   6208   6220     1
   6208   6221     1
   6209   6210     1
   6209   6213     1
   6209   6231     1
   6209   6220     1
   6209   6221     1
   6210   6214     1
   6210   6215     1
   6210   6229     1
   6210   6230     1
   6211   6213     1
   6211   6228     1
   6211   6223     1
   6211   6224     1
   6212   6213     1
   6212   6228     1
   6212   6223     1
   6212   6224     1
   6213   6226     1
   6213   6227     1
   6214   6225     1
   6214   6217     1
   6214   6218     1
   6215   6225     1
   6215   6217     1
   6215   6218     1
   6217   6234     1
   6217   6226     1
   6217   6227     1
   6218   6234     1
   6218   6226     1
   6218   6227     1
   6220  11447     1
   6220   6232     1
   6220   6233     1
   6221  11447     1
   6221   6232     1
   6221   6233     1
   6223  11424     1
   6223   6229     1
   6223   6230     1
   6224  11424     1
   6224   6229     1
   6224   6230     1
   6228  11423     1
   6229  11420     1
   6230  11420     1
   6231  11446     1
   6232  11443     1
   6233  11443     1
   6235   6249     1
   6235   6250     1
   6235   6252     1
   6235   6253     1
   6235   6246     1
   6235   6247     1
   6236   6240     1
   6236   6241     1
   6236   6243     1
   6236   6244     1
   6236   6261     1
   6236   6262     1
   6237   6239     1
   6237   6242     1
   6237   6260     1
   6237   6249     1
   6237   6250     1
   6238   6239     1
   6238   6242     1
   6238   6260     1
   6238   6249     1
   6238   6250     1
   6239   6243     1
   6239   6244     1
   6239   6258     1
   6239   6259     1
   6240   6242     1
   6240   6257     1
   6240   6252     1
   6240   6253     1
   6241   6242     1
   6241   6257     1
   6241   6252     1
   6241   6253     1
   6242   6255     1
   6242   6256     1
   6243   6254     1
   6243   6246     1
   6243   6247     1
   6244   6254     1
   6244   6246     1
   6244   6247     1
   6246   6263     1
   6246   6255     1
   6246   6256     1
   6247   6263     1
   6247   6255     1
   6247   6256     1
   6249  11493     1
   6249   6261     1
   6249   6262     1
   6250  11493     1
   6250   6261     1
   6250   6262     1
   6252  11470     1
   6252   6258     1
   6252   6259     1
   6253  11470     1
   6253   6258     1
   6253   6259     1
   6257  11469     1
   6258  11466     1
   6259  11466     1
   6260  11492     1
   6261  11489     1
   6262  11489     1
   6264   6278     1
   6264   6279     1
   6264   6281     1
   6264   6282     1
   6264   6275     1
   6264   6276     1
   6265   6269     1
   6265   6270     1
   6265   6272     1
   6265   6273     1
   6265   6290     1
   6265   6291     1
   6266   6268     1
   6266   6271     1
   6266   6289     1
   6266   6278     1
   6266   6279     1
   6267   6268     1
   6267   6271     1
   6267   6289     1
   6267   6278     1
   6267   6279     1
   6268   6272     1
   6268   6273     1
   6268   6287     1
   6268   6288     1
   6269   6271     1
   6269   6286     1
   6269   6281     1
   6269   6282     1
   6270   6271     1
   6270   6286     1
   6270   6281     1
   6270   6282     1
   6271   6284     1
   6271   6285     1
   6272   6283     1
   6272   6275     1
   6272   6276     1
   6273   6283     1
   6273   6275     1
   6273   6276     1
   6275   6292     1
   6275   6284     1
   6275   6285     1
   6276   6292     1
   6276   6284     1
   6276   6285     1
   6278  11539     1
   6278   6290     1
   6278   6291     1
   6279  11539     1
   6279   6290     1
   6279   6291     1
   6281  11516     1
   6281   6287     1
   6281   6288     1
   6282  11516     1
   6282   6287     1
   6282   6288     1
   6286  11515     1
   6287  11512     1
   6288  11512     1
   6289  11538     1
   6290  11535     1
   6291  11535     1
   6293   6307     1
   6293   6308     1
   6293   6310     1
   6293   6311     1
   6293   6304     1
   6293   6305     1
   6294   6298     1
   6294   6299     1
   6294   6301     1
   6294   6302     1
   6294   6319     1
   6294   6320     1
   6295   6297     1
   6295   6300     1
   6295   6318     1
   6295   6307     1
   6295   6308     1
   6296   6297     1
   6296   6300     1
   6296   6318     1
   6296   6307     1
   6296   6308     1
   6297   6301     1
   6297   6302     1
   6297   6316     1
   6297   6317     1
   6298   6300     1
   6298   6315     1
   6298   6310     1
   6298   6311     1
   6299   6300     1
   6299   6315     1
   6299   6310     1
   6299   6311     1
   6300   6313     1
   6300   6314     1
   6301   6312     1
   6301   6304     1
   6301   6305     1
   6302   6312     1
   6302   6304     1
   6302   6305     1
   6304   6321     1
   6304   6313     1
   6304   6314     1
   6305   6321     1
   6305   6313     1
   6305   6314     1
   6307  11585     1
   6307   6319     1
   6307   6320     1
   6308  11585     1
   6308   6319     1
   6308   6320     1
   6310  11562     1
   6310   6316     1
   6310   6317     1
   6311  11562     1
   6311   6316     1
   6311   6317     1
   6315  11561     1
   6316  11558     1
   6317  11558     1
   6318  11584     1
   6319  11581     1
   6320  11581     1
   6322   6336     1
   6322   6337     1
   6322   6339     1
   6322   6340     1
   6322   6333     1
   6322   6334     1
   6323   6327     1
   6323   6328     1
   6323   6330     1
   6323   6331     1
   6323   6348     1
   6323   6349     1
   6324   6326     1
   6324   6329     1
   6324   6347     1
   6324   6336     1
   6324   6337     1
   6325   6326     1
   6325   6329     1
   6325   6347     1
   6325   6336     1
   6325   6337     1
   6326   6330     1
   6326   6331     1
   6326   6345     1
   6326   6346     1
   6327   6329     1
   6327   6344     1
   6327   6339     1
   6327   6340     1
   6328   6329     1
   6328   6344     1
   6328   6339     1
   6328   6340     1
   6329   6342     1
   6329   6343     1
   6330   6341     1
   6330   6333     1
   6330   6334     1
   6331   6341     1
   6331   6333     1
   6331   6334     1
   6333   6350     1
   6333   6342     1
   6333   6343     1
   6334   6350     1
   6334   6342     1
   6334   6343     1
   6336  11631     1
   6336   6348     1
   6336   6349     1
   6337  11631     1
   6337   6348     1
   6337   6349     1
   6339  11608     1
   6339   6345     1
   6339   6346     1
   6340  11608     1
   6340   6345     1
   6340   6346     1
   6344  11607     1
   6345  11604     1
   6346  11604     1
   6347  11630     1
   6348  11627     1
   6349  11627     1
   6351   6365     1
   6351   6366     1
   6351   6368     1
   6351   6369     1
   6351   6362     1
   6351   6363     1
   6352   6356     1
   6352   6357     1
   6352   6359     1
   6352   6360     1
   6352   6377     1
   6352   6378     1
   6353   6355     1
   6353   6358     1
   6353   6376     1
   6353   6365     1
   6353   6366     1
   6354   6355     1
   6354   6358     1
   6354   6376     1
   6354   6365     1
   6354   6366     1
   6355   6359     1
   6355   6360     1
   6355   6374     1
   6355   6375     1
   6356   6358     1
   6356   6373     1
   6356   6368     1
   6356   6369     1
   6357   6358     1
   6357   6373     1
   6357   6368     1
   6357   6369     1
   6358   6371     1
   6358   6372     1
   6359   6370     1
   6359   6362     1
   6359   6363     1
   6360   6370     1
   6360   6362     1
   6360   6363     1
   6362   6379     1
   6362   6371     1
   6362   6372     1
   6363   6379     1
   6363   6371     1
   6363   6372     1
   6365  11677     1
   6365   6377     1
   6365   6378     1
   6366  11677     1
   6366   6377     1
   6366   6378     1
   6368  11654     1
   6368   6374     1
   6368   6375     1
   6369  11654     1
   6369   6374     1
   6369   6375     1
   6373  11653     1
   6374  11650     1
   6375  11650     1
   6376  11676     1
   6377  11673     1
   6378  11673     1
   6380   6394     1
   6380   6395     1
   6380   6397     1
   6380   6398     1
   6380   6391     1
   6380   6392     1
   6381   6385     1
   6381   6386     1
   6381   6388     1
   6381   6389     1
   6381   6406     1
   6381   6407     1
   6382   6384     1
   6382   6387     1
   6382   6405     1
   6382   6394     1
   6382   6395     1
   6383   6384     1
   6383   6387     1
   6383   6405     1
   6383   6394     1
   6383   6395     1
   6384   6388     1
   6384   6389     1
   6384   6403     1
   6384   6404     1
   6385   6387     1
   6385   6402     1
   6385   6397     1
   6385   6398     1
   6386   6387     1
   6386   6402     1
   6386   6397     1
   6386   6398     1
   6387   6400     1
   6387   6401     1
   6388   6399     1
   6388   6391     1
   6388   6392     1
   6389   6399     1
   6389   6391     1
   6389   6392     1
   6391   6408     1
   6391   6400     1
   6391   6401     1
   6392   6408     1
   6392   6400     1
   6392   6401     1
   6394  11723     1
   6394   6406     1
   6394   6407     1
   6395  11723     1
   6395   6406     1
   6395   6407     1
   6397  11700     1
   6397   6403     1
   6397   6404     1
   6398  11700     1
   6398   6403     1
   6398   6404     1
   6402  11699     1
   6403  11696     1
   6404  11696     1
   6405  11722     1
   6406  11719     1
   6407  11719     1
   6409   6423     1
   6409   6424     1
   6409   6426     1
   6409   6427     1
   6409   6420     1
   6409   6421     1
   6410   6414     1
   6410   6415     1
   6410   6417     1
   6410   6418     1
   6410   6435     1
   6410   6436     1
   6411   6413     1
   6411   6416     1
   6411   6434     1
   6411   6423     1
   6411   6424     1
   6412   6413     1
   6412   6416     1
   6412   6434     1
   6412   6423     1
   6412   6424     1
   6413   6417     1
   6413   6418     1
   6413   6432     1
   6413   6433     1
   6414   6416     1
   6414   6431     1
   6414   6426     1
   6414   6427     1
   6415   6416     1
   6415   6431     1
   6415   6426     1
   6415   6427     1
   6416   6429     1
   6416   6430     1
   6417   6428     1
   6417   6420     1
   6417   6421     1
   6418   6428     1
   6418   6420     1
   6418   6421     1
   6420   6437     1
   6420   6429     1
   6420   6430     1
   6421   6437     1
   6421   6429     1
   6421   6430     1
   6423  11769     1
   6423   6435     1
   6423   6436     1
   6424  11769     1
   6424   6435     1
   6424   6436     1
   6426  11746     1
   6426   6432     1
   6426   6433     1
   6427  11746     1
   6427   6432     1
   6427   6433     1
   6431  11745     1
   6432  11742     1
   6433  11742     1
   6434  11768     1
   6435  11765     1
   6436  11765     1
   6438   6452     1
   6438   6453     1
   6438   6455     1
   6438   6456     1
   6438   6449     1
   6438   6450     1
   6439   6443     1
   6439   6444     1
   6439   6446     1
   6439   6447     1
   6439   6464     1
   6439   6465     1
   6440   6442     1
   6440   6445     1
   6440   6463     1
   6440   6452     1
   6440   6453     1
   6441   6442     1
   6441   6445     1
   6441   6463     1
   6441   6452     1
   6441   6453     1
   6442   6446     1
   6442   6447     1
   6442   6461     1
   6442   6462     1
   6443   6445     1
   6443   6460     1
   6443   6455     1
   6443   6456     1
   6444   6445     1
   6444   6460     1
   6444   6455     1
   6444   6456     1
   6445   6458     1
   6445   6459     1
   6446   6457     1
   6446   6449     1
   6446   6450     1
   6447   6457     1
   6447   6449     1
   6447   6450     1
   6449   6466     1
   6449   6458     1
   6449   6459     1
   6450   6466     1
   6450   6458     1
   6450   6459     1
   6452  11815     1
   6452   6464     1
   6452   6465     1
   6453  11815     1
   6453   6464     1
   6453   6465     1
   6455  11792     1
   6455   6461     1
   6455   6462     1
   6456  11792     1
   6456   6461     1
   6456   6462     1
   6460  11791     1
   6461  11788     1
   6462  11788     1
   6463  11814     1
   6464  11811     1
   6465  11811     1
   6467   6481     1
   6467   6482     1
   6467   6484     1
   6467   6485     1
   6467   6478     1
   6467   6479     1
   6468   6472     1
   6468   6473     1
   6468   6475     1
   6468   6476     1
   6468   6493     1
   6468   6494     1
   6469   6471     1
   6469   6474     1
   6469   6492     1
   6469   6481     1
   6469   6482     1
   6470   6471     1
   6470   6474     1
   6470   6492     1
   6470   6481     1
   6470   6482     1
   6471   6475     1
   6471   6476     1
   6471   6490     1
   6471   6491     1
   6472   6474     1
   6472   6489     1
   6472   6484     1
   6472   6485     1
   6473   6474     1
   6473   6489     1
   6473   6484     1
   6473   6485     1
   6474   6487     1
   6474   6488     1
   6475   6486     1
   6475   6478     1
   6475   6479     1
   6476   6486     1
   6476   6478     1
   6476   6479     1
   6478   6495     1
   6478   6487     1
   6478   6488     1
   6479   6495     1
   6479   6487     1
   6479   6488     1
   6481  11861     1
   6481   6493     1
   6481   6494     1
   6482  11861     1
   6482   6493     1
   6482   6494     1
   6484  11838     1
   6484   6490     1
   6484   6491     1
   6485  11838     1
   6485   6490     1
   6485   6491     1
   6489  11837     1
   6490  11834     1
   6491  11834     1
   6492  11860     1
   6493  11857     1
   6494  11857     1
   6496   6510     1
   6496   6511     1
   6496   6513     1
   6496   6514     1
   6496   6507     1
   6496   6508     1
   6497   6501     1
   6497   6502     1
   6497   6504     1
   6497   6505     1
   6497   6522     1
   6497   6523     1
   6498   6500     1
   6498   6503     1
   6498   6521     1
   6498   6510     1
   6498   6511     1
   6499   6500     1
   6499   6503     1
   6499   6521     1
   6499   6510     1
   6499   6511     1
   6500   6504     1
   6500   6505     1
   6500   6519     1
   6500   6520     1
   6501   6503     1
   6501   6518     1
   6501   6513     1
   6501   6514     1
   6502   6503     1
   6502   6518     1
   6502   6513     1
   6502   6514     1
   6503   6516     1
   6503   6517     1
   6504   6515     1
   6504   6507     1
   6504   6508     1
   6505   6515     1
   6505   6507     1
   6505   6508     1
   6507   6524     1
   6507   6516     1
   6507   6517     1
   6508   6524     1
   6508   6516     1
   6508   6517     1
   6510  11907     1
   6510   6522     1
   6510   6523     1
   6511  11907     1
   6511   6522     1
   6511   6523     1
   6513  11884     1
   6513   6519     1
   6513   6520     1
   6514  11884     1
   6514   6519     1
   6514   6520     1
   6518  11883     1
   6519  11880     1
   6520  11880     1
   6521  11906     1
   6522  11903     1
   6523  11903     1
   6525   6539     1
   6525   6540     1
   6525   6542     1
   6525   6543     1
   6525   6536     1
   6525   6537     1
   6526   6530     1
   6526   6531     1
   6526   6533     1
   6526   6534     1
   6526   6551     1
   6526   6552     1
   6527   6529     1
   6527   6532     1
   6527   6550     1
   6527   6539     1
   6527   6540     1
   6528   6529     1
   6528   6532     1
   6528   6550     1
   6528   6539     1
   6528   6540     1
   6529   6533     1
   6529   6534     1
   6529   6548     1
   6529   6549     1
   6530   6532     1
   6530   6547     1
   6530   6542     1
   6530   6543     1
   6531   6532     1
   6531   6547     1
   6531   6542     1
   6531   6543     1
   6532   6545     1
   6532   6546     1
   6533   6544     1
   6533   6536     1
   6533   6537     1
   6534   6544     1
   6534   6536     1
   6534   6537     1
   6536   6553     1
   6536   6545     1
   6536   6546     1
   6537   6553     1
   6537   6545     1
   6537   6546     1
   6539  11953     1
   6539   6551     1
   6539   6552     1
   6540  11953     1
   6540   6551     1
   6540   6552     1
   6542  11930     1
   6542   6548     1
   6542   6549     1
   6543  11930     1
   6543   6548     1
   6543   6549     1
   6547  11929     1
   6548  11926     1
   6549  11926     1
   6550  11952     1
   6551  11949     1
   6552  11949     1
   6554   6568     1
   6554   6569     1
   6554   6571     1
   6554   6572     1
   6554   6565     1
   6554   6566     1
   6555   6559     1
   6555   6560     1
   6555   6562     1
   6555   6563     1
   6555   6580     1
   6555   6581     1
   6556   6558     1
   6556   6561     1
   6556   6579     1
   6556   6568     1
   6556   6569     1
   6557   6558     1
   6557   6561     1
   6557   6579     1
   6557   6568     1
   6557   6569     1
   6558   6562     1
   6558   6563     1
   6558   6577     1
   6558   6578     1
   6559   6561     1
   6559   6576     1
   6559   6571     1
   6559   6572     1
   6560   6561     1
   6560   6576     1
   6560   6571     1
   6560   6572     1
   6561   6574     1
   6561   6575     1
   6562   6573     1
   6562   6565     1
   6562   6566     1
   6563   6573     1
   6563   6565     1
   6563   6566     1
   6565   6582     1
   6565   6574     1
   6565   6575     1
   6566   6582     1
   6566   6574     1
   6566   6575     1
   6568  11999     1
   6568   6580     1
   6568   6581     1
   6569  11999     1
   6569   6580     1
   6569   6581     1
   6571  11976     1
   6571   6577     1
   6571   6578     1
   6572  11976     1
   6572   6577     1
   6572   6578     1
   6576  11975     1
   6577  11972     1
   6578  11972     1
   6579  11998     1
   6580  11995     1
   6581  11995     1
   6583   6597     1
   6583   6598     1
   6583   6600     1
   6583   6601     1
   6583   6594     1
   6583   6595     1
   6584   6588     1
   6584   6589     1
   6584   6591     1
   6584   6592     1
   6584   6609     1
   6584   6610     1
   6585   6587     1
   6585   6590     1
   6585   6608     1
   6585   6597     1
   6585   6598     1
   6586   6587     1
   6586   6590     1
   6586   6608     1
   6586   6597     1
   6586   6598     1
   6587   6591     1
   6587   6592     1
   6587   6606     1
   6587   6607     1
   6588   6590     1
   6588   6605     1
   6588   6600     1
   6588   6601     1
   6589   6590     1
   6589   6605     1
   6589   6600     1
   6589   6601     1
   6590   6603     1
   6590   6604     1
   6591   6602     1
   6591   6594     1
   6591   6595     1
   6592   6602     1
   6592   6594     1
   6592   6595     1
   6594   6611     1
   6594   6603     1
   6594   6604     1
   6595   6611     1
   6595   6603     1
   6595   6604     1
   6597  12045     1
   6597   6609     1
   6597   6610     1
   6598  12045     1
   6598   6609     1
   6598   6610     1
   6600  12022     1
   6600   6606     1
   6600   6607     1
   6601  12022     1
   6601   6606     1
   6601   6607     1
   6605  12021     1
   6606  12018     1
   6607  12018     1
   6608  12044     1
   6609  12041     1
   6610  12041     1
   6612   6626     1
   6612   6627     1
   6612   6629     1
   6612   6630     1
   6612   6623     1
   6612   6624     1
   6613   6617     1
   6613   6618     1
   6613   6620     1
   6613   6621     1
   6613   6638     1
   6613   6639     1
   6614   6616     1
   6614   6619     1
   6614   6637     1
   6614   6626     1
   6614   6627     1
   6615   6616     1
   6615   6619     1
   6615   6637     1
   6615   6626     1
   6615   6627     1
   6616   6620     1
   6616   6621     1
   6616   6635     1
   6616   6636     1
   6617   6619     1
   6617   6634     1
   6617   6629     1
   6617   6630     1
   6618   6619     1
   6618   6634     1
   6618   6629     1
   6618   6630     1
   6619   6632     1
   6619   6633     1
   6620   6631     1
   6620   6623     1
   6620   6624     1
   6621   6631     1
   6621   6623     1
   6621   6624     1
   6623   6640     1
   6623   6632     1
   6623   6633     1
   6624   6640     1
   6624   6632     1
   6624   6633     1
   6626  12091     1
   6626   6638     1
   6626   6639     1
   6627  12091     1
   6627   6638     1
   6627   6639     1
   6629  12068     1
   6629   6635     1
   6629   6636     1
   6630  12068     1
   6630   6635     1
   6630   6636     1
   6634  12067     1
   6635  12064     1
   6636  12064     1
   6637  12090     1
   6638  12087     1
   6639  12087     1
   6641   6655     1
   6641   6656     1
   6641   6658     1
   6641   6659     1
   6641   6652     1
   6641   6653     1
   6642   6646     1
   6642   6647     1
   6642   6649     1
   6642   6650     1
   6642   6667     1
   6642   6668     1
   6643   6645     1
   6643   6648     1
   6643   6666     1
   6643   6655     1
   6643   6656     1
   6644   6645     1
   6644   6648     1
   6644   6666     1
   6644   6655     1
   6644   6656     1
   6645   6649     1
   6645   6650     1
   6645   6664     1
   6645   6665     1
   6646   6648     1
   6646   6663     1
   6646   6658     1
   6646   6659     1
   6647   6648     1
   6647   6663     1
   6647   6658     1
   6647   6659     1
   6648   6661     1
   6648   6662     1
   6649   6660     1
   6649   6652     1
   6649   6653     1
   6650   6660     1
   6650   6652     1
   6650   6653     1
   6652   6669     1
   6652   6661     1
   6652   6662     1
   6653   6669     1
   6653   6661     1
   6653   6662     1
   6655  12137     1
   6655   6667     1
   6655   6668     1
   6656  12137     1
   6656   6667     1
   6656   6668     1
   6658  12114     1
   6658   6664     1
   6658   6665     1
   6659  12114     1
   6659   6664     1
   6659   6665     1
   6663  12113     1
   6664  12110     1
   6665  12110     1
   6666  12136     1
   6667  12133     1
   6668  12133     1
   6670   6684     1
   6670   6685     1
   6670   6687     1
   6670   6688     1
   6670   6681     1
   6670   6682     1
   6671   6675     1
   6671   6676     1
   6671   6678     1
   6671   6679     1
   6671   6696     1
   6671   6697     1
   6672   6674     1
   6672   6677     1
   6672   6695     1
   6672   6684     1
   6672   6685     1
   6673   6674     1
   6673   6677     1
   6673   6695     1
   6673   6684     1
   6673   6685     1
   6674   6678     1
   6674   6679     1
   6674   6693     1
   6674   6694     1
   6675   6677     1
   6675   6692     1
   6675   6687     1
   6675   6688     1
   6676   6677     1
   6676   6692     1
   6676   6687     1
   6676   6688     1
   6677   6690     1
   6677   6691     1
   6678   6689     1
   6678   6681     1
   6678   6682     1
   6679   6689     1
   6679   6681     1
   6679   6682     1
   6681   6698     1
   6681   6690     1
   6681   6691     1
   6682   6698     1
   6682   6690     1
   6682   6691     1
   6684  12183     1
   6684   6696     1
   6684   6697     1
   6685  12183     1
   6685   6696     1
   6685   6697     1
   6687  12160     1
   6687   6693     1
   6687   6694     1
   6688  12160     1
   6688   6693     1
   6688   6694     1
   6692  12159     1
   6693  12156     1
   6694  12156     1
   6695  12182     1
   6696  12179     1
   6697  12179     1
   6699   6713     1
   6699   6714     1
   6699   6716     1
   6699   6717     1
   6699   6710     1
   6699   6711     1
   6700   6704     1
   6700   6705     1
   6700   6707     1
   6700   6708     1
   6700   6725     1
   6700   6726     1
   6701   6703     1
   6701   6706     1
   6701   6724     1
   6701   6713     1
   6701   6714     1
   6702   6703     1
   6702   6706     1
   6702   6724     1
   6702   6713     1
   6702   6714     1
   6703   6707     1
   6703   6708     1
   6703   6722     1
   6703   6723     1
   6704   6706     1
   6704   6721     1
   6704   6716     1
   6704   6717     1
   6705   6706     1
   6705   6721     1
   6705   6716     1
   6705   6717     1
   6706   6719     1
   6706   6720     1
   6707   6718     1
   6707   6710     1
   6707   6711     1
   6708   6718     1
   6708   6710     1
   6708   6711     1
   6710   6727     1
   6710   6719     1
   6710   6720     1
   6711   6727     1
   6711   6719     1
   6711   6720     1
   6713  12229     1
   6713   6725     1
   6713   6726     1
   6714  12229     1
   6714   6725     1
   6714   6726     1
   6716  12206     1
   6716   6722     1
   6716   6723     1
   6717  12206     1
   6717   6722     1
   6717   6723     1
   6721  12205     1
   6722  12202     1
   6723  12202     1
   6724  12228     1
   6725  12225     1
   6726  12225     1
   6728   6742     1
   6728   6743     1
   6728   6745     1
   6728   6746     1
   6728   6739     1
   6728   6740     1
   6729   6733     1
   6729   6734     1
   6729   6736     1
   6729   6737     1
   6729   6754     1
   6729   6755     1
   6730   6732     1
   6730   6735     1
   6730   6753     1
   6730   6742     1
   6730   6743     1
   6731   6732     1
   6731   6735     1
   6731   6753     1
   6731   6742     1
   6731   6743     1
   6732   6736     1
   6732   6737     1
   6732   6751     1
   6732   6752     1
   6733   6735     1
   6733   6750     1
   6733   6745     1
   6733   6746     1
   6734   6735     1
   6734   6750     1
   6734   6745     1
   6734   6746     1
   6735   6748     1
   6735   6749     1
   6736   6747     1
   6736   6739     1
   6736   6740     1
   6737   6747     1
   6737   6739     1
   6737   6740     1
   6739   6756     1
   6739   6748     1
   6739   6749     1
   6740   6756     1
   6740   6748     1
   6740   6749     1
   6742  12275     1
   6742   6754     1
   6742   6755     1
   6743  12275     1
   6743   6754     1
   6743   6755     1
   6745  12252     1
   6745   6751     1
   6745   6752     1
   6746  12252     1
   6746   6751     1
   6746   6752     1
   6750  12251     1
   6751  12248     1
   6752  12248     1
   6753  12274     1
   6754  12271     1
   6755  12271     1
   6757   6771     1
   6757   6772     1
   6757   6774     1
   6757   6775     1
   6757   6768     1
   6757   6769     1
   6758   6762     1
   6758   6763     1
   6758   6765     1
   6758   6766     1
   6758   6783     1
   6758   6784     1
   6759   6761     1
   6759   6764     1
   6759   6782     1
   6759   6771     1
   6759   6772     1
   6760   6761     1
   6760   6764     1
   6760   6782     1
   6760   6771     1
   6760   6772     1
   6761   6765     1
   6761   6766     1
   6761   6780     1
   6761   6781     1
   6762   6764     1
   6762   6779     1
   6762   6774     1
   6762   6775     1
   6763   6764     1
   6763   6779     1
   6763   6774     1
   6763   6775     1
   6764   6777     1
   6764   6778     1
   6765   6776     1
   6765   6768     1
   6765   6769     1
   6766   6776     1
   6766   6768     1
   6766   6769     1
   6768   6785     1
   6768   6777     1
   6768   6778     1
   6769   6785     1
   6769   6777     1
   6769   6778     1
   6771  12321     1
   6771   6783     1
   6771   6784     1
   6772  12321     1
   6772   6783     1
   6772   6784     1
   6774  12298     1
   6774   6780     1
   6774   6781     1
   6775  12298     1
   6775   6780     1
   6775   6781     1
   6779  12297     1
   6780  12294     1
   6781  12294     1
   6782  12320     1
   6783  12317     1
   6784  12317     1
   6786   6800     1
   6786   6801     1
   6786   6803     1
   6786   6804     1
   6786   6797     1
   6786   6798     1
   6787   6791     1
   6787   6792     1
   6787   6794     1
   6787   6795     1
   6787   6812     1
   6787   6813     1
   6788   6790     1
   6788   6793     1
   6788   6811     1
   6788   6800     1
   6788   6801     1
   6789   6790     1
   6789   6793     1
   6789   6811     1
   6789   6800     1
   6789   6801     1
   6790   6794     1
   6790   6795     1
   6790   6809     1
   6790   6810     1
   6791   6793     1
   6791   6808     1
   6791   6803     1
   6791   6804     1
   6792   6793     1
   6792   6808     1
   6792   6803     1
   6792   6804     1
   6793   6806     1
   6793   6807     1
   6794   6805     1
   6794   6797     1
   6794   6798     1
   6795   6805     1
   6795   6797     1
   6795   6798     1
   6797   6814     1
   6797   6806     1
   6797   6807     1
   6798   6814     1
   6798   6806     1
   6798   6807     1
   6800  12367     1
   6800   6812     1
   6800   6813     1
   6801  12367     1
   6801   6812     1
   6801   6813     1
   6803  12344     1
   6803   6809     1
   6803   6810     1
   6804  12344     1
   6804   6809     1
   6804   6810     1
   6808  12343     1
   6809  12340     1
   6810  12340     1
   6811  12366     1
   6812  12363     1
   6813  12363     1
   6815   6829     1
   6815   6830     1
   6815   6832     1
   6815   6833     1
   6815   6826     1
   6815   6827     1
   6816   6820     1
   6816   6821     1
   6816   6823     1
   6816   6824     1
   6816   6841     1
   6816   6842     1
   6817   6819     1
   6817   6822     1
   6817   6840     1
   6817   6829     1
   6817   6830     1
   6818   6819     1
   6818   6822     1
   6818   6840     1
   6818   6829     1
   6818   6830     1
   6819   6823     1
   6819   6824     1
   6819   6838     1
   6819   6839     1
   6820   6822     1
   6820   6837     1
   6820   6832     1
   6820   6833     1
   6821   6822     1
   6821   6837     1
   6821   6832     1
   6821   6833     1
   6822   6835     1
   6822   6836     1
   6823   6834     1
   6823   6826     1
   6823   6827     1
   6824   6834     1
   6824   6826     1
   6824   6827     1
   6826   6843     1
   6826   6835     1
   6826   6836     1
   6827   6843     1
   6827   6835     1
   6827   6836     1
   6829  12413     1
   6829   6841     1
   6829   6842     1
   6830  12413     1
   6830   6841     1
   6830   6842     1
   6832  12390     1
   6832   6838     1
   6832   6839     1
   6833  12390     1
   6833   6838     1
   6833   6839     1
   6837  12389     1
   6838  12386     1
   6839  12386     1
   6840  12412     1
   6841  12409     1
   6842  12409     1
   6844   6858     1
   6844   6859     1
   6844   6861     1
   6844   6862     1
   6844   6855     1
   6844   6856     1
   6845   6849     1
   6845   6850     1
   6845   6852     1
   6845   6853     1
   6845   6870     1
   6845   6871     1
   6846   6848     1
   6846   6851     1
   6846   6869     1
   6846   6858     1
   6846   6859     1
   6847   6848     1
   6847   6851     1
   6847   6869     1
   6847   6858     1
   6847   6859     1
   6848   6852     1
   6848   6853     1
   6848   6867     1
   6848   6868     1
   6849   6851     1
   6849   6866     1
   6849   6861     1
   6849   6862     1
   6850   6851     1
   6850   6866     1
   6850   6861     1
   6850   6862     1
   6851   6864     1
   6851   6865     1
   6852   6863     1
   6852   6855     1
   6852   6856     1
   6853   6863     1
   6853   6855     1
   6853   6856     1
   6855   6872     1
   6855   6864     1
   6855   6865     1
   6856   6872     1
   6856   6864     1
   6856   6865     1
   6858  12459     1
   6858   6870     1
   6858   6871     1
   6859  12459     1
   6859   6870     1
   6859   6871     1
   6861  12436     1
   6861   6867     1
   6861   6868     1
   6862  12436     1
   6862   6867     1
   6862   6868     1
   6866  12435     1
   6867  12432     1
   6868  12432     1
   6869  12458     1
   6870  12455     1
   6871  12455     1
   6873   6887     1
   6873   6888     1
   6873   6890     1
   6873   6891     1
   6873   6884     1
   6873   6885     1
   6874   6878     1
   6874   6879     1
   6874   6881     1
   6874   6882     1
   6874   6899     1
   6874   6900     1
   6875   6877     1
   6875   6880     1
   6875   6898     1
   6875   6887     1
   6875   6888     1
   6876   6877     1
   6876   6880     1
   6876   6898     1
   6876   6887     1
   6876   6888     1
   6877   6881     1
   6877   6882     1
   6877   6896     1
   6877   6897     1
   6878   6880     1
   6878   6895     1
   6878   6890     1
   6878   6891     1
   6879   6880     1
   6879   6895     1
   6879   6890     1
   6879   6891     1
   6880   6893     1
   6880   6894     1
   6881   6892     1
   6881   6884     1
   6881   6885     1
   6882   6892     1
   6882   6884     1
   6882   6885     1
   6884   6901     1
   6884   6893     1
   6884   6894     1
   6885   6901     1
   6885   6893     1
   6885   6894     1
   6887  12505     1
   6887   6899     1
   6887   6900     1
   6888  12505     1
   6888   6899     1
   6888   6900     1
   6890  12482     1
   6890   6896     1
   6890   6897     1
   6891  12482     1
   6891   6896     1
   6891   6897     1
   6895  12481     1
   6896  12478     1
   6897  12478     1
   6898  12504     1
   6899  12501     1
   6900  12501     1
   6902   6916     1
   6902   6917     1
   6902   6919     1
   6902   6920     1
   6902   6913     1
   6902   6914     1
   6903   6907     1
   6903   6908     1
   6903   6910     1
   6903   6911     1
   6903   6928     1
   6903   6929     1
   6904   6906     1
   6904   6909     1
   6904   6927     1
   6904   6916     1
   6904   6917     1
   6905   6906     1
   6905   6909     1
   6905   6927     1
   6905   6916     1
   6905   6917     1
   6906   6910     1
   6906   6911     1
   6906   6925     1
   6906   6926     1
   6907   6909     1
   6907   6924     1
   6907   6919     1
   6907   6920     1
   6908   6909     1
   6908   6924     1
   6908   6919     1
   6908   6920     1
   6909   6922     1
   6909   6923     1
   6910   6921     1
   6910   6913     1
   6910   6914     1
   6911   6921     1
   6911   6913     1
   6911   6914     1
   6913   6930     1
   6913   6922     1
   6913   6923     1
   6914   6930     1
   6914   6922     1
   6914   6923     1
   6916  12551     1
   6916   6928     1
   6916   6929     1
   6917  12551     1
   6917   6928     1
   6917   6929     1
   6919  12528     1
   6919   6925     1
   6919   6926     1
   6920  12528     1
   6920   6925     1
   6920   6926     1
   6924  12527     1
   6925  12524     1
   6926  12524     1
   6927  12550     1
   6928  12547     1
   6929  12547     1
   6931   6945     1
   6931   6946     1
   6931   6948     1
   6931   6949     1
   6931   6942     1
   6931   6943     1
   6932   6936     1
   6932   6937     1
   6932   6939     1
   6932   6940     1
   6932   6957     1
   6932   6958     1
   6933   6935     1
   6933   6938     1
   6933   6956     1
   6933   6945     1
   6933   6946     1
   6934   6935     1
   6934   6938     1
   6934   6956     1
   6934   6945     1
   6934   6946     1
   6935   6939     1
   6935   6940     1
   6935   6954     1
   6935   6955     1
   6936   6938     1
   6936   6953     1
   6936   6948     1
   6936   6949     1
   6937   6938     1
   6937   6953     1
   6937   6948     1
   6937   6949     1
   6938   6951     1
   6938   6952     1
   6939   6950     1
   6939   6942     1
   6939   6943     1
   6940   6950     1
   6940   6942     1
   6940   6943     1
   6942   6959     1
   6942   6951     1
   6942   6952     1
   6943   6959     1
   6943   6951     1
   6943   6952     1
   6945  12597     1
   6945   6957     1
   6945   6958     1
   6946  12597     1
   6946   6957     1
   6946   6958     1
   6948  12574     1
   6948   6954     1
   6948   6955     1
   6949  12574     1
   6949   6954     1
   6949   6955     1
   6953  12573     1
   6954  12570     1
   6955  12570     1
   6956  12596     1
   6957  12593     1
   6958  12593     1
   6960   6974     1
   6960   6975     1
   6960   6977     1
   6960   6978     1
   6960   6971     1
   6960   6972     1
   6961   6965     1
   6961   6966     1
   6961   6968     1
   6961   6969     1
   6961   6986     1
   6961   6987     1
   6962   6964     1
   6962   6967     1
   6962   6985     1
   6962   6974     1
   6962   6975     1
   6963   6964     1
   6963   6967     1
   6963   6985     1
   6963   6974     1
   6963   6975     1
   6964   6968     1
   6964   6969     1
   6964   6983     1
   6964   6984     1
   6965   6967     1
   6965   6982     1
   6965   6977     1
   6965   6978     1
   6966   6967     1
   6966   6982     1
   6966   6977     1
   6966   6978     1
   6967   6980     1
   6967   6981     1
   6968   6979     1
   6968   6971     1
   6968   6972     1
   6969   6979     1
   6969   6971     1
   6969   6972     1
   6971   6988     1
   6971   6980     1
   6971   6981     1
   6972   6988     1
   6972   6980     1
   6972   6981     1
   6974  12643     1
   6974   6986     1
   6974   6987     1
   6975  12643     1
   6975   6986     1
   6975   6987     1
   6977  12620     1
   6977   6983     1
   6977   6984     1
   6978  12620     1
   6978   6983     1
   6978   6984     1
   6982  12619     1
   6983  12616     1
   6984  12616     1
   6985  12642     1
   6986  12639     1
   6987  12639     1
   6989   7003     1
   6989   7004     1
   6989   7006     1
   6989   7007     1
   6989   7000     1
   6989   7001     1
   6990   6994     1
   6990   6995     1
   6990   6997     1
   6990   6998     1
   6990   7015     1
   6990   7016     1
   6991   6993     1
   6991   6996     1
   6991   7014     1
   6991   7003     1
   6991   7004     1
   6992   6993     1
   6992   6996     1
   6992   7014     1
   6992   7003     1
   6992   7004     1
   6993   6997     1
   6993   6998     1
   6993   7012     1
   6993   7013     1
   6994   6996     1
   6994   7011     1
   6994   7006     1
   6994   7007     1
   6995   6996     1
   6995   7011     1
   6995   7006     1
   6995   7007     1
   6996   7009     1
   6996   7010     1
   6997   7008     1
   6997   7000     1
   6997   7001     1
   6998   7008     1
   6998   7000     1
   6998   7001     1
   7000   7017     1
   7000   7009     1
   7000   7010     1
   7001   7017     1
   7001   7009     1
   7001   7010     1
   7003  12689     1
   7003   7015     1
   7003   7016     1
   7004  12689     1
   7004   7015     1
   7004   7016     1
   7006  12666     1
   7006   7012     1
   7006   7013     1
   7007  12666     1
   7007   7012     1
   7007   7013     1
   7011  12665     1
   7012  12662     1
   7013  12662     1
   7014  12688     1
   7015  12685     1
   7016  12685     1
   7018   7032     1
   7018   7033     1
   7018   7035     1
   7018   7036     1
   7018   7029     1
   7018   7030     1
   7019   7023     1
   7019   7024     1
   7019   7026     1
   7019   7027     1
   7019   7044     1
   7019   7045     1
   7020   7022     1
   7020   7025     1
   7020   7043     1
   7020   7032     1
   7020   7033     1
   7021   7022     1
   7021   7025     1
   7021   7043     1
   7021   7032     1
   7021   7033     1
   7022   7026     1
   7022   7027     1
   7022   7041     1
   7022   7042     1
   7023   7025     1
   7023   7040     1
   7023   7035     1
   7023   7036     1
   7024   7025     1
   7024   7040     1
   7024   7035     1
   7024   7036     1
   7025   7038     1
   7025   7039     1
   7026   7037     1
   7026   7029     1
   7026   7030     1
   7027   7037     1
   7027   7029     1
   7027   7030     1
   7029   7046     1
   7029   7038     1
   7029   7039     1
   7030   7046     1
   7030   7038     1
   7030   7039     1
   7032  12735     1
   7032   7044     1
   7032   7045     1
   7033  12735     1
   7033   7044     1
   7033   7045     1
   7035  12712     1
   7035   7041     1
   7035   7042     1
   7036  12712     1
   7036   7041     1
   7036   7042     1
   7040  12711     1
   7041  12708     1
   7042  12708     1
   7043  12734     1
   7044  12731     1
   7045  12731     1
   7047   7061     1
   7047   7062     1
   7047   7064     1
   7047   7065     1
   7047   7058     1
   7047   7059     1
   7048   7052     1
   7048   7053     1
   7048   7055     1
   7048   7056     1
   7048   7073     1
   7048   7074     1
   7049   7051     1
   7049   7054     1
   7049   7072     1
   7049   7061     1
   7049   7062     1
   7050   7051     1
   7050   7054     1
   7050   7072     1
   7050   7061     1
   7050   7062     1
   7051   7055     1
   7051   7056     1
   7051   7070     1
   7051   7071     1
   7052   7054     1
   7052   7069     1
   7052   7064     1
   7052   7065     1
   7053   7054     1
   7053   7069     1
   7053   7064     1
   7053   7065     1
   7054   7067     1
   7054   7068     1
   7055   7066     1
   7055   7058     1
   7055   7059     1
   7056   7066     1
   7056   7058     1
   7056   7059     1
   7058   7075     1
   7058   7067     1
   7058   7068     1
   7059   7075     1
   7059   7067     1
   7059   7068     1
   7061  12781     1
   7061   7073     1
   7061   7074     1
   7062  12781     1
   7062   7073     1
   7062   7074     1
   7064  12758     1
   7064   7070     1
   7064   7071     1
   7065  12758     1
   7065   7070     1
   7065   7071     1
   7069  12757     1
   7070  12754     1
   7071  12754     1
   7072  12780     1
   7073  12777     1
   7074  12777     1
   7076   7090     1
   7076   7091     1
   7076   7093     1
   7076   7094     1
   7076   7087     1
   7076   7088     1
   7077   7081     1
   7077   7082     1
   7077   7084     1
   7077   7085     1
   7077   7102     1
   7077   7103     1
   7078   7080     1
   7078   7083     1
   7078   7101     1
   7078   7090     1
   7078   7091     1
   7079   7080     1
   7079   7083     1
   7079   7101     1
   7079   7090     1
   7079   7091     1
   7080   7084     1
   7080   7085     1
   7080   7099     1
   7080   7100     1
   7081   7083     1
   7081   7098     1
   7081   7093     1
   7081   7094     1
   7082   7083     1
   7082   7098     1
   7082   7093     1
   7082   7094     1
   7083   7096     1
   7083   7097     1
   7084   7095     1
   7084   7087     1
   7084   7088     1
   7085   7095     1
   7085   7087     1
   7085   7088     1
   7087   7104     1
   7087   7096     1
   7087   7097     1
   7088   7104     1
   7088   7096     1
   7088   7097     1
   7090  12827     1
   7090   7102     1
   7090   7103     1
   7091  12827     1
   7091   7102     1
   7091   7103     1
   7093  12804     1
   7093   7099     1
   7093   7100     1
   7094  12804     1
   7094   7099     1
   7094   7100     1
   7098  12803     1
   7099  12800     1
   7100  12800     1
   7101  12826     1
   7102  12823     1
   7103  12823     1
   7105   7119     1
   7105   7120     1
   7105   7122     1
   7105   7123     1
   7105   7116     1
   7105   7117     1
   7106   7110     1
   7106   7111     1
   7106   7113     1
   7106   7114     1
   7106   7131     1
   7106   7132     1
   7107   7109     1
   7107   7112     1
   7107   7130     1
   7107   7119     1
   7107   7120     1
   7108   7109     1
   7108   7112     1
   7108   7130     1
   7108   7119     1
   7108   7120     1
   7109   7113     1
   7109   7114     1
   7109   7128     1
   7109   7129     1
   7110   7112     1
   7110   7127     1
   7110   7122     1
   7110   7123     1
   7111   7112     1
   7111   7127     1
   7111   7122     1
   7111   7123     1
   7112   7125     1
   7112   7126     1
   7113   7124     1
   7113   7116     1
   7113   7117     1
   7114   7124     1
   7114   7116     1
   7114   7117     1
   7116   7133     1
   7116   7125     1
   7116   7126     1
   7117   7133     1
   7117   7125     1
   7117   7126     1
   7119  12873     1
   7119   7131     1
   7119   7132     1
   7120  12873     1
   7120   7131     1
   7120   7132     1
   7122  12850     1
   7122   7128     1
   7122   7129     1
   7123  12850     1
   7123   7128     1
   7123   7129     1
   7127  12849     1
   7128  12846     1
   7129  12846     1
   7130  12872     1
   7131  12869     1
   7132  12869     1
   7134   7148     1
   7134   7149     1
   7134   7151     1
   7134   7152     1
   7134   7145     1
   7134   7146     1
   7135   7139     1
   7135   7140     1
   7135   7142     1
   7135   7143     1
   7135   7160     1
   7135   7161     1
   7136   7138     1
   7136   7141     1
   7136   7159     1
   7136   7148     1
   7136   7149     1
   7137   7138     1
   7137   7141     1
   7137   7159     1
   7137   7148     1
   7137   7149     1
   7138   7142     1
   7138   7143     1
   7138   7157     1
   7138   7158     1
   7139   7141     1
   7139   7156     1
   7139   7151     1
   7139   7152     1
   7140   7141     1
   7140   7156     1
   7140   7151     1
   7140   7152     1
   7141   7154     1
   7141   7155     1
   7142   7153     1
   7142   7145     1
   7142   7146     1
   7143   7153     1
   7143   7145     1
   7143   7146     1
   7145   7162     1
   7145   7154     1
   7145   7155     1
   7146   7162     1
   7146   7154     1
   7146   7155     1
   7148  12919     1
   7148   7160     1
   7148   7161     1
   7149  12919     1
   7149   7160     1
   7149   7161     1
   7151  12896     1
   7151   7157     1
   7151   7158     1
   7152  12896     1
   7152   7157     1
   7152   7158     1
   7156  12895     1
   7157  12892     1
   7158  12892     1
   7159  12918     1
   7160  12915     1
   7161  12915     1
   7163   7177     1
   7163   7178     1
   7163   7180     1
   7163   7181     1
   7163   7174     1
   7163   7175     1
   7164   7168     1
   7164   7169     1
   7164   7171     1
   7164   7172     1
   7164   7189     1
   7164   7190     1
   7165   7167     1
   7165   7170     1
   7165   7188     1
   7165   7177     1
   7165   7178     1
   7166   7167     1
   7166   7170     1
   7166   7188     1
   7166   7177     1
   7166   7178     1
   7167   7171     1
   7167   7172     1
   7167   7186     1
   7167   7187     1
   7168   7170     1
   7168   7185     1
   7168   7180     1
   7168   7181     1
   7169   7170     1
   7169   7185     1
   7169   7180     1
   7169   7181     1
   7170   7183     1
   7170   7184     1
   7171   7182     1
   7171   7174     1
   7171   7175     1
   7172   7182     1
   7172   7174     1
   7172   7175     1
   7174   7191     1
   7174   7183     1
   7174   7184     1
   7175   7191     1
   7175   7183     1
   7175   7184     1
   7177  12965     1
   7177   7189     1
   7177   7190     1
   7178  12965     1
   7178   7189     1
   7178   7190     1
   7180  12942     1
   7180   7186     1
   7180   7187     1
   7181  12942     1
   7181   7186     1
   7181   7187     1
   7185  12941     1
   7186  12938     1
   7187  12938     1
   7188  12964     1
   7189  12961     1
   7190  12961     1
   7192   7206     1
   7192   7207     1
   7192   7209     1
   7192   7210     1
   7192   7203     1
   7192   7204     1
   7193   7197     1
   7193   7198     1
   7193   7200     1
   7193   7201     1
   7193   7218     1
   7193   7219     1
   7194   7196     1
   7194   7199     1
   7194   7217     1
   7194   7206     1
   7194   7207     1
   7195   7196     1
   7195   7199     1
   7195   7217     1
   7195   7206     1
   7195   7207     1
   7196   7200     1
   7196   7201     1
   7196   7215     1
   7196   7216     1
   7197   7199     1
   7197   7214     1
   7197   7209     1
   7197   7210     1
   7198   7199     1
   7198   7214     1
   7198   7209     1
   7198   7210     1
   7199   7212     1
   7199   7213     1
   7200   7211     1
   7200   7203     1
   7200   7204     1
   7201   7211     1
   7201   7203     1
   7201   7204     1
   7203   7220     1
   7203   7212     1
   7203   7213     1
   7204   7220     1
   7204   7212     1
   7204   7213     1
   7206  13011     1
   7206   7218     1
   7206   7219     1
   7207  13011     1
   7207   7218     1
   7207   7219     1
   7209  12988     1
   7209   7215     1
   7209   7216     1
   7210  12988     1
   7210   7215     1
   7210   7216     1
   7214  12987     1
   7215  12984     1
   7216  12984     1
   7217  13010     1
   7218  13007     1
   7219  13007     1
   7221   7235     1
   7221   7236     1
   7221   7238     1
   7221   7239     1
   7221   7232     1
   7221   7233     1
   7222   7226     1
   7222   7227     1
   7222   7229     1
   7222   7230     1
   7222   7247     1
   7222   7248     1
   7223   7225     1
   7223   7228     1
   7223   7246     1
   7223   7235     1
   7223   7236     1
   7224   7225     1
   7224   7228     1
   7224   7246     1
   7224   7235     1
   7224   7236     1
   7225   7229     1
   7225   7230     1
   7225   7244     1
   7225   7245     1
   7226   7228     1
   7226   7243     1
   7226   7238     1
   7226   7239     1
   7227   7228     1
   7227   7243     1
   7227   7238     1
   7227   7239     1
   7228   7241     1
   7228   7242     1
   7229   7240     1
   7229   7232     1
   7229   7233     1
   7230   7240     1
   7230   7232     1
   7230   7233     1
   7232   7249     1
   7232   7241     1
   7232   7242     1
   7233   7249     1
   7233   7241     1
   7233   7242     1
   7235  13057     1
   7235   7247     1
   7235   7248     1
   7236  13057     1
   7236   7247     1
   7236   7248     1
   7238  13034     1
   7238   7244     1
   7238   7245     1
   7239  13034     1
   7239   7244     1
   7239   7245     1
   7243  13033     1
   7244  13030     1
   7245  13030     1
   7246  13056     1
   7247  13053     1
   7248  13053     1
   7250   7264     1
   7250   7265     1
   7250   7267     1
   7250   7268     1
   7250   7261     1
   7250   7262     1
   7251   7255     1
   7251   7256     1
   7251   7258     1
   7251   7259     1
   7251   7276     1
   7251   7277     1
   7252   7254     1
   7252   7257     1
   7252   7275     1
   7252   7264     1
   7252   7265     1
   7253   7254     1
   7253   7257     1
   7253   7275     1
   7253   7264     1
   7253   7265     1
   7254   7258     1
   7254   7259     1
   7254   7273     1
   7254   7274     1
   7255   7257     1
   7255   7272     1
   7255   7267     1
   7255   7268     1
   7256   7257     1
   7256   7272     1
   7256   7267     1
   7256   7268     1
   7257   7270     1
   7257   7271     1
   7258   7269     1
   7258   7261     1
   7258   7262     1
   7259   7269     1
   7259   7261     1
   7259   7262     1
   7261   7278     1
   7261   7270     1
   7261   7271     1
   7262   7278     1
   7262   7270     1
   7262   7271     1
   7264  13103     1
   7264   7276     1
   7264   7277     1
   7265  13103     1
   7265   7276     1
   7265   7277     1
   7267  13080     1
   7267   7273     1
   7267   7274     1
   7268  13080     1
   7268   7273     1
   7268   7274     1
   7272  13079     1
   7273  13076     1
   7274  13076     1
   7275  13102     1
   7276  13099     1
   7277  13099     1
   7279   7293     1
   7279   7294     1
   7279   7296     1
   7279   7297     1
   7279   7290     1
   7279   7291     1
   7280   7284     1
   7280   7285     1
   7280   7287     1
   7280   7288     1
   7280   7305     1
   7280   7306     1
   7281   7283     1
   7281   7286     1
   7281   7304     1
   7281   7293     1
   7281   7294     1
   7282   7283     1
   7282   7286     1
   7282   7304     1
   7282   7293     1
   7282   7294     1
   7283   7287     1
   7283   7288     1
   7283   7302     1
   7283   7303     1
   7284   7286     1
   7284   7301     1
   7284   7296     1
   7284   7297     1
   7285   7286     1
   7285   7301     1
   7285   7296     1
   7285   7297     1
   7286   7299     1
   7286   7300     1
   7287   7298     1
   7287   7290     1
   7287   7291     1
   7288   7298     1
   7288   7290     1
   7288   7291     1
   7290   7307     1
   7290   7299     1
   7290   7300     1
   7291   7307     1
   7291   7299     1
   7291   7300     1
   7293  13149     1
   7293   7305     1
   7293   7306     1
   7294  13149     1
   7294   7305     1
   7294   7306     1
   7296  13126     1
   7296   7302     1
   7296   7303     1
   7297  13126     1
   7297   7302     1
   7297   7303     1
   7301  13125     1
   7302  13122     1
   7303  13122     1
   7304  13148     1
   7305  13145     1
   7306  13145     1
   7308   7322     1
   7308   7323     1
   7308   7325     1
   7308   7326     1
   7308   7319     1
   7308   7320     1
   7309   7313     1
   7309   7314     1
   7309   7316     1
   7309   7317     1
   7309   7334     1
   7309   7335     1
   7310   7312     1
   7310   7315     1
   7310   7333     1
   7310   7322     1
   7310   7323     1
   7311   7312     1
   7311   7315     1
   7311   7333     1
   7311   7322     1
   7311   7323     1
   7312   7316     1
   7312   7317     1
   7312   7331     1
   7312   7332     1
   7313   7315     1
   7313   7330     1
   7313   7325     1
   7313   7326     1
   7314   7315     1
   7314   7330     1
   7314   7325     1
   7314   7326     1
   7315   7328     1
   7315   7329     1
   7316   7327     1
   7316   7319     1
   7316   7320     1
   7317   7327     1
   7317   7319     1
   7317   7320     1
   7319   7336     1
   7319   7328     1
   7319   7329     1
   7320   7336     1
   7320   7328     1
   7320   7329     1
   7322  13195     1
   7322   7334     1
   7322   7335     1
   7323  13195     1
   7323   7334     1
   7323   7335     1
   7325  13172     1
   7325   7331     1
   7325   7332     1
   7326  13172     1
   7326   7331     1
   7326   7332     1
   7330  13171     1
   7331  13168     1
   7332  13168     1
   7333  13194     1
   7334  13191     1
   7335  13191     1
   7337   7351     1
   7337   7352     1
   7337   7354     1
   7337   7355     1
   7337   7348     1
   7337   7349     1
   7338   7342     1
   7338   7343     1
   7338   7345     1
   7338   7346     1
   7338   7363     1
   7338   7364     1
   7339   7341     1
   7339   7344     1
   7339   7362     1
   7339   7351     1
   7339   7352     1
   7340   7341     1
   7340   7344     1
   7340   7362     1
   7340   7351     1
   7340   7352     1
   7341   7345     1
   7341   7346     1
   7341   7360     1
   7341   7361     1
   7342   7344     1
   7342   7359     1
   7342   7354     1
   7342   7355     1
   7343   7344     1
   7343   7359     1
   7343   7354     1
   7343   7355     1
   7344   7357     1
   7344   7358     1
   7345   7356     1
   7345   7348     1
   7345   7349     1
   7346   7356     1
   7346   7348     1
   7346   7349     1
   7348   7365     1
   7348   7357     1
   7348   7358     1
   7349   7365     1
   7349   7357     1
   7349   7358     1
   7351  13241     1
   7351   7363     1
   7351   7364     1
   7352  13241     1
   7352   7363     1
   7352   7364     1
   7354  13218     1
   7354   7360     1
   7354   7361     1
   7355  13218     1
   7355   7360     1
   7355   7361     1
   7359  13217     1
   7360  13214     1
   7361  13214     1
   7362  13240     1
   7363  13237     1
   7364  13237     1
   7366   7374     1
   7366   7382     1
   7366   7387     1
   7366   7375     1
   7367   7384     1
   7367   7385     1
   7367   7373     1
   7367   7381     1
   7368   7370     1
   7368   7379     1
   7368   7369     1
   7368   7386     1
   7368   7384     1
   7368   7385     1
   7368   7372     1
   7369   7380     1
   7369   7388     1
   7369   7371     1
   7369   7378     1
   7369   7374     1
   7369   7382     1
   7370   7382     1
   7370   7375     1
   7370   7383     1
   7371   7381     1
   7372   7374     1
   7372   7383     1
   7373   7378     1
   7373   7374     1
   7373   7376     1
   7373   7388     1
   7373   7375     1
   7373   7383     1
   7374   7379     1
   7374   7377     1
   7374   7381     1
   7375   7377     1
   7384   7388     1
   7384   7387     1
   7385   7388     1
   7385   7387     1
   7389   7397     1
   7389   7405     1
   7389   7410     1
   7389   7398     1
   7390   7396     1
   7390   7404     1
   7390   7407     1
   7390   7408     1
   7391   7393     1
   7391   7402     1
   7391   7392     1
   7391   7409     1
   7391   7407     1
   7391   7408     1
   7391   7395     1
   7392   7394     1
   7392   7401     1
   7392   7397     1
   7392   7405     1
   7392   7403     1
   7392   7411     1
   7393   7398     1
   7393   7406     1
   7393   7405     1
   7394   7404     1
   7395   7406     1
   7395   7397     1
   7396   7399     1
   7396   7411     1
   7396   7398     1
   7396   7406     1
   7396   7401     1
   7396   7397     1
   7397   7400     1
   7397   7404     1
   7397   7402     1
   7398   7400     1
   7407   7410     1
   7407   7411     1
   7408   7410     1
   7408   7411     1
   7412   7420     1
   7412   7428     1
   7412   7433     1
   7412   7421     1
   7413   7430     1
   7413   7431     1
   7413   7419     1
   7413   7427     1
   7414   7416     1
   7414   7425     1
   7414   7415     1
   7414   7432     1
   7414   7430     1
   7414   7431     1
   7414   7418     1
   7415   7426     1
   7415   7434     1
   7415   7417     1
   7415   7424     1
   7415   7420     1
   7415   7428     1
   7416   7428     1
   7416   7421     1
   7416   7429     1
   7417   7427     1
   7418   7420     1
   7418   7429     1
   7419   7424     1
   7419   7420     1
   7419   7422     1
   7419   7434     1
   7419   7421     1
   7419   7429     1
   7420   7425     1
   7420   7423     1
   7420   7427     1
   7421   7423     1
   7430   7434     1
   7430   7433     1
   7431   7434     1
   7431   7433     1
   7435   7443     1
   7435   7451     1
   7435   7456     1
   7435   7444     1
   7436   7442     1
   7436   7450     1
   7436   7453     1
   7436   7454     1
   7437   7439     1
   7437   7448     1
   7437   7438     1
   7437   7455     1
   7437   7453     1
   7437   7454     1
   7437   7441     1
   7438   7440     1
   7438   7447     1
   7438   7443     1
   7438   7451     1
   7438   7449     1
   7438   7457     1
   7439   7444     1
   7439   7452     1
   7439   7451     1
   7440   7450     1
   7441   7452     1
   7441   7443     1
   7442   7445     1
   7442   7457     1
   7442   7444     1
   7442   7452     1
   7442   7447     1
   7442   7443     1
   7443   7446     1
   7443   7450     1
   7443   7448     1
   7444   7446     1
   7453   7456     1
   7453   7457     1
   7454   7456     1
   7454   7457     1
   7458   7466     1
   7458   7474     1
   7458   7479     1
   7458   7467     1
   7459   7476     1
   7459   7477     1
   7459   7465     1
   7459   7473     1
   7460   7462     1
   7460   7471     1
   7460   7461     1
   7460   7478     1
   7460   7476     1
   7460   7477     1
   7460   7464     1
   7461   7472     1
   7461   7480     1
   7461   7463     1
   7461   7470     1
   7461   7466     1
   7461   7474     1
   7462   7474     1
   7462   7467     1
   7462   7475     1
   7463   7473     1
   7464   7466     1
   7464   7475     1
   7465   7470     1
   7465   7466     1
   7465   7468     1
   7465   7480     1
   7465   7467     1
   7465   7475     1
   7466   7471     1
   7466   7469     1
   7466   7473     1
   7467   7469     1
   7476   7480     1
   7476   7479     1
   7477   7480     1
   7477   7479     1
   7481   7489     1
   7481   7497     1
   7481   7502     1
   7481   7490     1
   7482   7488     1
   7482   7496     1
   7482   7499     1
   7482   7500     1
   7483   7485     1
   7483   7494     1
   7483   7484     1
   7483   7501     1
   7483   7499     1
   7483   7500     1
   7483   7487     1
   7484   7486     1
   7484   7493     1
   7484   7489     1
   7484   7497     1
   7484   7495     1
   7484   7503     1
   7485   7490     1
   7485   7498     1
   7485   7497     1
   7486   7496     1
   7487   7498     1
   7487   7489     1
   7488   7491     1
   7488   7503     1
   7488   7490     1
   7488   7498     1
   7488   7493     1
   7488   7489     1
   7489   7492     1
   7489   7496     1
   7489   7494     1
   7490   7492     1
   7499   7502     1
   7499   7503     1
   7500   7502     1
   7500   7503     1
   7504   7512     1
   7504   7520     1
   7504   7525     1
   7504   7513     1
   7505   7522     1
   7505   7523     1
   7505   7511     1
   7505   7519     1
   7506   7508     1
   7506   7517     1
   7506   7507     1
   7506   7524     1
   7506   7522     1
   7506   7523     1
   7506   7510     1
   7507   7518     1
   7507   7526     1
   7507   7509     1
   7507   7516     1
   7507   7512     1
   7507   7520     1
   7508   7520     1
   7508   7513     1
   7508   7521     1
   7509   7519     1
   7510   7512     1
   7510   7521     1
   7511   7516     1
   7511   7512     1
   7511   7514     1
   7511   7526     1
   7511   7513     1
   7511   7521     1
   7512   7517     1
   7512   7515     1
   7512   7519     1
   7513   7515     1
   7522   7526     1
   7522   7525     1
   7523   7526     1
   7523   7525     1
   7527   7535     1
   7527   7543     1
   7527   7548     1
   7527   7536     1
   7528   7534     1
   7528   7542     1
   7528   7545     1
   7528   7546     1
   7529   7531     1
   7529   7540     1
   7529   7530     1
   7529   7547     1
   7529   7545     1
   7529   7546     1
   7529   7533     1
   7530   7532     1
   7530   7539     1
   7530   7535     1
   7530   7543     1
   7530   7541     1
   7530   7549     1
   7531   7536     1
   7531   7544     1
   7531   7543     1
   7532   7542     1
   7533   7544     1
   7533   7535     1
   7534   7537     1
   7534   7549     1
   7534   7536     1
   7534   7544     1
   7534   7539     1
   7534   7535     1
   7535   7538     1
   7535   7542     1
   7535   7540     1
   7536   7538     1
   7545   7548     1
   7545   7549     1
   7546   7548     1
   7546   7549     1
   7550   7558     1
   7550   7566     1
   7550   7571     1
   7550   7559     1
   7551   7568     1
   7551   7569     1
   7551   7557     1
   7551   7565     1
   7552   7554     1
   7552   7563     1
   7552   7553     1
   7552   7570     1
   7552   7568     1
   7552   7569     1
   7552   7556     1
   7553   7564     1
   7553   7572     1
   7553   7555     1
   7553   7562     1
   7553   7558     1
   7553   7566     1
   7554   7566     1
   7554   7559     1
   7554   7567     1
   7555   7565     1
   7556   7558     1
   7556   7567     1
   7557   7562     1
   7557   7558     1
   7557   7560     1
   7557   7572     1
   7557   7559     1
   7557   7567     1
   7558   7563     1
   7558   7561     1
   7558   7565     1
   7559   7561     1
   7568   7572     1
   7568   7571     1
   7569   7572     1
   7569   7571     1
   7573   7581     1
   7573   7589     1
   7573   7594     1
   7573   7582     1
   7574   7580     1
   7574   7588     1
   7574   7591     1
   7574   7592     1
   7575   7577     1
   7575   7586     1
   7575   7576     1
   7575   7593     1
   7575   7591     1
   7575   7592     1
   7575   7579     1
   7576   7578     1
   7576   7585     1
   7576   7581     1
   7576   7589     1
   7576   7587     1
   7576   7595     1
   7577   7582     1
   7577   7590     1
   7577   7589     1
   7578   7588     1
   7579   7590     1
   7579   7581     1
   7580   7583     1
   7580   7595     1
   7580   7582     1
   7580   7590     1
   7580   7585     1
   7580   7581     1
   7581   7584     1
   7581   7588     1
   7581   7586     1
   7582   7584     1
   7591   7594     1
   7591   7595     1
   7592   7594     1
   7592   7595     1
   7596   7604     1
   7596   7612     1
   7596   7617     1
   7596   7605     1
   7597   7614     1
   7597   7615     1
   7597   7603     1
   7597   7611     1
   7598   7600     1
   7598   7609     1
   7598   7599     1
   7598   7616     1
   7598   7614     1
   7598   7615     1
   7598   7602     1
   7599   7610     1
   7599   7618     1
   7599   7601     1
   7599   7608     1
   7599   7604     1
   7599   7612     1
   7600   7612     1
   7600   7605     1
   7600   7613     1
   7601   7611     1
   7602   7604     1
   7602   7613     1
   7603   7608     1
   7603   7604     1
   7603   7606     1
   7603   7618     1
   7603   7605     1
   7603   7613     1
   7604   7609     1
   7604   7607     1
   7604   7611     1
   7605   7607     1
   7614   7618     1
   7614   7617     1
   7615   7618     1
   7615   7617     1
   7619   7627     1
   7619   7635     1
   7619   7640     1
   7619   7628     1
   7620   7626     1
   7620   7634     1
   7620   7637     1
   7620   7638     1
   7621   7623     1
   7621   7632     1
   7621   7622     1
   7621   7639     1
   7621   7637     1
   7621   7638     1
   7621   7625     1
   7622   7624     1
   7622   7631     1
   7622   7627     1
   7622   7635     1
   7622   7633     1
   7622   7641     1
   7623   7628     1
   7623   7636     1
   7623   7635     1
   7624   7634     1
   7625   7636     1
   7625   7627     1
   7626   7629     1
   7626   7641     1
   7626   7628     1
   7626   7636     1
   7626   7631     1
   7626   7627     1
   7627   7630     1
   7627   7634     1
   7627   7632     1
   7628   7630     1
   7637   7640     1
   7637   7641     1
   7638   7640     1
   7638   7641     1
   7642   7650     1
   7642   7658     1
   7642   7663     1
   7642   7651     1
   7643   7660     1
   7643   7661     1
   7643   7649     1
   7643   7657     1
   7644   7646     1
   7644   7655     1
   7644   7645     1
   7644   7662     1
   7644   7660     1
   7644   7661     1
   7644   7648     1
   7645   7656     1
   7645   7664     1
   7645   7647     1
   7645   7654     1
   7645   7650     1
   7645   7658     1
   7646   7658     1
   7646   7651     1
   7646   7659     1
   7647   7657     1
   7648   7650     1
   7648   7659     1
   7649   7654     1
   7649   7650     1
   7649   7652     1
   7649   7664     1
   7649   7651     1
   7649   7659     1
   7650   7655     1
   7650   7653     1
   7650   7657     1
   7651   7653     1
   7660   7664     1
   7660   7663     1
   7661   7664     1
   7661   7663     1
   7665   7673     1
   7665   7681     1
   7665   7686     1
   7665   7674     1
   7666   7672     1
   7666   7680     1
   7666   7683     1
   7666   7684     1
   7667   7669     1
   7667   7678     1
   7667   7668     1
   7667   7685     1
   7667   7683     1
   7667   7684     1
   7667   7671     1
   7668   7670     1
   7668   7677     1
   7668   7673     1
   7668   7681     1
   7668   7679     1
   7668   7687     1
   7669   7674     1
   7669   7682     1
   7669   7681     1
   7670   7680     1
   7671   7682     1
   7671   7673     1
   7672   7675     1
   7672   7687     1
   7672   7674     1
   7672   7682     1
   7672   7677     1
   7672   7673     1
   7673   7676     1
   7673   7680     1
   7673   7678     1
   7674   7676     1
   7683   7686     1
   7683   7687     1
   7684   7686     1
   7684   7687     1
   7688   7696     1
   7688   7704     1
   7688   7709     1
   7688   7697     1
   7689   7706     1
   7689   7707     1
   7689   7695     1
   7689   7703     1
   7690   7692     1
   7690   7701     1
   7690   7691     1
   7690   7708     1
   7690   7706     1
   7690   7707     1
   7690   7694     1
   7691   7702     1
   7691   7710     1
   7691   7693     1
   7691   7700     1
   7691   7696     1
   7691   7704     1
   7692   7704     1
   7692   7697     1
   7692   7705     1
   7693   7703     1
   7694   7696     1
   7694   7705     1
   7695   7700     1
   7695   7696     1
   7695   7698     1
   7695   7710     1
   7695   7697     1
   7695   7705     1
   7696   7701     1
   7696   7699     1
   7696   7703     1
   7697   7699     1
   7706   7710     1
   7706   7709     1
   7707   7710     1
   7707   7709     1
   7711   7719     1
   7711   7727     1
   7711   7732     1
   7711   7720     1
   7712   7718     1
   7712   7726     1
   7712   7729     1
   7712   7730     1
   7713   7715     1
   7713   7724     1
   7713   7714     1
   7713   7731     1
   7713   7729     1
   7713   7730     1
   7713   7717     1
   7714   7716     1
   7714   7723     1
   7714   7719     1
   7714   7727     1
   7714   7725     1
   7714   7733     1
   7715   7720     1
   7715   7728     1
   7715   7727     1
   7716   7726     1
   7717   7728     1
   7717   7719     1
   7718   7721     1
   7718   7733     1
   7718   7720     1
   7718   7728     1
   7718   7723     1
   7718   7719     1
   7719   7722     1
   7719   7726     1
   7719   7724     1
   7720   7722     1
   7729   7732     1
   7729   7733     1
   7730   7732     1
   7730   7733     1
   7734   7742     1
   7734   7750     1
   7734   7755     1
   7734   7743     1
   7735   7752     1
   7735   7753     1
   7735   7741     1
   7735   7749     1
   7736   7738     1
   7736   7747     1
   7736   7737     1
   7736   7754     1
   7736   7752     1
   7736   7753     1
   7736   7740     1
   7737   7748     1
   7737   7756     1
   7737   7739     1
   7737   7746     1
   7737   7742     1
   7737   7750     1
   7738   7750     1
   7738   7743     1
   7738   7751     1
   7739   7749     1
   7740   7742     1
   7740   7751     1
   7741   7746     1
   7741   7742     1
   7741   7744     1
   7741   7756     1
   7741   7743     1
   7741   7751     1
   7742   7747     1
   7742   7745     1
   7742   7749     1
   7743   7745     1
   7752   7756     1
   7752   7755     1
   7753   7756     1
   7753   7755     1
   7757   7765     1
   7757   7773     1
   7757   7778     1
   7757   7766     1
   7758   7764     1
   7758   7772     1
   7758   7775     1
   7758   7776     1
   7759   7761     1
   7759   7770     1
   7759   7760     1
   7759   7777     1
   7759   7775     1
   7759   7776     1
   7759   7763     1
   7760   7762     1
   7760   7769     1
   7760   7765     1
   7760   7773     1
   7760   7771     1
   7760   7779     1
   7761   7766     1
   7761   7774     1
   7761   7773     1
   7762   7772     1
   7763   7774     1
   7763   7765     1
   7764   7767     1
   7764   7779     1
   7764   7766     1
   7764   7774     1
   7764   7769     1
   7764   7765     1
   7765   7768     1
   7765   7772     1
   7765   7770     1
   7766   7768     1
   7775   7778     1
   7775   7779     1
   7776   7778     1
   7776   7779     1
   7780   7788     1
   7780   7796     1
   7780   7801     1
   7780   7789     1
   7781   7798     1
   7781   7799     1
   7781   7787     1
   7781   7795     1
   7782   7784     1
   7782   7793     1
   7782   7783     1
   7782   7800     1
   7782   7798     1
   7782   7799     1
   7782   7786     1
   7783   7794     1
   7783   7802     1
   7783   7785     1
   7783   7792     1
   7783   7788     1
   7783   7796     1
   7784   7796     1
   7784   7789     1
   7784   7797     1
   7785   7795     1
   7786   7788     1
   7786   7797     1
   7787   7792     1
   7787   7788     1
   7787   7790     1
   7787   7802     1
   7787   7789     1
   7787   7797     1
   7788   7793     1
   7788   7791     1
   7788   7795     1
   7789   7791     1
   7798   7802     1
   7798   7801     1
   7799   7802     1
   7799   7801     1
   7803   7811     1
   7803   7819     1
   7803   7824     1
   7803   7812     1
   7804   7810     1
   7804   7818     1
   7804   7821     1
   7804   7822     1
   7805   7807     1
   7805   7816     1
   7805   7806     1
   7805   7823     1
   7805   7821     1
   7805   7822     1
   7805   7809     1
   7806   7808     1
   7806   7815     1
   7806   7811     1
   7806   7819     1
   7806   7817     1
   7806   7825     1
   7807   7812     1
   7807   7820     1
   7807   7819     1
   7808   7818     1
   7809   7820     1
   7809   7811     1
   7810   7813     1
   7810   7825     1
   7810   7812     1
   7810   7820     1
   7810   7815     1
   7810   7811     1
   7811   7814     1
   7811   7818     1
   7811   7816     1
   7812   7814     1
   7821   7824     1
   7821   7825     1
   7822   7824     1
   7822   7825     1
   7826   7834     1
   7826   7842     1
   7826   7847     1
   7826   7835     1
   7827   7844     1
   7827   7845     1
   7827   7833     1
   7827   7841     1
   7828   7830     1
   7828   7839     1
   7828   7829     1
   7828   7846     1
   7828   7844     1
   7828   7845     1
   7828   7832     1
   7829   7840     1
   7829   7848     1
   7829   7831     1
   7829   7838     1
   7829   7834     1
   7829   7842     1
   7830   7842     1
   7830   7835     1
   7830   7843     1
   7831   7841     1
   7832   7834     1
   7832   7843     1
   7833   7838     1
   7833   7834     1
   7833   7836     1
   7833   7848     1
   7833   7835     1
   7833   7843     1
   7834   7839     1
   7834   7837     1
   7834   7841     1
   7835   7837     1
   7844   7848     1
   7844   7847     1
   7845   7848     1
   7845   7847     1
   7849   7857     1
   7849   7865     1
   7849   7870     1
   7849   7858     1
   7850   7856     1
   7850   7864     1
   7850   7867     1
   7850   7868     1
   7851   7853     1
   7851   7862     1
   7851   7852     1
   7851   7869     1
   7851   7867     1
   7851   7868     1
   7851   7855     1
   7852   7854     1
   7852   7861     1
   7852   7857     1
   7852   7865     1
   7852   7863     1
   7852   7871     1
   7853   7858     1
   7853   7866     1
   7853   7865     1
   7854   7864     1
   7855   7866     1
   7855   7857     1
   7856   7859     1
   7856   7871     1
   7856   7858     1
   7856   7866     1
   7856   7861     1
   7856   7857     1
   7857   7860     1
   7857   7864     1
   7857   7862     1
   7858   7860     1
   7867   7870     1
   7867   7871     1
   7868   7870     1
   7868   7871     1
   7872   7880     1
   7872   7888     1
   7872   7893     1
   7872   7881     1
   7873   7890     1
   7873   7891     1
   7873   7879     1
   7873   7887     1
   7874   7876     1
   7874   7885     1
   7874   7875     1
   7874   7892     1
   7874   7890     1
   7874   7891     1
   7874   7878     1
   7875   7886     1
   7875   7894     1
   7875   7877     1
   7875   7884     1
   7875   7880     1
   7875   7888     1
   7876   7888     1
   7876   7881     1
   7876   7889     1
   7877   7887     1
   7878   7880     1
   7878   7889     1
   7879   7884     1
   7879   7880     1
   7879   7882     1
   7879   7894     1
   7879   7881     1
   7879   7889     1
   7880   7885     1
   7880   7883     1
   7880   7887     1
   7881   7883     1
   7890   7894     1
   7890   7893     1
   7891   7894     1
   7891   7893     1
   7895   7903     1
   7895   7911     1
   7895   7916     1
   7895   7904     1
   7896   7902     1
   7896   7910     1
   7896   7913     1
   7896   7914     1
   7897   7899     1
   7897   7908     1
   7897   7898     1
   7897   7915     1
   7897   7913     1
   7897   7914     1
   7897   7901     1
   7898   7900     1
   7898   7907     1
   7898   7903     1
   7898   7911     1
   7898   7909     1
   7898   7917     1
   7899   7904     1
   7899   7912     1
   7899   7911     1
   7900   7910     1
   7901   7912     1
   7901   7903     1
   7902   7905     1
   7902   7917     1
   7902   7904     1
   7902   7912     1
   7902   7907     1
   7902   7903     1
   7903   7906     1
   7903   7910     1
   7903   7908     1
   7904   7906     1
   7913   7916     1
   7913   7917     1
   7914   7916     1
   7914   7917     1
   7918   7926     1
   7918   7934     1
   7918   7939     1
   7918   7927     1
   7919   7936     1
   7919   7937     1
   7919   7925     1
   7919   7933     1
   7920   7922     1
   7920   7931     1
   7920   7921     1
   7920   7938     1
   7920   7936     1
   7920   7937     1
   7920   7924     1
   7921   7932     1
   7921   7940     1
   7921   7923     1
   7921   7930     1
   7921   7926     1
   7921   7934     1
   7922   7934     1
   7922   7927     1
   7922   7935     1
   7923   7933     1
   7924   7926     1
   7924   7935     1
   7925   7930     1
   7925   7926     1
   7925   7928     1
   7925   7940     1
   7925   7927     1
   7925   7935     1
   7926   7931     1
   7926   7929     1
   7926   7933     1
   7927   7929     1
   7936   7940     1
   7936   7939     1
   7937   7940     1
   7937   7939     1
   7941   7949     1
   7941   7957     1
   7941   7962     1
   7941   7950     1
   7942   7948     1
   7942   7956     1
   7942   7959     1
   7942   7960     1
   7943   7945     1
   7943   7954     1
   7943   7944     1
   7943   7961     1
   7943   7959     1
   7943   7960     1
   7943   7947     1
   7944   7946     1
   7944   7953     1
   7944   7949     1
   7944   7957     1
   7944   7955     1
   7944   7963     1
   7945   7950     1
   7945   7958     1
   7945   7957     1
   7946   7956     1
   7947   7958     1
   7947   7949     1
   7948   7951     1
   7948   7963     1
   7948   7950     1
   7948   7958     1
   7948   7953     1
   7948   7949     1
   7949   7952     1
   7949   7956     1
   7949   7954     1
   7950   7952     1
   7959   7962     1
   7959   7963     1
   7960   7962     1
   7960   7963     1
   7964   7972     1
   7964   7980     1
   7964   7985     1
   7964   7973     1
   7965   7982     1
   7965   7983     1
   7965   7971     1
   7965   7979     1
   7966   7968     1
   7966   7977     1
   7966   7967     1
   7966   7984     1
   7966   7982     1
   7966   7983     1
   7966   7970     1
   7967   7978     1
   7967   7986     1
   7967   7969     1
   7967   7976     1
   7967   7972     1
   7967   7980     1
   7968   7980     1
   7968   7973     1
   7968   7981     1
   7969   7979     1
   7970   7972     1
   7970   7981     1
   7971   7976     1
   7971   7972     1
   7971   7974     1
   7971   7986     1
   7971   7973     1
   7971   7981     1
   7972   7977     1
   7972   7975     1
   7972   7979     1
   7973   7975     1
   7982   7986     1
   7982   7985     1
   7983   7986     1
   7983   7985     1
   7987   7995     1
   7987   8003     1
   7987   8008     1
   7987   7996     1
   7988   7994     1
   7988   8002     1
   7988   8005     1
   7988   8006     1
   7989   7991     1
   7989   8000     1
   7989   7990     1
   7989   8007     1
   7989   8005     1
   7989   8006     1
   7989   7993     1
   7990   7992     1
   7990   7999     1
   7990   7995     1
   7990   8003     1
   7990   8001     1
   7990   8009     1
   7991   7996     1
   7991   8004     1
   7991   8003     1
   7992   8002     1
   7993   8004     1
   7993   7995     1
   7994   7997     1
   7994   8009     1
   7994   7996     1
   7994   8004     1
   7994   7999     1
   7994   7995     1
   7995   7998     1
   7995   8002     1
   7995   8000     1
   7996   7998     1
   8005   8008     1
   8005   8009     1
   8006   8008     1
   8006   8009     1
   8010   8018     1
   8010   8026     1
   8010   8031     1
   8010   8019     1
   8011   8028     1
   8011   8029     1
   8011   8017     1
   8011   8025     1
   8012   8014     1
   8012   8023     1
   8012   8013     1
   8012   8030     1
   8012   8028     1
   8012   8029     1
   8012   8016     1
   8013   8024     1
   8013   8032     1
   8013   8015     1
   8013   8022     1
   8013   8018     1
   8013   8026     1
   8014   8026     1
   8014   8019     1
   8014   8027     1
   8015   8025     1
   8016   8018     1
   8016   8027     1
   8017   8022     1
   8017   8018     1
   8017   8020     1
   8017   8032     1
   8017   8019     1
   8017   8027     1
   8018   8023     1
   8018   8021     1
   8018   8025     1
   8019   8021     1
   8028   8032     1
   8028   8031     1
   8029   8032     1
   8029   8031     1
   8033   8041     1
   8033   8049     1
   8033   8054     1
   8033   8042     1
   8034   8040     1
   8034   8048     1
   8034   8051     1
   8034   8052     1
   8035   8037     1
   8035   8046     1
   8035   8036     1
   8035   8053     1
   8035   8051     1
   8035   8052     1
   8035   8039     1
   8036   8038     1
   8036   8045     1
   8036   8041     1
   8036   8049     1
   8036   8047     1
   8036   8055     1
   8037   8042     1
   8037   8050     1
   8037   8049     1
   8038   8048     1
   8039   8050     1
   8039   8041     1
   8040   8043     1
   8040   8055     1
   8040   8042     1
   8040   8050     1
   8040   8045     1
   8040   8041     1
   8041   8044     1
   8041   8048     1
   8041   8046     1
   8042   8044     1
   8051   8054     1
   8051   8055     1
   8052   8054     1
   8052   8055     1
   8056   8064     1
   8056   8072     1
   8056   8077     1
   8056   8065     1
   8057   8074     1
   8057   8075     1
   8057   8063     1
   8057   8071     1
   8058   8060     1
   8058   8069     1
   8058   8059     1
   8058   8076     1
   8058   8074     1
   8058   8075     1
   8058   8062     1
   8059   8070     1
   8059   8078     1
   8059   8061     1
   8059   8068     1
   8059   8064     1
   8059   8072     1
   8060   8072     1
   8060   8065     1
   8060   8073     1
   8061   8071     1
   8062   8064     1
   8062   8073     1
   8063   8068     1
   8063   8064     1
   8063   8066     1
   8063   8078     1
   8063   8065     1
   8063   8073     1
   8064   8069     1
   8064   8067     1
   8064   8071     1
   8065   8067     1
   8074   8078     1
   8074   8077     1
   8075   8078     1
   8075   8077     1
   8079   8087     1
   8079   8095     1
   8079   8100     1
   8079   8088     1
   8080   8086     1
   8080   8094     1
   8080   8097     1
   8080   8098     1
   8081   8083     1
   8081   8092     1
   8081   8082     1
   8081   8099     1
   8081   8097     1
   8081   8098     1
   8081   8085     1
   8082   8084     1
   8082   8091     1
   8082   8087     1
   8082   8095     1
   8082   8093     1
   8082   8101     1
   8083   8088     1
   8083   8096     1
   8083   8095     1
   8084   8094     1
   8085   8096     1
   8085   8087     1
   8086   8089     1
   8086   8101     1
   8086   8088     1
   8086   8096     1
   8086   8091     1
   8086   8087     1
   8087   8090     1
   8087   8094     1
   8087   8092     1
   8088   8090     1
   8097   8100     1
   8097   8101     1
   8098   8100     1
   8098   8101     1
   8102   8110     1
   8102   8118     1
   8102   8123     1
   8102   8111     1
   8103   8120     1
   8103   8121     1
   8103   8109     1
   8103   8117     1
   8104   8106     1
   8104   8115     1
   8104   8105     1
   8104   8122     1
   8104   8120     1
   8104   8121     1
   8104   8108     1
   8105   8116     1
   8105   8124     1
   8105   8107     1
   8105   8114     1
   8105   8110     1
   8105   8118     1
   8106   8118     1
   8106   8111     1
   8106   8119     1
   8107   8117     1
   8108   8110     1
   8108   8119     1
   8109   8114     1
   8109   8110     1
   8109   8112     1
   8109   8124     1
   8109   8111     1
   8109   8119     1
   8110   8115     1
   8110   8113     1
   8110   8117     1
   8111   8113     1
   8120   8124     1
   8120   8123     1
   8121   8124     1
   8121   8123     1
   8125   8133     1
   8125   8141     1
   8125   8146     1
   8125   8134     1
   8126   8132     1
   8126   8140     1
   8126   8143     1
   8126   8144     1
   8127   8129     1
   8127   8138     1
   8127   8128     1
   8127   8145     1
   8127   8143     1
   8127   8144     1
   8127   8131     1
   8128   8130     1
   8128   8137     1
   8128   8133     1
   8128   8141     1
   8128   8139     1
   8128   8147     1
   8129   8134     1
   8129   8142     1
   8129   8141     1
   8130   8140     1
   8131   8142     1
   8131   8133     1
   8132   8135     1
   8132   8147     1
   8132   8134     1
   8132   8142     1
   8132   8137     1
   8132   8133     1
   8133   8136     1
   8133   8140     1
   8133   8138     1
   8134   8136     1
   8143   8146     1
   8143   8147     1
   8144   8146     1
   8144   8147     1
   8148   8156     1
   8148   8164     1
   8148   8169     1
   8148   8157     1
   8149   8166     1
   8149   8167     1
   8149   8155     1
   8149   8163     1
   8150   8152     1
   8150   8161     1
   8150   8151     1
   8150   8168     1
   8150   8166     1
   8150   8167     1
   8150   8154     1
   8151   8162     1
   8151   8170     1
   8151   8153     1
   8151   8160     1
   8151   8156     1
   8151   8164     1
   8152   8164     1
   8152   8157     1
   8152   8165     1
   8153   8163     1
   8154   8156     1
   8154   8165     1
   8155   8160     1
   8155   8156     1
   8155   8158     1
   8155   8170     1
   8155   8157     1
   8155   8165     1
   8156   8161     1
   8156   8159     1
   8156   8163     1
   8157   8159     1
   8166   8170     1
   8166   8169     1
   8167   8170     1
   8167   8169     1
   8171   8179     1
   8171   8187     1
   8171   8192     1
   8171   8180     1
   8172   8178     1
   8172   8186     1
   8172   8189     1
   8172   8190     1
   8173   8175     1
   8173   8184     1
   8173   8174     1
   8173   8191     1
   8173   8189     1
   8173   8190     1
   8173   8177     1
   8174   8176     1
   8174   8183     1
   8174   8179     1
   8174   8187     1
   8174   8185     1
   8174   8193     1
   8175   8180     1
   8175   8188     1
   8175   8187     1
   8176   8186     1
   8177   8188     1
   8177   8179     1
   8178   8181     1
   8178   8193     1
   8178   8180     1
   8178   8188     1
   8178   8183     1
   8178   8179     1
   8179   8182     1
   8179   8186     1
   8179   8184     1
   8180   8182     1
   8189   8192     1
   8189   8193     1
   8190   8192     1
   8190   8193     1
   8194   8202     1
   8194   8210     1
   8194   8215     1
   8194   8203     1
   8195   8212     1
   8195   8213     1
   8195   8201     1
   8195   8209     1
   8196   8198     1
   8196   8207     1
   8196   8197     1
   8196   8214     1
   8196   8212     1
   8196   8213     1
   8196   8200     1
   8197   8208     1
   8197   8216     1
   8197   8199     1
   8197   8206     1
   8197   8202     1
   8197   8210     1
   8198   8210     1
   8198   8203     1
   8198   8211     1
   8199   8209     1
   8200   8202     1
   8200   8211     1
   8201   8206     1
   8201   8202     1
   8201   8204     1
   8201   8216     1
   8201   8203     1
   8201   8211     1
   8202   8207     1
   8202   8205     1
   8202   8209     1
   8203   8205     1
   8212   8216     1
   8212   8215     1
   8213   8216     1
   8213   8215     1
   8217   8225     1
   8217   8233     1
   8217   8238     1
   8217   8226     1
   8218   8224     1
   8218   8232     1
   8218   8235     1
   8218   8236     1
   8219   8221     1
   8219   8230     1
   8219   8220     1
   8219   8237     1
   8219   8235     1
   8219   8236     1
   8219   8223     1
   8220   8222     1
   8220   8229     1
   8220   8225     1
   8220   8233     1
   8220   8231     1
   8220   8239     1
   8221   8226     1
   8221   8234     1
   8221   8233     1
   8222   8232     1
   8223   8234     1
   8223   8225     1
   8224   8227     1
   8224   8239     1
   8224   8226     1
   8224   8234     1
   8224   8229     1
   8224   8225     1
   8225   8228     1
   8225   8232     1
   8225   8230     1
   8226   8228     1
   8235   8238     1
   8235   8239     1
   8236   8238     1
   8236   8239     1
   8240   8248     1
   8240   8256     1
   8240   8261     1
   8240   8249     1
   8241   8258     1
   8241   8259     1
   8241   8247     1
   8241   8255     1
   8242   8244     1
   8242   8253     1
   8242   8243     1
   8242   8260     1
   8242   8258     1
   8242   8259     1
   8242   8246     1
   8243   8254     1
   8243   8262     1
   8243   8245     1
   8243   8252     1
   8243   8248     1
   8243   8256     1
   8244   8256     1
   8244   8249     1
   8244   8257     1
   8245   8255     1
   8246   8248     1
   8246   8257     1
   8247   8252     1
   8247   8248     1
   8247   8250     1
   8247   8262     1
   8247   8249     1
   8247   8257     1
   8248   8253     1
   8248   8251     1
   8248   8255     1
   8249   8251     1
   8258   8262     1
   8258   8261     1
   8259   8262     1
   8259   8261     1
   8263   8271     1
   8263   8279     1
   8263   8284     1
   8263   8272     1
   8264   8270     1
   8264   8278     1
   8264   8281     1
   8264   8282     1
   8265   8267     1
   8265   8276     1
   8265   8266     1
   8265   8283     1
   8265   8281     1
   8265   8282     1
   8265   8269     1
   8266   8268     1
   8266   8275     1
   8266   8271     1
   8266   8279     1
   8266   8277     1
   8266   8285     1
   8267   8272     1
   8267   8280     1
   8267   8279     1
   8268   8278     1
   8269   8280     1
   8269   8271     1
   8270   8273     1
   8270   8285     1
   8270   8272     1
   8270   8280     1
   8270   8275     1
   8270   8271     1
   8271   8274     1
   8271   8278     1
   8271   8276     1
   8272   8274     1
   8281   8284     1
   8281   8285     1
   8282   8284     1
   8282   8285     1
   8286   8294     1
   8286   8302     1
   8286   8307     1
   8286   8295     1
   8287   8304     1
   8287   8305     1
   8287   8293     1
   8287   8301     1
   8288   8290     1
   8288   8299     1
   8288   8289     1
   8288   8306     1
   8288   8304     1
   8288   8305     1
   8288   8292     1
   8289   8300     1
   8289   8308     1
   8289   8291     1
   8289   8298     1
   8289   8294     1
   8289   8302     1
   8290   8302     1
   8290   8295     1
   8290   8303     1
   8291   8301     1
   8292   8294     1
   8292   8303     1
   8293   8298     1
   8293   8294     1
   8293   8296     1
   8293   8308     1
   8293   8295     1
   8293   8303     1
   8294   8299     1
   8294   8297     1
   8294   8301     1
   8295   8297     1
   8304   8308     1
   8304   8307     1
   8305   8308     1
   8305   8307     1
   8309   8317     1
   8309   8325     1
   8309   8330     1
   8309   8318     1
   8310   8316     1
   8310   8324     1
   8310   8327     1
   8310   8328     1
   8311   8313     1
   8311   8322     1
   8311   8312     1
   8311   8329     1
   8311   8327     1
   8311   8328     1
   8311   8315     1
   8312   8314     1
   8312   8321     1
   8312   8317     1
   8312   8325     1
   8312   8323     1
   8312   8331     1
   8313   8318     1
   8313   8326     1
   8313   8325     1
   8314   8324     1
   8315   8326     1
   8315   8317     1
   8316   8319     1
   8316   8331     1
   8316   8318     1
   8316   8326     1
   8316   8321     1
   8316   8317     1
   8317   8320     1
   8317   8324     1
   8317   8322     1
   8318   8320     1
   8327   8330     1
   8327   8331     1
   8328   8330     1
   8328   8331     1
   8332   8340     1
   8332   8348     1
   8332   8353     1
   8332   8341     1
   8333   8350     1
   8333   8351     1
   8333   8339     1
   8333   8347     1
   8334   8336     1
   8334   8345     1
   8334   8335     1
   8334   8352     1
   8334   8350     1
   8334   8351     1
   8334   8338     1
   8335   8346     1
   8335   8354     1
   8335   8337     1
   8335   8344     1
   8335   8340     1
   8335   8348     1
   8336   8348     1
   8336   8341     1
   8336   8349     1
   8337   8347     1
   8338   8340     1
   8338   8349     1
   8339   8344     1
   8339   8340     1
   8339   8342     1
   8339   8354     1
   8339   8341     1
   8339   8349     1
   8340   8345     1
   8340   8343     1
   8340   8347     1
   8341   8343     1
   8350   8354     1
   8350   8353     1
   8351   8354     1
   8351   8353     1
   8355   8363     1
   8355   8371     1
   8355   8376     1
   8355   8364     1
   8356   8362     1
   8356   8370     1
   8356   8373     1
   8356   8374     1
   8357   8359     1
   8357   8368     1
   8357   8358     1
   8357   8375     1
   8357   8373     1
   8357   8374     1
   8357   8361     1
   8358   8360     1
   8358   8367     1
   8358   8363     1
   8358   8371     1
   8358   8369     1
   8358   8377     1
   8359   8364     1
   8359   8372     1
   8359   8371     1
   8360   8370     1
   8361   8372     1
   8361   8363     1
   8362   8365     1
   8362   8377     1
   8362   8364     1
   8362   8372     1
   8362   8367     1
   8362   8363     1
   8363   8366     1
   8363   8370     1
   8363   8368     1
   8364   8366     1
   8373   8376     1
   8373   8377     1
   8374   8376     1
   8374   8377     1
   8378   8386     1
   8378   8394     1
   8378   8399     1
   8378   8387     1
   8379   8396     1
   8379   8397     1
   8379   8385     1
   8379   8393     1
   8380   8382     1
   8380   8391     1
   8380   8381     1
   8380   8398     1
   8380   8396     1
   8380   8397     1
   8380   8384     1
   8381   8392     1
   8381   8400     1
   8381   8383     1
   8381   8390     1
   8381   8386     1
   8381   8394     1
   8382   8394     1
   8382   8387     1
   8382   8395     1
   8383   8393     1
   8384   8386     1
   8384   8395     1
   8385   8390     1
   8385   8386     1
   8385   8388     1
   8385   8400     1
   8385   8387     1
   8385   8395     1
   8386   8391     1
   8386   8389     1
   8386   8393     1
   8387   8389     1
   8396   8400     1
   8396   8399     1
   8397   8400     1
   8397   8399     1
   8401   8409     1
   8401   8417     1
   8401   8422     1
   8401   8410     1
   8402   8408     1
   8402   8416     1
   8402   8419     1
   8402   8420     1
   8403   8405     1
   8403   8414     1
   8403   8404     1
   8403   8421     1
   8403   8419     1
   8403   8420     1
   8403   8407     1
   8404   8406     1
   8404   8413     1
   8404   8409     1
   8404   8417     1
   8404   8415     1
   8404   8423     1
   8405   8410     1
   8405   8418     1
   8405   8417     1
   8406   8416     1
   8407   8418     1
   8407   8409     1
   8408   8411     1
   8408   8423     1
   8408   8410     1
   8408   8418     1
   8408   8413     1
   8408   8409     1
   8409   8412     1
   8409   8416     1
   8409   8414     1
   8410   8412     1
   8419   8422     1
   8419   8423     1
   8420   8422     1
   8420   8423     1
   8424   8432     1
   8424   8440     1
   8424   8445     1
   8424   8433     1
   8425   8442     1
   8425   8443     1
   8425   8431     1
   8425   8439     1
   8426   8428     1
   8426   8437     1
   8426   8427     1
   8426   8444     1
   8426   8442     1
   8426   8443     1
   8426   8430     1
   8427   8438     1
   8427   8446     1
   8427   8429     1
   8427   8436     1
   8427   8432     1
   8427   8440     1
   8428   8440     1
   8428   8433     1
   8428   8441     1
   8429   8439     1
   8430   8432     1
   8430   8441     1
   8431   8436     1
   8431   8432     1
   8431   8434     1
   8431   8446     1
   8431   8433     1
   8431   8441     1
   8432   8437     1
   8432   8435     1
   8432   8439     1
   8433   8435     1
   8442   8446     1
   8442   8445     1
   8443   8446     1
   8443   8445     1
   8447   8455     1
   8447   8463     1
   8447   8468     1
   8447   8456     1
   8448   8454     1
   8448   8462     1
   8448   8465     1
   8448   8466     1
   8449   8451     1
   8449   8460     1
   8449   8450     1
   8449   8467     1
   8449   8465     1
   8449   8466     1
   8449   8453     1
   8450   8452     1
   8450   8459     1
   8450   8455     1
   8450   8463     1
   8450   8461     1
   8450   8469     1
   8451   8456     1
   8451   8464     1
   8451   8463     1
   8452   8462     1
   8453   8464     1
   8453   8455     1
   8454   8457     1
   8454   8469     1
   8454   8456     1
   8454   8464     1
   8454   8459     1
   8454   8455     1
   8455   8458     1
   8455   8462     1
   8455   8460     1
   8456   8458     1
   8465   8468     1
   8465   8469     1
   8466   8468     1
   8466   8469     1
   8470   8478     1
   8470   8486     1
   8470   8491     1
   8470   8479     1
   8471   8488     1
   8471   8489     1
   8471   8477     1
   8471   8485     1
   8472   8474     1
   8472   8483     1
   8472   8473     1
   8472   8490     1
   8472   8488     1
   8472   8489     1
   8472   8476     1
   8473   8484     1
   8473   8492     1
   8473   8475     1
   8473   8482     1
   8473   8478     1
   8473   8486     1
   8474   8486     1
   8474   8479     1
   8474   8487     1
   8475   8485     1
   8476   8478     1
   8476   8487     1
   8477   8482     1
   8477   8478     1
   8477   8480     1
   8477   8492     1
   8477   8479     1
   8477   8487     1
   8478   8483     1
   8478   8481     1
   8478   8485     1
   8479   8481     1
   8488   8492     1
   8488   8491     1
   8489   8492     1
   8489   8491     1
   8493   8501     1
   8493   8509     1
   8493   8514     1
   8493   8502     1
   8494   8500     1
   8494   8508     1
   8494   8511     1
   8494   8512     1
   8495   8497     1
   8495   8506     1
   8495   8496     1
   8495   8513     1
   8495   8511     1
   8495   8512     1
   8495   8499     1
   8496   8498     1
   8496   8505     1
   8496   8501     1
   8496   8509     1
   8496   8507     1
   8496   8515     1
   8497   8502     1
   8497   8510     1
   8497   8509     1
   8498   8508     1
   8499   8510     1
   8499   8501     1
   8500   8503     1
   8500   8515     1
   8500   8502     1
   8500   8510     1
   8500   8505     1
   8500   8501     1
   8501   8504     1
   8501   8508     1
   8501   8506     1
   8502   8504     1
   8511   8514     1
   8511   8515     1
   8512   8514     1
   8512   8515     1
   8516   8524     1
   8516   8532     1
   8516   8537     1
   8516   8525     1
   8517   8534     1
   8517   8535     1
   8517   8523     1
   8517   8531     1
   8518   8520     1
   8518   8529     1
   8518   8519     1
   8518   8536     1
   8518   8534     1
   8518   8535     1
   8518   8522     1
   8519   8530     1
   8519   8538     1
   8519   8521     1
   8519   8528     1
   8519   8524     1
   8519   8532     1
   8520   8532     1
   8520   8525     1
   8520   8533     1
   8521   8531     1
   8522   8524     1
   8522   8533     1
   8523   8528     1
   8523   8524     1
   8523   8526     1
   8523   8538     1
   8523   8525     1
   8523   8533     1
   8524   8529     1
   8524   8527     1
   8524   8531     1
   8525   8527     1
   8534   8538     1
   8534   8537     1
   8535   8538     1
   8535   8537     1
   8539   8547     1
   8539   8555     1
   8539   8560     1
   8539   8548     1
   8540   8546     1
   8540   8554     1
   8540   8557     1
   8540   8558     1
   8541   8543     1
   8541   8552     1
   8541   8542     1
   8541   8559     1
   8541   8557     1
   8541   8558     1
   8541   8545     1
   8542   8544     1
   8542   8551     1
   8542   8547     1
   8542   8555     1
   8542   8553     1
   8542   8561     1
   8543   8548     1
   8543   8556     1
   8543   8555     1
   8544   8554     1
   8545   8556     1
   8545   8547     1
   8546   8549     1
   8546   8561     1
   8546   8548     1
   8546   8556     1
   8546   8551     1
   8546   8547     1
   8547   8550     1
   8547   8554     1
   8547   8552     1
   8548   8550     1
   8557   8560     1
   8557   8561     1
   8558   8560     1
   8558   8561     1
   8562   8570     1
   8562   8578     1
   8562   8583     1
   8562   8571     1
   8563   8580     1
   8563   8581     1
   8563   8569     1
   8563   8577     1
   8564   8566     1
   8564   8575     1
   8564   8565     1
   8564   8582     1
   8564   8580     1
   8564   8581     1
   8564   8568     1
   8565   8576     1
   8565   8584     1
   8565   8567     1
   8565   8574     1
   8565   8570     1
   8565   8578     1
   8566   8578     1
   8566   8571     1
   8566   8579     1
   8567   8577     1
   8568   8570     1
   8568   8579     1
   8569   8574     1
   8569   8570     1
   8569   8572     1
   8569   8584     1
   8569   8571     1
   8569   8579     1
   8570   8575     1
   8570   8573     1
   8570   8577     1
   8571   8573     1
   8580   8584     1
   8580   8583     1
   8581   8584     1
   8581   8583     1
   8585   8593     1
   8585   8601     1
   8585   8606     1
   8585   8594     1
   8586   8592     1
   8586   8600     1
   8586   8603     1
   8586   8604     1
   8587   8589     1
   8587   8598     1
   8587   8588     1
   8587   8605     1
   8587   8603     1
   8587   8604     1
   8587   8591     1
   8588   8590     1
   8588   8597     1
   8588   8593     1
   8588   8601     1
   8588   8599     1
   8588   8607     1
   8589   8594     1
   8589   8602     1
   8589   8601     1
   8590   8600     1
   8591   8602     1
   8591   8593     1
   8592   8595     1
   8592   8607     1
   8592   8594     1
   8592   8602     1
   8592   8597     1
   8592   8593     1
   8593   8596     1
   8593   8600     1
   8593   8598     1
   8594   8596     1
   8603   8606     1
   8603   8607     1
   8604   8606     1
   8604   8607     1
   8608   8616     1
   8608   8624     1
   8608   8629     1
   8608   8617     1
   8609   8626     1
   8609   8627     1
   8609   8615     1
   8609   8623     1
   8610   8612     1
   8610   8621     1
   8610   8611     1
   8610   8628     1
   8610   8626     1
   8610   8627     1
   8610   8614     1
   8611   8622     1
   8611   8630     1
   8611   8613     1
   8611   8620     1
   8611   8616     1
   8611   8624     1
   8612   8624     1
   8612   8617     1
   8612   8625     1
   8613   8623     1
   8614   8616     1
   8614   8625     1
   8615   8620     1
   8615   8616     1
   8615   8618     1
   8615   8630     1
   8615   8617     1
   8615   8625     1
   8616   8621     1
   8616   8619     1
   8616   8623     1
   8617   8619     1
   8626   8630     1
   8626   8629     1
   8627   8630     1
   8627   8629     1
   8631   8639     1
   8631   8647     1
   8631   8652     1
   8631   8640     1
   8632   8638     1
   8632   8646     1
   8632   8649     1
   8632   8650     1
   8633   8635     1
   8633   8644     1
   8633   8634     1
   8633   8651     1
   8633   8649     1
   8633   8650     1
   8633   8637     1
   8634   8636     1
   8634   8643     1
   8634   8639     1
   8634   8647     1
   8634   8645     1
   8634   8653     1
   8635   8640     1
   8635   8648     1
   8635   8647     1
   8636   8646     1
   8637   8648     1
   8637   8639     1
   8638   8641     1
   8638   8653     1
   8638   8640     1
   8638   8648     1
   8638   8643     1
   8638   8639     1
   8639   8642     1
   8639   8646     1
   8639   8644     1
   8640   8642     1
   8649   8652     1
   8649   8653     1
   8650   8652     1
   8650   8653     1
   8654   8662     1
   8654   8670     1
   8654   8675     1
   8654   8663     1
   8655   8672     1
   8655   8673     1
   8655   8661     1
   8655   8669     1
   8656   8658     1
   8656   8667     1
   8656   8657     1
   8656   8674     1
   8656   8672     1
   8656   8673     1
   8656   8660     1
   8657   8668     1
   8657   8676     1
   8657   8659     1
   8657   8666     1
   8657   8662     1
   8657   8670     1
   8658   8670     1
   8658   8663     1
   8658   8671     1
   8659   8669     1
   8660   8662     1
   8660   8671     1
   8661   8666     1
   8661   8662     1
   8661   8664     1
   8661   8676     1
   8661   8663     1
   8661   8671     1
   8662   8667     1
   8662   8665     1
   8662   8669     1
   8663   8665     1
   8672   8676     1
   8672   8675     1
   8673   8676     1
   8673   8675     1
   8677   8685     1
   8677   8693     1
   8677   8698     1
   8677   8686     1
   8678   8684     1
   8678   8692     1
   8678   8695     1
   8678   8696     1
   8679   8681     1
   8679   8690     1
   8679   8680     1
   8679   8697     1
   8679   8695     1
   8679   8696     1
   8679   8683     1
   8680   8682     1
   8680   8689     1
   8680   8685     1
   8680   8693     1
   8680   8691     1
   8680   8699     1
   8681   8686     1
   8681   8694     1
   8681   8693     1
   8682   8692     1
   8683   8694     1
   8683   8685     1
   8684   8687     1
   8684   8699     1
   8684   8686     1
   8684   8694     1
   8684   8689     1
   8684   8685     1
   8685   8688     1
   8685   8692     1
   8685   8690     1
   8686   8688     1
   8695   8698     1
   8695   8699     1
   8696   8698     1
   8696   8699     1
   8700   8708     1
   8700   8716     1
   8700   8721     1
   8700   8709     1
   8701   8718     1
   8701   8719     1
   8701   8707     1
   8701   8715     1
   8702   8704     1
   8702   8713     1
   8702   8703     1
   8702   8720     1
   8702   8718     1
   8702   8719     1
   8702   8706     1
   8703   8714     1
   8703   8722     1
   8703   8705     1
   8703   8712     1
   8703   8708     1
   8703   8716     1
   8704   8716     1
   8704   8709     1
   8704   8717     1
   8705   8715     1
   8706   8708     1
   8706   8717     1
   8707   8712     1
   8707   8708     1
   8707   8710     1
   8707   8722     1
   8707   8709     1
   8707   8717     1
   8708   8713     1
   8708   8711     1
   8708   8715     1
   8709   8711     1
   8718   8722     1
   8718   8721     1
   8719   8722     1
   8719   8721     1
   8723   8731     1
   8723   8739     1
   8723   8744     1
   8723   8732     1
   8724   8730     1
   8724   8738     1
   8724   8741     1
   8724   8742     1
   8725   8727     1
   8725   8736     1
   8725   8726     1
   8725   8743     1
   8725   8741     1
   8725   8742     1
   8725   8729     1
   8726   8728     1
   8726   8735     1
   8726   8731     1
   8726   8739     1
   8726   8737     1
   8726   8745     1
   8727   8732     1
   8727   8740     1
   8727   8739     1
   8728   8738     1
   8729   8740     1
   8729   8731     1
   8730   8733     1
   8730   8745     1
   8730   8732     1
   8730   8740     1
   8730   8735     1
   8730   8731     1
   8731   8734     1
   8731   8738     1
   8731   8736     1
   8732   8734     1
   8741   8744     1
   8741   8745     1
   8742   8744     1
   8742   8745     1
   8746   8754     1
   8746   8762     1
   8746   8767     1
   8746   8755     1
   8747   8764     1
   8747   8765     1
   8747   8753     1
   8747   8761     1
   8748   8750     1
   8748   8759     1
   8748   8749     1
   8748   8766     1
   8748   8764     1
   8748   8765     1
   8748   8752     1
   8749   8760     1
   8749   8768     1
   8749   8751     1
   8749   8758     1
   8749   8754     1
   8749   8762     1
   8750   8762     1
   8750   8755     1
   8750   8763     1
   8751   8761     1
   8752   8754     1
   8752   8763     1
   8753   8758     1
   8753   8754     1
   8753   8756     1
   8753   8768     1
   8753   8755     1
   8753   8763     1
   8754   8759     1
   8754   8757     1
   8754   8761     1
   8755   8757     1
   8764   8768     1
   8764   8767     1
   8765   8768     1
   8765   8767     1
   8769   8777     1
   8769   8785     1
   8769   8790     1
   8769   8778     1
   8770   8776     1
   8770   8784     1
   8770   8787     1
   8770   8788     1
   8771   8773     1
   8771   8782     1
   8771   8772     1
   8771   8789     1
   8771   8787     1
   8771   8788     1
   8771   8775     1
   8772   8774     1
   8772   8781     1
   8772   8777     1
   8772   8785     1
   8772   8783     1
   8772   8791     1
   8773   8778     1
   8773   8786     1
   8773   8785     1
   8774   8784     1
   8775   8786     1
   8775   8777     1
   8776   8779     1
   8776   8791     1
   8776   8778     1
   8776   8786     1
   8776   8781     1
   8776   8777     1
   8777   8780     1
   8777   8784     1
   8777   8782     1
   8778   8780     1
   8787   8790     1
   8787   8791     1
   8788   8790     1
   8788   8791     1
   8792   8800     1
   8792   8808     1
   8792   8813     1
   8792   8801     1
   8793   8810     1
   8793   8811     1
   8793   8799     1
   8793   8807     1
   8794   8796     1
   8794   8805     1
   8794   8795     1
   8794   8812     1
   8794   8810     1
   8794   8811     1
   8794   8798     1
   8795   8806     1
   8795   8814     1
   8795   8797     1
   8795   8804     1
   8795   8800     1
   8795   8808     1
   8796   8808     1
   8796   8801     1
   8796   8809     1
   8797   8807     1
   8798   8800     1
   8798   8809     1
   8799   8804     1
   8799   8800     1
   8799   8802     1
   8799   8814     1
   8799   8801     1
   8799   8809     1
   8800   8805     1
   8800   8803     1
   8800   8807     1
   8801   8803     1
   8810   8814     1
   8810   8813     1
   8811   8814     1
   8811   8813     1
   8815   8823     1
   8815   8831     1
   8815   8836     1
   8815   8824     1
   8816   8822     1
   8816   8830     1
   8816   8833     1
   8816   8834     1
   8817   8819     1
   8817   8828     1
   8817   8818     1
   8817   8835     1
   8817   8833     1
   8817   8834     1
   8817   8821     1
   8818   8820     1
   8818   8827     1
   8818   8823     1
   8818   8831     1
   8818   8829     1
   8818   8837     1
   8819   8824     1
   8819   8832     1
   8819   8831     1
   8820   8830     1
   8821   8832     1
   8821   8823     1
   8822   8825     1
   8822   8837     1
   8822   8824     1
   8822   8832     1
   8822   8827     1
   8822   8823     1
   8823   8826     1
   8823   8830     1
   8823   8828     1
   8824   8826     1
   8833   8836     1
   8833   8837     1
   8834   8836     1
   8834   8837     1
   8838   8846     1
   8838   8854     1
   8838   8859     1
   8838   8847     1
   8839   8856     1
   8839   8857     1
   8839   8845     1
   8839   8853     1
   8840   8842     1
   8840   8851     1
   8840   8841     1
   8840   8858     1
   8840   8856     1
   8840   8857     1
   8840   8844     1
   8841   8852     1
   8841   8860     1
   8841   8843     1
   8841   8850     1
   8841   8846     1
   8841   8854     1
   8842   8854     1
   8842   8847     1
   8842   8855     1
   8843   8853     1
   8844   8846     1
   8844   8855     1
   8845   8850     1
   8845   8846     1
   8845   8848     1
   8845   8860     1
   8845   8847     1
   8845   8855     1
   8846   8851     1
   8846   8849     1
   8846   8853     1
   8847   8849     1
   8856   8860     1
   8856   8859     1
   8857   8860     1
   8857   8859     1
   8861   8869     1
   8861   8877     1
   8861   8882     1
   8861   8870     1
   8862   8868     1
   8862   8876     1
   8862   8879     1
   8862   8880     1
   8863   8865     1
   8863   8874     1
   8863   8864     1
   8863   8881     1
   8863   8879     1
   8863   8880     1
   8863   8867     1
   8864   8866     1
   8864   8873     1
   8864   8869     1
   8864   8877     1
   8864   8875     1
   8864   8883     1
   8865   8870     1
   8865   8878     1
   8865   8877     1
   8866   8876     1
   8867   8878     1
   8867   8869     1
   8868   8871     1
   8868   8883     1
   8868   8870     1
   8868   8878     1
   8868   8873     1
   8868   8869     1
   8869   8872     1
   8869   8876     1
   8869   8874     1
   8870   8872     1
   8879   8882     1
   8879   8883     1
   8880   8882     1
   8880   8883     1
   8884   8892     1
   8884   8900     1
   8884   8905     1
   8884   8893     1
   8885   8902     1
   8885   8903     1
   8885   8891     1
   8885   8899     1
   8886   8888     1
   8886   8897     1
   8886   8887     1
   8886   8904     1
   8886   8902     1
   8886   8903     1
   8886   8890     1
   8887   8898     1
   8887   8906     1
   8887   8889     1
   8887   8896     1
   8887   8892     1
   8887   8900     1
   8888   8900     1
   8888   8893     1
   8888   8901     1
   8889   8899     1
   8890   8892     1
   8890   8901     1
   8891   8896     1
   8891   8892     1
   8891   8894     1
   8891   8906     1
   8891   8893     1
   8891   8901     1
   8892   8897     1
   8892   8895     1
   8892   8899     1
   8893   8895     1
   8902   8906     1
   8902   8905     1
   8903   8906     1
   8903   8905     1
   8907   8915     1
   8907   8923     1
   8907   8928     1
   8907   8916     1
   8908   8914     1
   8908   8922     1
   8908   8925     1
   8908   8926     1
   8909   8911     1
   8909   8920     1
   8909   8910     1
   8909   8927     1
   8909   8925     1
   8909   8926     1
   8909   8913     1
   8910   8912     1
   8910   8919     1
   8910   8915     1
   8910   8923     1
   8910   8921     1
   8910   8929     1
   8911   8916     1
   8911   8924     1
   8911   8923     1
   8912   8922     1
   8913   8924     1
   8913   8915     1
   8914   8917     1
   8914   8929     1
   8914   8916     1
   8914   8924     1
   8914   8919     1
   8914   8915     1
   8915   8918     1
   8915   8922     1
   8915   8920     1
   8916   8918     1
   8925   8928     1
   8925   8929     1
   8926   8928     1
   8926   8929     1
   8930   8938     1
   8930   8946     1
   8930   8951     1
   8930   8939     1
   8931   8948     1
   8931   8949     1
   8931   8937     1
   8931   8945     1
   8932   8934     1
   8932   8943     1
   8932   8933     1
   8932   8950     1
   8932   8948     1
   8932   8949     1
   8932   8936     1
   8933   8944     1
   8933   8952     1
   8933   8935     1
   8933   8942     1
   8933   8938     1
   8933   8946     1
   8934   8946     1
   8934   8939     1
   8934   8947     1
   8935   8945     1
   8936   8938     1
   8936   8947     1
   8937   8942     1
   8937   8938     1
   8937   8940     1
   8937   8952     1
   8937   8939     1
   8937   8947     1
   8938   8943     1
   8938   8941     1
   8938   8945     1
   8939   8941     1
   8948   8952     1
   8948   8951     1
   8949   8952     1
   8949   8951     1
   8953   8961     1
   8953   8969     1
   8953   8974     1
   8953   8962     1
   8954   8960     1
   8954   8968     1
   8954   8971     1
   8954   8972     1
   8955   8957     1
   8955   8966     1
   8955   8956     1
   8955   8973     1
   8955   8971     1
   8955   8972     1
   8955   8959     1
   8956   8958     1
   8956   8965     1
   8956   8961     1
   8956   8969     1
   8956   8967     1
   8956   8975     1
   8957   8962     1
   8957   8970     1
   8957   8969     1
   8958   8968     1
   8959   8970     1
   8959   8961     1
   8960   8963     1
   8960   8975     1
   8960   8962     1
   8960   8970     1
   8960   8965     1
   8960   8961     1
   8961   8964     1
   8961   8968     1
   8961   8966     1
   8962   8964     1
   8971   8974     1
   8971   8975     1
   8972   8974     1
   8972   8975     1
   8976   8984     1
   8976   8992     1
   8976   8997     1
   8976   8985     1
   8977   8994     1
   8977   8995     1
   8977   8983     1
   8977   8991     1
   8978   8980     1
   8978   8989     1
   8978   8979     1
   8978   8996     1
   8978   8994     1
   8978   8995     1
   8978   8982     1
   8979   8990     1
   8979   8998     1
   8979   8981     1
   8979   8988     1
   8979   8984     1
   8979   8992     1
   8980   8992     1
   8980   8985     1
   8980   8993     1
   8981   8991     1
   8982   8984     1
   8982   8993     1
   8983   8988     1
   8983   8984     1
   8983   8986     1
   8983   8998     1
   8983   8985     1
   8983   8993     1
   8984   8989     1
   8984   8987     1
   8984   8991     1
   8985   8987     1
   8994   8998     1
   8994   8997     1
   8995   8998     1
   8995   8997     1
   8999   9007     1
   8999   9015     1
   8999   9020     1
   8999   9008     1
   9000   9006     1
   9000   9014     1
   9000   9017     1
   9000   9018     1
   9001   9003     1
   9001   9012     1
   9001   9002     1
   9001   9019     1
   9001   9017     1
   9001   9018     1
   9001   9005     1
   9002   9004     1
   9002   9011     1
   9002   9007     1
   9002   9015     1
   9002   9013     1
   9002   9021     1
   9003   9008     1
   9003   9016     1
   9003   9015     1
   9004   9014     1
   9005   9016     1
   9005   9007     1
   9006   9009     1
   9006   9021     1
   9006   9008     1
   9006   9016     1
   9006   9011     1
   9006   9007     1
   9007   9010     1
   9007   9014     1
   9007   9012     1
   9008   9010     1
   9017   9020     1
   9017   9021     1
   9018   9020     1
   9018   9021     1
   9022   9030     1
   9022   9038     1
   9022   9043     1
   9022   9031     1
   9023   9040     1
   9023   9041     1
   9023   9029     1
   9023   9037     1
   9024   9026     1
   9024   9035     1
   9024   9025     1
   9024   9042     1
   9024   9040     1
   9024   9041     1
   9024   9028     1
   9025   9036     1
   9025   9044     1
   9025   9027     1
   9025   9034     1
   9025   9030     1
   9025   9038     1
   9026   9038     1
   9026   9031     1
   9026   9039     1
   9027   9037     1
   9028   9030     1
   9028   9039     1
   9029   9034     1
   9029   9030     1
   9029   9032     1
   9029   9044     1
   9029   9031     1
   9029   9039     1
   9030   9035     1
   9030   9033     1
   9030   9037     1
   9031   9033     1
   9040   9044     1
   9040   9043     1
   9041   9044     1
   9041   9043     1
   9045   9053     1
   9045   9061     1
   9045   9066     1
   9045   9054     1
   9046   9052     1
   9046   9060     1
   9046   9063     1
   9046   9064     1
   9047   9049     1
   9047   9058     1
   9047   9048     1
   9047   9065     1
   9047   9063     1
   9047   9064     1
   9047   9051     1
   9048   9050     1
   9048   9057     1
   9048   9053     1
   9048   9061     1
   9048   9059     1
   9048   9067     1
   9049   9054     1
   9049   9062     1
   9049   9061     1
   9050   9060     1
   9051   9062     1
   9051   9053     1
   9052   9055     1
   9052   9067     1
   9052   9054     1
   9052   9062     1
   9052   9057     1
   9052   9053     1
   9053   9056     1
   9053   9060     1
   9053   9058     1
   9054   9056     1
   9063   9066     1
   9063   9067     1
   9064   9066     1
   9064   9067     1
   9068   9076     1
   9068   9084     1
   9068   9089     1
   9068   9077     1
   9069   9086     1
   9069   9087     1
   9069   9075     1
   9069   9083     1
   9070   9072     1
   9070   9081     1
   9070   9071     1
   9070   9088     1
   9070   9086     1
   9070   9087     1
   9070   9074     1
   9071   9082     1
   9071   9090     1
   9071   9073     1
   9071   9080     1
   9071   9076     1
   9071   9084     1
   9072   9084     1
   9072   9077     1
   9072   9085     1
   9073   9083     1
   9074   9076     1
   9074   9085     1
   9075   9080     1
   9075   9076     1
   9075   9078     1
   9075   9090     1
   9075   9077     1
   9075   9085     1
   9076   9081     1
   9076   9079     1
   9076   9083     1
   9077   9079     1
   9086   9090     1
   9086   9089     1
   9087   9090     1
   9087   9089     1
   9091   9099     1
   9091   9107     1
   9091   9112     1
   9091   9100     1
   9092   9098     1
   9092   9106     1
   9092   9109     1
   9092   9110     1
   9093   9095     1
   9093   9104     1
   9093   9094     1
   9093   9111     1
   9093   9109     1
   9093   9110     1
   9093   9097     1
   9094   9096     1
   9094   9103     1
   9094   9099     1
   9094   9107     1
   9094   9105     1
   9094   9113     1
   9095   9100     1
   9095   9108     1
   9095   9107     1
   9096   9106     1
   9097   9108     1
   9097   9099     1
   9098   9101     1
   9098   9113     1
   9098   9100     1
   9098   9108     1
   9098   9103     1
   9098   9099     1
   9099   9102     1
   9099   9106     1
   9099   9104     1
   9100   9102     1
   9109   9112     1
   9109   9113     1
   9110   9112     1
   9110   9113     1
   9114   9122     1
   9114   9130     1
   9114   9135     1
   9114   9123     1
   9115   9132     1
   9115   9133     1
   9115   9121     1
   9115   9129     1
   9116   9118     1
   9116   9127     1
   9116   9117     1
   9116   9134     1
   9116   9132     1
   9116   9133     1
   9116   9120     1
   9117   9128     1
   9117   9136     1
   9117   9119     1
   9117   9126     1
   9117   9122     1
   9117   9130     1
   9118   9130     1
   9118   9123     1
   9118   9131     1
   9119   9129     1
   9120   9122     1
   9120   9131     1
   9121   9126     1
   9121   9122     1
   9121   9124     1
   9121   9136     1
   9121   9123     1
   9121   9131     1
   9122   9127     1
   9122   9125     1
   9122   9129     1
   9123   9125     1
   9132   9136     1
   9132   9135     1
   9133   9136     1
   9133   9135     1
   9137   9145     1
   9137   9153     1
   9137   9158     1
   9137   9146     1
   9138   9144     1
   9138   9152     1
   9138   9155     1
   9138   9156     1
   9139   9141     1
   9139   9150     1
   9139   9140     1
   9139   9157     1
   9139   9155     1
   9139   9156     1
   9139   9143     1
   9140   9142     1
   9140   9149     1
   9140   9145     1
   9140   9153     1
   9140   9151     1
   9140   9159     1
   9141   9146     1
   9141   9154     1
   9141   9153     1
   9142   9152     1
   9143   9154     1
   9143   9145     1
   9144   9147     1
   9144   9159     1
   9144   9146     1
   9144   9154     1
   9144   9149     1
   9144   9145     1
   9145   9148     1
   9145   9152     1
   9145   9150     1
   9146   9148     1
   9155   9158     1
   9155   9159     1
   9156   9158     1
   9156   9159     1
   9160   9168     1
   9160   9176     1
   9160   9181     1
   9160   9169     1
   9161   9178     1
   9161   9179     1
   9161   9167     1
   9161   9175     1
   9162   9164     1
   9162   9173     1
   9162   9163     1
   9162   9180     1
   9162   9178     1
   9162   9179     1
   9162   9166     1
   9163   9174     1
   9163   9182     1
   9163   9165     1
   9163   9172     1
   9163   9168     1
   9163   9176     1
   9164   9176     1
   9164   9169     1
   9164   9177     1
   9165   9175     1
   9166   9168     1
   9166   9177     1
   9167   9172     1
   9167   9168     1
   9167   9170     1
   9167   9182     1
   9167   9169     1
   9167   9177     1
   9168   9173     1
   9168   9171     1
   9168   9175     1
   9169   9171     1
   9178   9182     1
   9178   9181     1
   9179   9182     1
   9179   9181     1
   9183   9191     1
   9183   9199     1
   9183   9204     1
   9183   9192     1
   9184   9190     1
   9184   9198     1
   9184   9201     1
   9184   9202     1
   9185   9187     1
   9185   9196     1
   9185   9186     1
   9185   9203     1
   9185   9201     1
   9185   9202     1
   9185   9189     1
   9186   9188     1
   9186   9195     1
   9186   9191     1
   9186   9199     1
   9186   9197     1
   9186   9205     1
   9187   9192     1
   9187   9200     1
   9187   9199     1
   9188   9198     1
   9189   9200     1
   9189   9191     1
   9190   9193     1
   9190   9205     1
   9190   9192     1
   9190   9200     1
   9190   9195     1
   9190   9191     1
   9191   9194     1
   9191   9198     1
   9191   9196     1
   9192   9194     1
   9201   9204     1
   9201   9205     1
   9202   9204     1
   9202   9205     1
   9206   9214     1
   9206   9222     1
   9206   9227     1
   9206   9215     1
   9207   9224     1
   9207   9225     1
   9207   9213     1
   9207   9221     1
   9208   9210     1
   9208   9219     1
   9208   9209     1
   9208   9226     1
   9208   9224     1
   9208   9225     1
   9208   9212     1
   9209   9220     1
   9209   9228     1
   9209   9211     1
   9209   9218     1
   9209   9214     1
   9209   9222     1
   9210   9222     1
   9210   9215     1
   9210   9223     1
   9211   9221     1
   9212   9214     1
   9212   9223     1
   9213   9218     1
   9213   9214     1
   9213   9216     1
   9213   9228     1
   9213   9215     1
   9213   9223     1
   9214   9219     1
   9214   9217     1
   9214   9221     1
   9215   9217     1
   9224   9228     1
   9224   9227     1
   9225   9228     1
   9225   9227     1
   9229   9237     1
   9229   9245     1
   9229   9250     1
   9229   9238     1
   9230   9236     1
   9230   9244     1
   9230   9247     1
   9230   9248     1
   9231   9233     1
   9231   9242     1
   9231   9232     1
   9231   9249     1
   9231   9247     1
   9231   9248     1
   9231   9235     1
   9232   9234     1
   9232   9241     1
   9232   9237     1
   9232   9245     1
   9232   9243     1
   9232   9251     1
   9233   9238     1
   9233   9246     1
   9233   9245     1
   9234   9244     1
   9235   9246     1
   9235   9237     1
   9236   9239     1
   9236   9251     1
   9236   9238     1
   9236   9246     1
   9236   9241     1
   9236   9237     1
   9237   9240     1
   9237   9244     1
   9237   9242     1
   9238   9240     1
   9247   9250     1
   9247   9251     1
   9248   9250     1
   9248   9251     1
   9252   9260     1
   9252   9268     1
   9252   9273     1
   9252   9261     1
   9253   9270     1
   9253   9271     1
   9253   9259     1
   9253   9267     1
   9254   9256     1
   9254   9265     1
   9254   9255     1
   9254   9272     1
   9254   9270     1
   9254   9271     1
   9254   9258     1
   9255   9266     1
   9255   9274     1
   9255   9257     1
   9255   9264     1
   9255   9260     1
   9255   9268     1
   9256   9268     1
   9256   9261     1
   9256   9269     1
   9257   9267     1
   9258   9260     1
   9258   9269     1
   9259   9264     1
   9259   9260     1
   9259   9262     1
   9259   9274     1
   9259   9261     1
   9259   9269     1
   9260   9265     1
   9260   9263     1
   9260   9267     1
   9261   9263     1
   9270   9274     1
   9270   9273     1
   9271   9274     1
   9271   9273     1
   9275   9283     1
   9275   9291     1
   9275   9296     1
   9275   9284     1
   9276   9282     1
   9276   9290     1
   9276   9293     1
   9276   9294     1
   9277   9279     1
   9277   9288     1
   9277   9278     1
   9277   9295     1
   9277   9293     1
   9277   9294     1
   9277   9281     1
   9278   9280     1
   9278   9287     1
   9278   9283     1
   9278   9291     1
   9278   9289     1
   9278   9297     1
   9279   9284     1
   9279   9292     1
   9279   9291     1
   9280   9290     1
   9281   9292     1
   9281   9283     1
   9282   9285     1
   9282   9297     1
   9282   9284     1
   9282   9292     1
   9282   9287     1
   9282   9283     1
   9283   9286     1
   9283   9290     1
   9283   9288     1
   9284   9286     1
   9293   9296     1
   9293   9297     1
   9294   9296     1
   9294   9297     1
   9298   9306     1
   9298   9314     1
   9298   9319     1
   9298   9307     1
   9299   9316     1
   9299   9317     1
   9299   9305     1
   9299   9313     1
   9300   9302     1
   9300   9311     1
   9300   9301     1
   9300   9318     1
   9300   9316     1
   9300   9317     1
   9300   9304     1
   9301   9312     1
   9301   9320     1
   9301   9303     1
   9301   9310     1
   9301   9306     1
   9301   9314     1
   9302   9314     1
   9302   9307     1
   9302   9315     1
   9303   9313     1
   9304   9306     1
   9304   9315     1
   9305   9310     1
   9305   9306     1
   9305   9308     1
   9305   9320     1
   9305   9307     1
   9305   9315     1
   9306   9311     1
   9306   9309     1
   9306   9313     1
   9307   9309     1
   9316   9320     1
   9316   9319     1
   9317   9320     1
   9317   9319     1
   9321   9329     1
   9321   9337     1
   9321   9342     1
   9321   9330     1
   9322   9328     1
   9322   9336     1
   9322   9339     1
   9322   9340     1
   9323   9325     1
   9323   9334     1
   9323   9324     1
   9323   9341     1
   9323   9339     1
   9323   9340     1
   9323   9327     1
   9324   9326     1
   9324   9333     1
   9324   9329     1
   9324   9337     1
   9324   9335     1
   9324   9343     1
   9325   9330     1
   9325   9338     1
   9325   9337     1
   9326   9336     1
   9327   9338     1
   9327   9329     1
   9328   9331     1
   9328   9343     1
   9328   9330     1
   9328   9338     1
   9328   9333     1
   9328   9329     1
   9329   9332     1
   9329   9336     1
   9329   9334     1
   9330   9332     1
   9339   9342     1
   9339   9343     1
   9340   9342     1
   9340   9343     1
   9344   9352     1
   9344   9360     1
   9344   9365     1
   9344   9353     1
   9345   9362     1
   9345   9363     1
   9345   9351     1
   9345   9359     1
   9346   9348     1
   9346   9357     1
   9346   9347     1
   9346   9364     1
   9346   9362     1
   9346   9363     1
   9346   9350     1
   9347   9358     1
   9347   9366     1
   9347   9349     1
   9347   9356     1
   9347   9352     1
   9347   9360     1
   9348   9360     1
   9348   9353     1
   9348   9361     1
   9349   9359     1
   9350   9352     1
   9350   9361     1
   9351   9356     1
   9351   9352     1
   9351   9354     1
   9351   9366     1
   9351   9353     1
   9351   9361     1
   9352   9357     1
   9352   9355     1
   9352   9359     1
   9353   9355     1
   9362   9366     1
   9362   9365     1
   9363   9366     1
   9363   9365     1
   9367   9375     1
   9367   9383     1
   9367   9388     1
   9367   9376     1
   9368   9374     1
   9368   9382     1
   9368   9385     1
   9368   9386     1
   9369   9371     1
   9369   9380     1
   9369   9370     1
   9369   9387     1
   9369   9385     1
   9369   9386     1
   9369   9373     1
   9370   9372     1
   9370   9379     1
   9370   9375     1
   9370   9383     1
   9370   9381     1
   9370   9389     1
   9371   9376     1
   9371   9384     1
   9371   9383     1
   9372   9382     1
   9373   9384     1
   9373   9375     1
   9374   9377     1
   9374   9389     1
   9374   9376     1
   9374   9384     1
   9374   9379     1
   9374   9375     1
   9375   9378     1
   9375   9382     1
   9375   9380     1
   9376   9378     1
   9385   9388     1
   9385   9389     1
   9386   9388     1
   9386   9389     1
   9390   9398     1
   9390   9406     1
   9390   9411     1
   9390   9399     1
   9391   9408     1
   9391   9409     1
   9391   9397     1
   9391   9405     1
   9392   9394     1
   9392   9403     1
   9392   9393     1
   9392   9410     1
   9392   9408     1
   9392   9409     1
   9392   9396     1
   9393   9404     1
   9393   9412     1
   9393   9395     1
   9393   9402     1
   9393   9398     1
   9393   9406     1
   9394   9406     1
   9394   9399     1
   9394   9407     1
   9395   9405     1
   9396   9398     1
   9396   9407     1
   9397   9402     1
   9397   9398     1
   9397   9400     1
   9397   9412     1
   9397   9399     1
   9397   9407     1
   9398   9403     1
   9398   9401     1
   9398   9405     1
   9399   9401     1
   9408   9412     1
   9408   9411     1
   9409   9412     1
   9409   9411     1
   9413   9421     1
   9413   9429     1
   9413   9434     1
   9413   9422     1
   9414   9420     1
   9414   9428     1
   9414   9431     1
   9414   9432     1
   9415   9417     1
   9415   9426     1
   9415   9416     1
   9415   9433     1
   9415   9431     1
   9415   9432     1
   9415   9419     1
   9416   9418     1
   9416   9425     1
   9416   9421     1
   9416   9429     1
   9416   9427     1
   9416   9435     1
   9417   9422     1
   9417   9430     1
   9417   9429     1
   9418   9428     1
   9419   9430     1
   9419   9421     1
   9420   9423     1
   9420   9435     1
   9420   9422     1
   9420   9430     1
   9420   9425     1
   9420   9421     1
   9421   9424     1
   9421   9428     1
   9421   9426     1
   9422   9424     1
   9431   9434     1
   9431   9435     1
   9432   9434     1
   9432   9435     1
   9436   9444     1
   9436   9452     1
   9436   9457     1
   9436   9445     1
   9437   9454     1
   9437   9455     1
   9437   9443     1
   9437   9451     1
   9438   9440     1
   9438   9449     1
   9438   9439     1
   9438   9456     1
   9438   9454     1
   9438   9455     1
   9438   9442     1
   9439   9450     1
   9439   9458     1
   9439   9441     1
   9439   9448     1
   9439   9444     1
   9439   9452     1
   9440   9452     1
   9440   9445     1
   9440   9453     1
   9441   9451     1
   9442   9444     1
   9442   9453     1
   9443   9448     1
   9443   9444     1
   9443   9446     1
   9443   9458     1
   9443   9445     1
   9443   9453     1
   9444   9449     1
   9444   9447     1
   9444   9451     1
   9445   9447     1
   9454   9458     1
   9454   9457     1
   9455   9458     1
   9455   9457     1
   9459   9467     1
   9459   9475     1
   9459   9480     1
   9459   9468     1
   9460   9466     1
   9460   9474     1
   9460   9477     1
   9460   9478     1
   9461   9463     1
   9461   9472     1
   9461   9462     1
   9461   9479     1
   9461   9477     1
   9461   9478     1
   9461   9465     1
   9462   9464     1
   9462   9471     1
   9462   9467     1
   9462   9475     1
   9462   9473     1
   9462   9481     1
   9463   9468     1
   9463   9476     1
   9463   9475     1
   9464   9474     1
   9465   9476     1
   9465   9467     1
   9466   9469     1
   9466   9481     1
   9466   9468     1
   9466   9476     1
   9466   9471     1
   9466   9467     1
   9467   9470     1
   9467   9474     1
   9467   9472     1
   9468   9470     1
   9477   9480     1
   9477   9481     1
   9478   9480     1
   9478   9481     1
   9482   9490     1
   9482   9498     1
   9482   9503     1
   9482   9491     1
   9483   9500     1
   9483   9501     1
   9483   9489     1
   9483   9497     1
   9484   9486     1
   9484   9495     1
   9484   9485     1
   9484   9502     1
   9484   9500     1
   9484   9501     1
   9484   9488     1
   9485   9496     1
   9485   9504     1
   9485   9487     1
   9485   9494     1
   9485   9490     1
   9485   9498     1
   9486   9498     1
   9486   9491     1
   9486   9499     1
   9487   9497     1
   9488   9490     1
   9488   9499     1
   9489   9494     1
   9489   9490     1
   9489   9492     1
   9489   9504     1
   9489   9491     1
   9489   9499     1
   9490   9495     1
   9490   9493     1
   9490   9497     1
   9491   9493     1
   9500   9504     1
   9500   9503     1
   9501   9504     1
   9501   9503     1
   9505   9513     1
   9505   9521     1
   9505   9526     1
   9505   9514     1
   9506   9512     1
   9506   9520     1
   9506   9523     1
   9506   9524     1
   9507   9509     1
   9507   9518     1
   9507   9508     1
   9507   9525     1
   9507   9523     1
   9507   9524     1
   9507   9511     1
   9508   9510     1
   9508   9517     1
   9508   9513     1
   9508   9521     1
   9508   9519     1
   9508   9527     1
   9509   9514     1
   9509   9522     1
   9509   9521     1
   9510   9520     1
   9511   9522     1
   9511   9513     1
   9512   9515     1
   9512   9527     1
   9512   9514     1
   9512   9522     1
   9512   9517     1
   9512   9513     1
   9513   9516     1
   9513   9520     1
   9513   9518     1
   9514   9516     1
   9523   9526     1
   9523   9527     1
   9524   9526     1
   9524   9527     1
   9528   9536     1
   9528   9544     1
   9528   9549     1
   9528   9537     1
   9529   9546     1
   9529   9547     1
   9529   9535     1
   9529   9543     1
   9530   9532     1
   9530   9541     1
   9530   9531     1
   9530   9548     1
   9530   9546     1
   9530   9547     1
   9530   9534     1
   9531   9542     1
   9531   9550     1
   9531   9533     1
   9531   9540     1
   9531   9536     1
   9531   9544     1
   9532   9544     1
   9532   9537     1
   9532   9545     1
   9533   9543     1
   9534   9536     1
   9534   9545     1
   9535   9540     1
   9535   9536     1
   9535   9538     1
   9535   9550     1
   9535   9537     1
   9535   9545     1
   9536   9541     1
   9536   9539     1
   9536   9543     1
   9537   9539     1
   9546   9550     1
   9546   9549     1
   9547   9550     1
   9547   9549     1
   9551   9559     1
   9551   9567     1
   9551   9572     1
   9551   9560     1
   9552   9558     1
   9552   9566     1
   9552   9569     1
   9552   9570     1
   9553   9555     1
   9553   9564     1
   9553   9554     1
   9553   9571     1
   9553   9569     1
   9553   9570     1
   9553   9557     1
   9554   9556     1
   9554   9563     1
   9554   9559     1
   9554   9567     1
   9554   9565     1
   9554   9573     1
   9555   9560     1
   9555   9568     1
   9555   9567     1
   9556   9566     1
   9557   9568     1
   9557   9559     1
   9558   9561     1
   9558   9573     1
   9558   9560     1
   9558   9568     1
   9558   9563     1
   9558   9559     1
   9559   9562     1
   9559   9566     1
   9559   9564     1
   9560   9562     1
   9569   9572     1
   9569   9573     1
   9570   9572     1
   9570   9573     1
   9574   9582     1
   9574   9590     1
   9574   9595     1
   9574   9583     1
   9575   9592     1
   9575   9593     1
   9575   9581     1
   9575   9589     1
   9576   9578     1
   9576   9587     1
   9576   9577     1
   9576   9594     1
   9576   9592     1
   9576   9593     1
   9576   9580     1
   9577   9588     1
   9577   9596     1
   9577   9579     1
   9577   9586     1
   9577   9582     1
   9577   9590     1
   9578   9590     1
   9578   9583     1
   9578   9591     1
   9579   9589     1
   9580   9582     1
   9580   9591     1
   9581   9586     1
   9581   9582     1
   9581   9584     1
   9581   9596     1
   9581   9583     1
   9581   9591     1
   9582   9587     1
   9582   9585     1
   9582   9589     1
   9583   9585     1
   9592   9596     1
   9592   9595     1
   9593   9596     1
   9593   9595     1
   9597   9605     1
   9597   9613     1
   9597   9618     1
   9597   9606     1
   9598   9604     1
   9598   9612     1
   9598   9615     1
   9598   9616     1
   9599   9601     1
   9599   9610     1
   9599   9600     1
   9599   9617     1
   9599   9615     1
   9599   9616     1
   9599   9603     1
   9600   9602     1
   9600   9609     1
   9600   9605     1
   9600   9613     1
   9600   9611     1
   9600   9619     1
   9601   9606     1
   9601   9614     1
   9601   9613     1
   9602   9612     1
   9603   9614     1
   9603   9605     1
   9604   9607     1
   9604   9619     1
   9604   9606     1
   9604   9614     1
   9604   9609     1
   9604   9605     1
   9605   9608     1
   9605   9612     1
   9605   9610     1
   9606   9608     1
   9615   9618     1
   9615   9619     1
   9616   9618     1
   9616   9619     1
   9620   9628     1
   9620   9636     1
   9620   9641     1
   9620   9629     1
   9621   9638     1
   9621   9639     1
   9621   9627     1
   9621   9635     1
   9622   9624     1
   9622   9633     1
   9622   9623     1
   9622   9640     1
   9622   9638     1
   9622   9639     1
   9622   9626     1
   9623   9634     1
   9623   9642     1
   9623   9625     1
   9623   9632     1
   9623   9628     1
   9623   9636     1
   9624   9636     1
   9624   9629     1
   9624   9637     1
   9625   9635     1
   9626   9628     1
   9626   9637     1
   9627   9632     1
   9627   9628     1
   9627   9630     1
   9627   9642     1
   9627   9629     1
   9627   9637     1
   9628   9633     1
   9628   9631     1
   9628   9635     1
   9629   9631     1
   9638   9642     1
   9638   9641     1
   9639   9642     1
   9639   9641     1
   9643   9651     1
   9643   9659     1
   9643   9664     1
   9643   9652     1
   9644   9650     1
   9644   9658     1
   9644   9661     1
   9644   9662     1
   9645   9647     1
   9645   9656     1
   9645   9646     1
   9645   9663     1
   9645   9661     1
   9645   9662     1
   9645   9649     1
   9646   9648     1
   9646   9655     1
   9646   9651     1
   9646   9659     1
   9646   9657     1
   9646   9665     1
   9647   9652     1
   9647   9660     1
   9647   9659     1
   9648   9658     1
   9649   9660     1
   9649   9651     1
   9650   9653     1
   9650   9665     1
   9650   9652     1
   9650   9660     1
   9650   9655     1
   9650   9651     1
   9651   9654     1
   9651   9658     1
   9651   9656     1
   9652   9654     1
   9661   9664     1
   9661   9665     1
   9662   9664     1
   9662   9665     1
   9666   9674     1
   9666   9682     1
   9666   9687     1
   9666   9675     1
   9667   9684     1
   9667   9685     1
   9667   9673     1
   9667   9681     1
   9668   9670     1
   9668   9679     1
   9668   9669     1
   9668   9686     1
   9668   9684     1
   9668   9685     1
   9668   9672     1
   9669   9680     1
   9669   9688     1
   9669   9671     1
   9669   9678     1
   9669   9674     1
   9669   9682     1
   9670   9682     1
   9670   9675     1
   9670   9683     1
   9671   9681     1
   9672   9674     1
   9672   9683     1
   9673   9678     1
   9673   9674     1
   9673   9676     1
   9673   9688     1
   9673   9675     1
   9673   9683     1
   9674   9679     1
   9674   9677     1
   9674   9681     1
   9675   9677     1
   9684   9688     1
   9684   9687     1
   9685   9688     1
   9685   9687     1
   9689   9697     1
   9689   9705     1
   9689   9710     1
   9689   9698     1
   9690   9696     1
   9690   9704     1
   9690   9707     1
   9690   9708     1
   9691   9693     1
   9691   9702     1
   9691   9692     1
   9691   9709     1
   9691   9707     1
   9691   9708     1
   9691   9695     1
   9692   9694     1
   9692   9701     1
   9692   9697     1
   9692   9705     1
   9692   9703     1
   9692   9711     1
   9693   9698     1
   9693   9706     1
   9693   9705     1
   9694   9704     1
   9695   9706     1
   9695   9697     1
   9696   9699     1
   9696   9711     1
   9696   9698     1
   9696   9706     1
   9696   9701     1
   9696   9697     1
   9697   9700     1
   9697   9704     1
   9697   9702     1
   9698   9700     1
   9707   9710     1
   9707   9711     1
   9708   9710     1
   9708   9711     1
   9712   9720     1
   9712   9728     1
   9712   9733     1
   9712   9721     1
   9713   9730     1
   9713   9731     1
   9713   9719     1
   9713   9727     1
   9714   9716     1
   9714   9725     1
   9714   9715     1
   9714   9732     1
   9714   9730     1
   9714   9731     1
   9714   9718     1
   9715   9726     1
   9715   9734     1
   9715   9717     1
   9715   9724     1
   9715   9720     1
   9715   9728     1
   9716   9728     1
   9716   9721     1
   9716   9729     1
   9717   9727     1
   9718   9720     1
   9718   9729     1
   9719   9724     1
   9719   9720     1
   9719   9722     1
   9719   9734     1
   9719   9721     1
   9719   9729     1
   9720   9725     1
   9720   9723     1
   9720   9727     1
   9721   9723     1
   9730   9734     1
   9730   9733     1
   9731   9734     1
   9731   9733     1
   9735   9743     1
   9735   9751     1
   9735   9756     1
   9735   9744     1
   9736   9742     1
   9736   9750     1
   9736   9753     1
   9736   9754     1
   9737   9739     1
   9737   9748     1
   9737   9738     1
   9737   9755     1
   9737   9753     1
   9737   9754     1
   9737   9741     1
   9738   9740     1
   9738   9747     1
   9738   9743     1
   9738   9751     1
   9738   9749     1
   9738   9757     1
   9739   9744     1
   9739   9752     1
   9739   9751     1
   9740   9750     1
   9741   9752     1
   9741   9743     1
   9742   9745     1
   9742   9757     1
   9742   9744     1
   9742   9752     1
   9742   9747     1
   9742   9743     1
   9743   9746     1
   9743   9750     1
   9743   9748     1
   9744   9746     1
   9753   9756     1
   9753   9757     1
   9754   9756     1
   9754   9757     1
   9758   9766     1
   9758   9774     1
   9758   9779     1
   9758   9767     1
   9759   9776     1
   9759   9777     1
   9759   9765     1
   9759   9773     1
   9760   9762     1
   9760   9771     1
   9760   9761     1
   9760   9778     1
   9760   9776     1
   9760   9777     1
   9760   9764     1
   9761   9772     1
   9761   9780     1
   9761   9763     1
   9761   9770     1
   9761   9766     1
   9761   9774     1
   9762   9774     1
   9762   9767     1
   9762   9775     1
   9763   9773     1
   9764   9766     1
   9764   9775     1
   9765   9770     1
   9765   9766     1
   9765   9768     1
   9765   9780     1
   9765   9767     1
   9765   9775     1
   9766   9771     1
   9766   9769     1
   9766   9773     1
   9767   9769     1
   9776   9780     1
   9776   9779     1
   9777   9780     1
   9777   9779     1
   9781   9789     1
   9781   9797     1
   9781   9802     1
   9781   9790     1
   9782   9788     1
   9782   9796     1
   9782   9799     1
   9782   9800     1
   9783   9785     1
   9783   9794     1
   9783   9784     1
   9783   9801     1
   9783   9799     1
   9783   9800     1
   9783   9787     1
   9784   9786     1
   9784   9793     1
   9784   9789     1
   9784   9797     1
   9784   9795     1
   9784   9803     1
   9785   9790     1
   9785   9798     1
   9785   9797     1
   9786   9796     1
   9787   9798     1
   9787   9789     1
   9788   9791     1
   9788   9803     1
   9788   9790     1
   9788   9798     1
   9788   9793     1
   9788   9789     1
   9789   9792     1
   9789   9796     1
   9789   9794     1
   9790   9792     1
   9799   9802     1
   9799   9803     1
   9800   9802     1
   9800   9803     1
   9804   9812     1
   9804   9820     1
   9804   9825     1
   9804   9813     1
   9805   9822     1
   9805   9823     1
   9805   9811     1
   9805   9819     1
   9806   9808     1
   9806   9817     1
   9806   9807     1
   9806   9824     1
   9806   9822     1
   9806   9823     1
   9806   9810     1
   9807   9818     1
   9807   9826     1
   9807   9809     1
   9807   9816     1
   9807   9812     1
   9807   9820     1
   9808   9820     1
   9808   9813     1
   9808   9821     1
   9809   9819     1
   9810   9812     1
   9810   9821     1
   9811   9816     1
   9811   9812     1
   9811   9814     1
   9811   9826     1
   9811   9813     1
   9811   9821     1
   9812   9817     1
   9812   9815     1
   9812   9819     1
   9813   9815     1
   9822   9826     1
   9822   9825     1
   9823   9826     1
   9823   9825     1
   9827   9835     1
   9827   9843     1
   9827   9848     1
   9827   9836     1
   9828   9834     1
   9828   9842     1
   9828   9845     1
   9828   9846     1
   9829   9831     1
   9829   9840     1
   9829   9830     1
   9829   9847     1
   9829   9845     1
   9829   9846     1
   9829   9833     1
   9830   9832     1
   9830   9839     1
   9830   9835     1
   9830   9843     1
   9830   9841     1
   9830   9849     1
   9831   9836     1
   9831   9844     1
   9831   9843     1
   9832   9842     1
   9833   9844     1
   9833   9835     1
   9834   9837     1
   9834   9849     1
   9834   9836     1
   9834   9844     1
   9834   9839     1
   9834   9835     1
   9835   9838     1
   9835   9842     1
   9835   9840     1
   9836   9838     1
   9845   9848     1
   9845   9849     1
   9846   9848     1
   9846   9849     1
   9850   9858     1
   9850   9866     1
   9850   9871     1
   9850   9859     1
   9851   9868     1
   9851   9869     1
   9851   9857     1
   9851   9865     1
   9852   9854     1
   9852   9863     1
   9852   9853     1
   9852   9870     1
   9852   9868     1
   9852   9869     1
   9852   9856     1
   9853   9864     1
   9853   9872     1
   9853   9855     1
   9853   9862     1
   9853   9858     1
   9853   9866     1
   9854   9866     1
   9854   9859     1
   9854   9867     1
   9855   9865     1
   9856   9858     1
   9856   9867     1
   9857   9862     1
   9857   9858     1
   9857   9860     1
   9857   9872     1
   9857   9859     1
   9857   9867     1
   9858   9863     1
   9858   9861     1
   9858   9865     1
   9859   9861     1
   9868   9872     1
   9868   9871     1
   9869   9872     1
   9869   9871     1
   9873   9881     1
   9873   9889     1
   9873   9894     1
   9873   9882     1
   9874   9880     1
   9874   9888     1
   9874   9891     1
   9874   9892     1
   9875   9877     1
   9875   9886     1
   9875   9876     1
   9875   9893     1
   9875   9891     1
   9875   9892     1
   9875   9879     1
   9876   9878     1
   9876   9885     1
   9876   9881     1
   9876   9889     1
   9876   9887     1
   9876   9895     1
   9877   9882     1
   9877   9890     1
   9877   9889     1
   9878   9888     1
   9879   9890     1
   9879   9881     1
   9880   9883     1
   9880   9895     1
   9880   9882     1
   9880   9890     1
   9880   9885     1
   9880   9881     1
   9881   9884     1
   9881   9888     1
   9881   9886     1
   9882   9884     1
   9891   9894     1
   9891   9895     1
   9892   9894     1
   9892   9895     1
   9896   9904     1
   9896   9912     1
   9896   9917     1
   9896   9905     1
   9897   9914     1
   9897   9915     1
   9897   9903     1
   9897   9911     1
   9898   9900     1
   9898   9909     1
   9898   9899     1
   9898   9916     1
   9898   9914     1
   9898   9915     1
   9898   9902     1
   9899   9910     1
   9899   9918     1
   9899   9901     1
   9899   9908     1
   9899   9904     1
   9899   9912     1
   9900   9912     1
   9900   9905     1
   9900   9913     1
   9901   9911     1
   9902   9904     1
   9902   9913     1
   9903   9908     1
   9903   9904     1
   9903   9906     1
   9903   9918     1
   9903   9905     1
   9903   9913     1
   9904   9909     1
   9904   9907     1
   9904   9911     1
   9905   9907     1
   9914   9918     1
   9914   9917     1
   9915   9918     1
   9915   9917     1
   9919   9927     1
   9919   9935     1
   9919   9940     1
   9919   9928     1
   9920   9926     1
   9920   9934     1
   9920   9937     1
   9920   9938     1
   9921   9923     1
   9921   9932     1
   9921   9922     1
   9921   9939     1
   9921   9937     1
   9921   9938     1
   9921   9925     1
   9922   9924     1
   9922   9931     1
   9922   9927     1
   9922   9935     1
   9922   9933     1
   9922   9941     1
   9923   9928     1
   9923   9936     1
   9923   9935     1
   9924   9934     1
   9925   9936     1
   9925   9927     1
   9926   9929     1
   9926   9941     1
   9926   9928     1
   9926   9936     1
   9926   9931     1
   9926   9927     1
   9927   9930     1
   9927   9934     1
   9927   9932     1
   9928   9930     1
   9937   9940     1
   9937   9941     1
   9938   9940     1
   9938   9941     1
   9942   9950     1
   9942   9958     1
   9942   9963     1
   9942   9951     1
   9943   9960     1
   9943   9961     1
   9943   9949     1
   9943   9957     1
   9944   9946     1
   9944   9955     1
   9944   9945     1
   9944   9962     1
   9944   9960     1
   9944   9961     1
   9944   9948     1
   9945   9956     1
   9945   9964     1
   9945   9947     1
   9945   9954     1
   9945   9950     1
   9945   9958     1
   9946   9958     1
   9946   9951     1
   9946   9959     1
   9947   9957     1
   9948   9950     1
   9948   9959     1
   9949   9954     1
   9949   9950     1
   9949   9952     1
   9949   9964     1
   9949   9951     1
   9949   9959     1
   9950   9955     1
   9950   9953     1
   9950   9957     1
   9951   9953     1
   9960   9964     1
   9960   9963     1
   9961   9964     1
   9961   9963     1
   9965   9973     1
   9965   9981     1
   9965   9986     1
   9965   9974     1
   9966   9972     1
   9966   9980     1
   9966   9983     1
   9966   9984     1
   9967   9969     1
   9967   9978     1
   9967   9968     1
   9967   9985     1
   9967   9983     1
   9967   9984     1
   9967   9971     1
   9968   9970     1
   9968   9977     1
   9968   9973     1
   9968   9981     1
   9968   9979     1
   9968   9987     1
   9969   9974     1
   9969   9982     1
   9969   9981     1
   9970   9980     1
   9971   9982     1
   9971   9973     1
   9972   9975     1
   9972   9987     1
   9972   9974     1
   9972   9982     1
   9972   9977     1
   9972   9973     1
   9973   9976     1
   9973   9980     1
   9973   9978     1
   9974   9976     1
   9983   9986     1
   9983   9987     1
   9984   9986     1
   9984   9987     1
   9988   9996     1
   9988  10004     1
   9988  10009     1
   9988   9997     1
   9989  10006     1
   9989  10007     1
   9989   9995     1
   9989  10003     1
   9990   9992     1
   9990  10001     1
   9990   9991     1
   9990  10008     1
   9990  10006     1
   9990  10007     1
   9990   9994     1
   9991  10002     1
   9991  10010     1
   9991   9993     1
   9991  10000     1
   9991   9996     1
   9991  10004     1
   9992  10004     1
   9992   9997     1
   9992  10005     1
   9993  10003     1
   9994   9996     1
   9994  10005     1
   9995  10000     1
   9995   9996     1
   9995   9998     1
   9995  10010     1
   9995   9997     1
   9995  10005     1
   9996  10001     1
   9996   9999     1
   9996  10003     1
   9997   9999     1
  10006  10010     1
  10006  10009     1
  10007  10010     1
  10007  10009     1
  10011  10019     1
  10011  10027     1
  10011  10032     1
  10011  10020     1
  10012  10018     1
  10012  10026     1
  10012  10029     1
  10012  10030     1
  10013  10015     1
  10013  10024     1
  10013  10014     1
  10013  10031     1
  10013  10029     1
  10013  10030     1
  10013  10017     1
  10014  10016     1
  10014  10023     1
  10014  10019     1
  10014  10027     1
  10014  10025     1
  10014  10033     1
  10015  10020     1
  10015  10028     1
  10015  10027     1
  10016  10026     1
  10017  10028     1
  10017  10019     1
  10018  10021     1
  10018  10033     1
  10018  10020     1
  10018  10028     1
  10018  10023     1
  10018  10019     1
  10019  10022     1
  10019  10026     1
  10019  10024     1
  10020  10022     1
  10029  10032     1
  10029  10033     1
  10030  10032     1
  10030  10033     1
  10034  10042     1
  10034  10050     1
  10034  10055     1
  10034  10043     1
  10035  10052     1
  10035  10053     1
  10035  10041     1
  10035  10049     1
  10036  10038     1
  10036  10047     1
  10036  10037     1
  10036  10054     1
  10036  10052     1
  10036  10053     1
  10036  10040     1
  10037  10048     1
  10037  10056     1
  10037  10039     1
  10037  10046     1
  10037  10042     1
  10037  10050     1
  10038  10050     1
  10038  10043     1
  10038  10051     1
  10039  10049     1
  10040  10042     1
  10040  10051     1
  10041  10046     1
  10041  10042     1
  10041  10044     1
  10041  10056     1
  10041  10043     1
  10041  10051     1
  10042  10047     1
  10042  10045     1
  10042  10049     1
  10043  10045     1
  10052  10056     1
  10052  10055     1
  10053  10056     1
  10053  10055     1
  10057  10065     1
  10057  10073     1
  10057  10078     1
  10057  10066     1
  10058  10064     1
  10058  10072     1
  10058  10075     1
  10058  10076     1
  10059  10061     1
  10059  10070     1
  10059  10060     1
  10059  10077     1
  10059  10075     1
  10059  10076     1
  10059  10063     1
  10060  10062     1
  10060  10069     1
  10060  10065     1
  10060  10073     1
  10060  10071     1
  10060  10079     1
  10061  10066     1
  10061  10074     1
  10061  10073     1
  10062  10072     1
  10063  10074     1
  10063  10065     1
  10064  10067     1
  10064  10079     1
  10064  10066     1
  10064  10074     1
  10064  10069     1
  10064  10065     1
  10065  10068     1
  10065  10072     1
  10065  10070     1
  10066  10068     1
  10075  10078     1
  10075  10079     1
  10076  10078     1
  10076  10079     1
  10080  10088     1
  10080  10096     1
  10080  10101     1
  10080  10089     1
  10081  10098     1
  10081  10099     1
  10081  10087     1
  10081  10095     1
  10082  10084     1
  10082  10093     1
  10082  10083     1
  10082  10100     1
  10082  10098     1
  10082  10099     1
  10082  10086     1
  10083  10094     1
  10083  10102     1
  10083  10085     1
  10083  10092     1
  10083  10088     1
  10083  10096     1
  10084  10096     1
  10084  10089     1
  10084  10097     1
  10085  10095     1
  10086  10088     1
  10086  10097     1
  10087  10092     1
  10087  10088     1
  10087  10090     1
  10087  10102     1
  10087  10089     1
  10087  10097     1
  10088  10093     1
  10088  10091     1
  10088  10095     1
  10089  10091     1
  10098  10102     1
  10098  10101     1
  10099  10102     1
  10099  10101     1
  10103  10111     1
  10103  10119     1
  10103  10124     1
  10103  10112     1
  10104  10110     1
  10104  10118     1
  10104  10121     1
  10104  10122     1
  10105  10107     1
  10105  10116     1
  10105  10106     1
  10105  10123     1
  10105  10121     1
  10105  10122     1
  10105  10109     1
  10106  10108     1
  10106  10115     1
  10106  10111     1
  10106  10119     1
  10106  10117     1
  10106  10125     1
  10107  10112     1
  10107  10120     1
  10107  10119     1
  10108  10118     1
  10109  10120     1
  10109  10111     1
  10110  10113     1
  10110  10125     1
  10110  10112     1
  10110  10120     1
  10110  10115     1
  10110  10111     1
  10111  10114     1
  10111  10118     1
  10111  10116     1
  10112  10114     1
  10121  10124     1
  10121  10125     1
  10122  10124     1
  10122  10125     1
  10126  10134     1
  10126  10142     1
  10126  10147     1
  10126  10135     1
  10127  10144     1
  10127  10145     1
  10127  10133     1
  10127  10141     1
  10128  10130     1
  10128  10139     1
  10128  10129     1
  10128  10146     1
  10128  10144     1
  10128  10145     1
  10128  10132     1
  10129  10140     1
  10129  10148     1
  10129  10131     1
  10129  10138     1
  10129  10134     1
  10129  10142     1
  10130  10142     1
  10130  10135     1
  10130  10143     1
  10131  10141     1
  10132  10134     1
  10132  10143     1
  10133  10138     1
  10133  10134     1
  10133  10136     1
  10133  10148     1
  10133  10135     1
  10133  10143     1
  10134  10139     1
  10134  10137     1
  10134  10141     1
  10135  10137     1
  10144  10148     1
  10144  10147     1
  10145  10148     1
  10145  10147     1
  10149  10157     1
  10149  10165     1
  10149  10170     1
  10149  10158     1
  10150  10156     1
  10150  10164     1
  10150  10167     1
  10150  10168     1
  10151  10153     1
  10151  10162     1
  10151  10152     1
  10151  10169     1
  10151  10167     1
  10151  10168     1
  10151  10155     1
  10152  10154     1
  10152  10161     1
  10152  10157     1
  10152  10165     1
  10152  10163     1
  10152  10171     1
  10153  10158     1
  10153  10166     1
  10153  10165     1
  10154  10164     1
  10155  10166     1
  10155  10157     1
  10156  10159     1
  10156  10171     1
  10156  10158     1
  10156  10166     1
  10156  10161     1
  10156  10157     1
  10157  10160     1
  10157  10164     1
  10157  10162     1
  10158  10160     1
  10167  10170     1
  10167  10171     1
  10168  10170     1
  10168  10171     1
  10172  10180     1
  10172  10188     1
  10172  10193     1
  10172  10181     1
  10173  10190     1
  10173  10191     1
  10173  10179     1
  10173  10187     1
  10174  10176     1
  10174  10185     1
  10174  10175     1
  10174  10192     1
  10174  10190     1
  10174  10191     1
  10174  10178     1
  10175  10186     1
  10175  10194     1
  10175  10177     1
  10175  10184     1
  10175  10180     1
  10175  10188     1
  10176  10188     1
  10176  10181     1
  10176  10189     1
  10177  10187     1
  10178  10180     1
  10178  10189     1
  10179  10184     1
  10179  10180     1
  10179  10182     1
  10179  10194     1
  10179  10181     1
  10179  10189     1
  10180  10185     1
  10180  10183     1
  10180  10187     1
  10181  10183     1
  10190  10194     1
  10190  10193     1
  10191  10194     1
  10191  10193     1
  10195  10203     1
  10195  10211     1
  10195  10216     1
  10195  10204     1
  10196  10202     1
  10196  10210     1
  10196  10213     1
  10196  10214     1
  10197  10199     1
  10197  10208     1
  10197  10198     1
  10197  10215     1
  10197  10213     1
  10197  10214     1
  10197  10201     1
  10198  10200     1
  10198  10207     1
  10198  10203     1
  10198  10211     1
  10198  10209     1
  10198  10217     1
  10199  10204     1
  10199  10212     1
  10199  10211     1
  10200  10210     1
  10201  10212     1
  10201  10203     1
  10202  10205     1
  10202  10217     1
  10202  10204     1
  10202  10212     1
  10202  10207     1
  10202  10203     1
  10203  10206     1
  10203  10210     1
  10203  10208     1
  10204  10206     1
  10213  10216     1
  10213  10217     1
  10214  10216     1
  10214  10217     1
  10218  10226     1
  10218  10234     1
  10218  10239     1
  10218  10227     1
  10219  10236     1
  10219  10237     1
  10219  10225     1
  10219  10233     1
  10220  10222     1
  10220  10231     1
  10220  10221     1
  10220  10238     1
  10220  10236     1
  10220  10237     1
  10220  10224     1
  10221  10232     1
  10221  10240     1
  10221  10223     1
  10221  10230     1
  10221  10226     1
  10221  10234     1
  10222  10234     1
  10222  10227     1
  10222  10235     1
  10223  10233     1
  10224  10226     1
  10224  10235     1
  10225  10230     1
  10225  10226     1
  10225  10228     1
  10225  10240     1
  10225  10227     1
  10225  10235     1
  10226  10231     1
  10226  10229     1
  10226  10233     1
  10227  10229     1
  10236  10240     1
  10236  10239     1
  10237  10240     1
  10237  10239     1
  10241  10249     1
  10241  10257     1
  10241  10262     1
  10241  10250     1
  10242  10248     1
  10242  10256     1
  10242  10259     1
  10242  10260     1
  10243  10245     1
  10243  10254     1
  10243  10244     1
  10243  10261     1
  10243  10259     1
  10243  10260     1
  10243  10247     1
  10244  10246     1
  10244  10253     1
  10244  10249     1
  10244  10257     1
  10244  10255     1
  10244  10263     1
  10245  10250     1
  10245  10258     1
  10245  10257     1
  10246  10256     1
  10247  10258     1
  10247  10249     1
  10248  10251     1
  10248  10263     1
  10248  10250     1
  10248  10258     1
  10248  10253     1
  10248  10249     1
  10249  10252     1
  10249  10256     1
  10249  10254     1
  10250  10252     1
  10259  10262     1
  10259  10263     1
  10260  10262     1
  10260  10263     1
  10264  10272     1
  10264  10280     1
  10264  10285     1
  10264  10273     1
  10265  10282     1
  10265  10283     1
  10265  10271     1
  10265  10279     1
  10266  10268     1
  10266  10277     1
  10266  10267     1
  10266  10284     1
  10266  10282     1
  10266  10283     1
  10266  10270     1
  10267  10278     1
  10267  10286     1
  10267  10269     1
  10267  10276     1
  10267  10272     1
  10267  10280     1
  10268  10280     1
  10268  10273     1
  10268  10281     1
  10269  10279     1
  10270  10272     1
  10270  10281     1
  10271  10276     1
  10271  10272     1
  10271  10274     1
  10271  10286     1
  10271  10273     1
  10271  10281     1
  10272  10277     1
  10272  10275     1
  10272  10279     1
  10273  10275     1
  10282  10286     1
  10282  10285     1
  10283  10286     1
  10283  10285     1
  10287  10295     1
  10287  10303     1
  10287  10308     1
  10287  10296     1
  10288  10294     1
  10288  10302     1
  10288  10305     1
  10288  10306     1
  10289  10291     1
  10289  10300     1
  10289  10290     1
  10289  10307     1
  10289  10305     1
  10289  10306     1
  10289  10293     1
  10290  10292     1
  10290  10299     1
  10290  10295     1
  10290  10303     1
  10290  10301     1
  10290  10309     1
  10291  10296     1
  10291  10304     1
  10291  10303     1
  10292  10302     1
  10293  10304     1
  10293  10295     1
  10294  10297     1
  10294  10309     1
  10294  10296     1
  10294  10304     1
  10294  10299     1
  10294  10295     1
  10295  10298     1
  10295  10302     1
  10295  10300     1
  10296  10298     1
  10305  10308     1
  10305  10309     1
  10306  10308     1
  10306  10309     1
  10310  10318     1
  10310  10326     1
  10310  10331     1
  10310  10319     1
  10311  10328     1
  10311  10329     1
  10311  10317     1
  10311  10325     1
  10312  10314     1
  10312  10323     1
  10312  10313     1
  10312  10330     1
  10312  10328     1
  10312  10329     1
  10312  10316     1
  10313  10324     1
  10313  10332     1
  10313  10315     1
  10313  10322     1
  10313  10318     1
  10313  10326     1
  10314  10326     1
  10314  10319     1
  10314  10327     1
  10315  10325     1
  10316  10318     1
  10316  10327     1
  10317  10322     1
  10317  10318     1
  10317  10320     1
  10317  10332     1
  10317  10319     1
  10317  10327     1
  10318  10323     1
  10318  10321     1
  10318  10325     1
  10319  10321     1
  10328  10332     1
  10328  10331     1
  10329  10332     1
  10329  10331     1
  10333  10341     1
  10333  10349     1
  10333  10354     1
  10333  10342     1
  10334  10340     1
  10334  10348     1
  10334  10351     1
  10334  10352     1
  10335  10337     1
  10335  10346     1
  10335  10336     1
  10335  10353     1
  10335  10351     1
  10335  10352     1
  10335  10339     1
  10336  10338     1
  10336  10345     1
  10336  10341     1
  10336  10349     1
  10336  10347     1
  10336  10355     1
  10337  10342     1
  10337  10350     1
  10337  10349     1
  10338  10348     1
  10339  10350     1
  10339  10341     1
  10340  10343     1
  10340  10355     1
  10340  10342     1
  10340  10350     1
  10340  10345     1
  10340  10341     1
  10341  10344     1
  10341  10348     1
  10341  10346     1
  10342  10344     1
  10351  10354     1
  10351  10355     1
  10352  10354     1
  10352  10355     1
  10356  10364     1
  10356  10372     1
  10356  10377     1
  10356  10365     1
  10357  10374     1
  10357  10375     1
  10357  10363     1
  10357  10371     1
  10358  10360     1
  10358  10369     1
  10358  10359     1
  10358  10376     1
  10358  10374     1
  10358  10375     1
  10358  10362     1
  10359  10370     1
  10359  10378     1
  10359  10361     1
  10359  10368     1
  10359  10364     1
  10359  10372     1
  10360  10372     1
  10360  10365     1
  10360  10373     1
  10361  10371     1
  10362  10364     1
  10362  10373     1
  10363  10368     1
  10363  10364     1
  10363  10366     1
  10363  10378     1
  10363  10365     1
  10363  10373     1
  10364  10369     1
  10364  10367     1
  10364  10371     1
  10365  10367     1
  10374  10378     1
  10374  10377     1
  10375  10378     1
  10375  10377     1
  10379  10387     1
  10379  10395     1
  10379  10400     1
  10379  10388     1
  10380  10386     1
  10380  10394     1
  10380  10397     1
  10380  10398     1
  10381  10383     1
  10381  10392     1
  10381  10382     1
  10381  10399     1
  10381  10397     1
  10381  10398     1
  10381  10385     1
  10382  10384     1
  10382  10391     1
  10382  10387     1
  10382  10395     1
  10382  10393     1
  10382  10401     1
  10383  10388     1
  10383  10396     1
  10383  10395     1
  10384  10394     1
  10385  10396     1
  10385  10387     1
  10386  10389     1
  10386  10401     1
  10386  10388     1
  10386  10396     1
  10386  10391     1
  10386  10387     1
  10387  10390     1
  10387  10394     1
  10387  10392     1
  10388  10390     1
  10397  10400     1
  10397  10401     1
  10398  10400     1
  10398  10401     1
  10402  10410     1
  10402  10418     1
  10402  10423     1
  10402  10411     1
  10403  10420     1
  10403  10421     1
  10403  10409     1
  10403  10417     1
  10404  10406     1
  10404  10415     1
  10404  10405     1
  10404  10422     1
  10404  10420     1
  10404  10421     1
  10404  10408     1
  10405  10416     1
  10405  10424     1
  10405  10407     1
  10405  10414     1
  10405  10410     1
  10405  10418     1
  10406  10418     1
  10406  10411     1
  10406  10419     1
  10407  10417     1
  10408  10410     1
  10408  10419     1
  10409  10414     1
  10409  10410     1
  10409  10412     1
  10409  10424     1
  10409  10411     1
  10409  10419     1
  10410  10415     1
  10410  10413     1
  10410  10417     1
  10411  10413     1
  10420  10424     1
  10420  10423     1
  10421  10424     1
  10421  10423     1
  10425  10433     1
  10425  10441     1
  10425  10446     1
  10425  10434     1
  10426  10432     1
  10426  10440     1
  10426  10443     1
  10426  10444     1
  10427  10429     1
  10427  10438     1
  10427  10428     1
  10427  10445     1
  10427  10443     1
  10427  10444     1
  10427  10431     1
  10428  10430     1
  10428  10437     1
  10428  10433     1
  10428  10441     1
  10428  10439     1
  10428  10447     1
  10429  10434     1
  10429  10442     1
  10429  10441     1
  10430  10440     1
  10431  10442     1
  10431  10433     1
  10432  10435     1
  10432  10447     1
  10432  10434     1
  10432  10442     1
  10432  10437     1
  10432  10433     1
  10433  10436     1
  10433  10440     1
  10433  10438     1
  10434  10436     1
  10443  10446     1
  10443  10447     1
  10444  10446     1
  10444  10447     1
  10448  10456     1
  10448  10464     1
  10448  10469     1
  10448  10457     1
  10449  10466     1
  10449  10467     1
  10449  10455     1
  10449  10463     1
  10450  10452     1
  10450  10461     1
  10450  10451     1
  10450  10468     1
  10450  10466     1
  10450  10467     1
  10450  10454     1
  10451  10462     1
  10451  10470     1
  10451  10453     1
  10451  10460     1
  10451  10456     1
  10451  10464     1
  10452  10464     1
  10452  10457     1
  10452  10465     1
  10453  10463     1
  10454  10456     1
  10454  10465     1
  10455  10460     1
  10455  10456     1
  10455  10458     1
  10455  10470     1
  10455  10457     1
  10455  10465     1
  10456  10461     1
  10456  10459     1
  10456  10463     1
  10457  10459     1
  10466  10470     1
  10466  10469     1
  10467  10470     1
  10467  10469     1
  10471  10479     1
  10471  10487     1
  10471  10492     1
  10471  10480     1
  10472  10478     1
  10472  10486     1
  10472  10489     1
  10472  10490     1
  10473  10475     1
  10473  10484     1
  10473  10474     1
  10473  10491     1
  10473  10489     1
  10473  10490     1
  10473  10477     1
  10474  10476     1
  10474  10483     1
  10474  10479     1
  10474  10487     1
  10474  10485     1
  10474  10493     1
  10475  10480     1
  10475  10488     1
  10475  10487     1
  10476  10486     1
  10477  10488     1
  10477  10479     1
  10478  10481     1
  10478  10493     1
  10478  10480     1
  10478  10488     1
  10478  10483     1
  10478  10479     1
  10479  10482     1
  10479  10486     1
  10479  10484     1
  10480  10482     1
  10489  10492     1
  10489  10493     1
  10490  10492     1
  10490  10493     1
  10494  10502     1
  10494  10510     1
  10494  10515     1
  10494  10503     1
  10495  10512     1
  10495  10513     1
  10495  10501     1
  10495  10509     1
  10496  10498     1
  10496  10507     1
  10496  10497     1
  10496  10514     1
  10496  10512     1
  10496  10513     1
  10496  10500     1
  10497  10508     1
  10497  10516     1
  10497  10499     1
  10497  10506     1
  10497  10502     1
  10497  10510     1
  10498  10510     1
  10498  10503     1
  10498  10511     1
  10499  10509     1
  10500  10502     1
  10500  10511     1
  10501  10506     1
  10501  10502     1
  10501  10504     1
  10501  10516     1
  10501  10503     1
  10501  10511     1
  10502  10507     1
  10502  10505     1
  10502  10509     1
  10503  10505     1
  10512  10516     1
  10512  10515     1
  10513  10516     1
  10513  10515     1
  10517  10525     1
  10517  10533     1
  10517  10538     1
  10517  10526     1
  10518  10524     1
  10518  10532     1
  10518  10535     1
  10518  10536     1
  10519  10521     1
  10519  10530     1
  10519  10520     1
  10519  10537     1
  10519  10535     1
  10519  10536     1
  10519  10523     1
  10520  10522     1
  10520  10529     1
  10520  10525     1
  10520  10533     1
  10520  10531     1
  10520  10539     1
  10521  10526     1
  10521  10534     1
  10521  10533     1
  10522  10532     1
  10523  10534     1
  10523  10525     1
  10524  10527     1
  10524  10539     1
  10524  10526     1
  10524  10534     1
  10524  10529     1
  10524  10525     1
  10525  10528     1
  10525  10532     1
  10525  10530     1
  10526  10528     1
  10535  10538     1
  10535  10539     1
  10536  10538     1
  10536  10539     1
  10540  10548     1
  10540  10556     1
  10540  10561     1
  10540  10549     1
  10541  10558     1
  10541  10559     1
  10541  10547     1
  10541  10555     1
  10542  10544     1
  10542  10553     1
  10542  10543     1
  10542  10560     1
  10542  10558     1
  10542  10559     1
  10542  10546     1
  10543  10554     1
  10543  10562     1
  10543  10545     1
  10543  10552     1
  10543  10548     1
  10543  10556     1
  10544  10556     1
  10544  10549     1
  10544  10557     1
  10545  10555     1
  10546  10548     1
  10546  10557     1
  10547  10552     1
  10547  10548     1
  10547  10550     1
  10547  10562     1
  10547  10549     1
  10547  10557     1
  10548  10553     1
  10548  10551     1
  10548  10555     1
  10549  10551     1
  10558  10562     1
  10558  10561     1
  10559  10562     1
  10559  10561     1
  10563  10571     1
  10563  10579     1
  10563  10584     1
  10563  10572     1
  10564  10570     1
  10564  10578     1
  10564  10581     1
  10564  10582     1
  10565  10567     1
  10565  10576     1
  10565  10566     1
  10565  10583     1
  10565  10581     1
  10565  10582     1
  10565  10569     1
  10566  10568     1
  10566  10575     1
  10566  10571     1
  10566  10579     1
  10566  10577     1
  10566  10585     1
  10567  10572     1
  10567  10580     1
  10567  10579     1
  10568  10578     1
  10569  10580     1
  10569  10571     1
  10570  10573     1
  10570  10585     1
  10570  10572     1
  10570  10580     1
  10570  10575     1
  10570  10571     1
  10571  10574     1
  10571  10578     1
  10571  10576     1
  10572  10574     1
  10581  10584     1
  10581  10585     1
  10582  10584     1
  10582  10585     1
  10586  10594     1
  10586  10602     1
  10586  10607     1
  10586  10595     1
  10587  10604     1
  10587  10605     1
  10587  10593     1
  10587  10601     1
  10588  10590     1
  10588  10599     1
  10588  10589     1
  10588  10606     1
  10588  10604     1
  10588  10605     1
  10588  10592     1
  10589  10600     1
  10589  10608     1
  10589  10591     1
  10589  10598     1
  10589  10594     1
  10589  10602     1
  10590  10602     1
  10590  10595     1
  10590  10603     1
  10591  10601     1
  10592  10594     1
  10592  10603     1
  10593  10598     1
  10593  10594     1
  10593  10596     1
  10593  10608     1
  10593  10595     1
  10593  10603     1
  10594  10599     1
  10594  10597     1
  10594  10601     1
  10595  10597     1
  10604  10608     1
  10604  10607     1
  10605  10608     1
  10605  10607     1
  10609  10617     1
  10609  10625     1
  10609  10630     1
  10609  10618     1
  10610  10616     1
  10610  10624     1
  10610  10627     1
  10610  10628     1
  10611  10613     1
  10611  10622     1
  10611  10612     1
  10611  10629     1
  10611  10627     1
  10611  10628     1
  10611  10615     1
  10612  10614     1
  10612  10621     1
  10612  10617     1
  10612  10625     1
  10612  10623     1
  10612  10631     1
  10613  10618     1
  10613  10626     1
  10613  10625     1
  10614  10624     1
  10615  10626     1
  10615  10617     1
  10616  10619     1
  10616  10631     1
  10616  10618     1
  10616  10626     1
  10616  10621     1
  10616  10617     1
  10617  10620     1
  10617  10624     1
  10617  10622     1
  10618  10620     1
  10627  10630     1
  10627  10631     1
  10628  10630     1
  10628  10631     1
  10632  10640     1
  10632  10648     1
  10632  10653     1
  10632  10641     1
  10633  10650     1
  10633  10651     1
  10633  10639     1
  10633  10647     1
  10634  10636     1
  10634  10645     1
  10634  10635     1
  10634  10652     1
  10634  10650     1
  10634  10651     1
  10634  10638     1
  10635  10646     1
  10635  10654     1
  10635  10637     1
  10635  10644     1
  10635  10640     1
  10635  10648     1
  10636  10648     1
  10636  10641     1
  10636  10649     1
  10637  10647     1
  10638  10640     1
  10638  10649     1
  10639  10644     1
  10639  10640     1
  10639  10642     1
  10639  10654     1
  10639  10641     1
  10639  10649     1
  10640  10645     1
  10640  10643     1
  10640  10647     1
  10641  10643     1
  10650  10654     1
  10650  10653     1
  10651  10654     1
  10651  10653     1
  10655  10663     1
  10655  10671     1
  10655  10676     1
  10655  10664     1
  10656  10662     1
  10656  10670     1
  10656  10673     1
  10656  10674     1
  10657  10659     1
  10657  10668     1
  10657  10658     1
  10657  10675     1
  10657  10673     1
  10657  10674     1
  10657  10661     1
  10658  10660     1
  10658  10667     1
  10658  10663     1
  10658  10671     1
  10658  10669     1
  10658  10677     1
  10659  10664     1
  10659  10672     1
  10659  10671     1
  10660  10670     1
  10661  10672     1
  10661  10663     1
  10662  10665     1
  10662  10677     1
  10662  10664     1
  10662  10672     1
  10662  10667     1
  10662  10663     1
  10663  10666     1
  10663  10670     1
  10663  10668     1
  10664  10666     1
  10673  10676     1
  10673  10677     1
  10674  10676     1
  10674  10677     1
  10678  10686     1
  10678  10694     1
  10678  10699     1
  10678  10687     1
  10679  10696     1
  10679  10697     1
  10679  10685     1
  10679  10693     1
  10680  10682     1
  10680  10691     1
  10680  10681     1
  10680  10698     1
  10680  10696     1
  10680  10697     1
  10680  10684     1
  10681  10692     1
  10681  10700     1
  10681  10683     1
  10681  10690     1
  10681  10686     1
  10681  10694     1
  10682  10694     1
  10682  10687     1
  10682  10695     1
  10683  10693     1
  10684  10686     1
  10684  10695     1
  10685  10690     1
  10685  10686     1
  10685  10688     1
  10685  10700     1
  10685  10687     1
  10685  10695     1
  10686  10691     1
  10686  10689     1
  10686  10693     1
  10687  10689     1
  10696  10700     1
  10696  10699     1
  10697  10700     1
  10697  10699     1
  10701  10709     1
  10701  10717     1
  10701  10722     1
  10701  10710     1
  10702  10708     1
  10702  10716     1
  10702  10719     1
  10702  10720     1
  10703  10705     1
  10703  10714     1
  10703  10704     1
  10703  10721     1
  10703  10719     1
  10703  10720     1
  10703  10707     1
  10704  10706     1
  10704  10713     1
  10704  10709     1
  10704  10717     1
  10704  10715     1
  10704  10723     1
  10705  10710     1
  10705  10718     1
  10705  10717     1
  10706  10716     1
  10707  10718     1
  10707  10709     1
  10708  10711     1
  10708  10723     1
  10708  10710     1
  10708  10718     1
  10708  10713     1
  10708  10709     1
  10709  10712     1
  10709  10716     1
  10709  10714     1
  10710  10712     1
  10719  10722     1
  10719  10723     1
  10720  10722     1
  10720  10723     1
  10724  10732     1
  10724  10740     1
  10724  10745     1
  10724  10733     1
  10725  10742     1
  10725  10743     1
  10725  10731     1
  10725  10739     1
  10726  10728     1
  10726  10737     1
  10726  10727     1
  10726  10744     1
  10726  10742     1
  10726  10743     1
  10726  10730     1
  10727  10738     1
  10727  10746     1
  10727  10729     1
  10727  10736     1
  10727  10732     1
  10727  10740     1
  10728  10740     1
  10728  10733     1
  10728  10741     1
  10729  10739     1
  10730  10732     1
  10730  10741     1
  10731  10736     1
  10731  10732     1
  10731  10734     1
  10731  10746     1
  10731  10733     1
  10731  10741     1
  10732  10737     1
  10732  10735     1
  10732  10739     1
  10733  10735     1
  10742  10746     1
  10742  10745     1
  10743  10746     1
  10743  10745     1
  10747  10755     1
  10747  10763     1
  10747  10768     1
  10747  10756     1
  10748  10754     1
  10748  10762     1
  10748  10765     1
  10748  10766     1
  10749  10751     1
  10749  10760     1
  10749  10750     1
  10749  10767     1
  10749  10765     1
  10749  10766     1
  10749  10753     1
  10750  10752     1
  10750  10759     1
  10750  10755     1
  10750  10763     1
  10750  10761     1
  10750  10769     1
  10751  10756     1
  10751  10764     1
  10751  10763     1
  10752  10762     1
  10753  10764     1
  10753  10755     1
  10754  10757     1
  10754  10769     1
  10754  10756     1
  10754  10764     1
  10754  10759     1
  10754  10755     1
  10755  10758     1
  10755  10762     1
  10755  10760     1
  10756  10758     1
  10765  10768     1
  10765  10769     1
  10766  10768     1
  10766  10769     1
  10770  10778     1
  10770  10786     1
  10770  10791     1
  10770  10779     1
  10771  10788     1
  10771  10789     1
  10771  10777     1
  10771  10785     1
  10772  10774     1
  10772  10783     1
  10772  10773     1
  10772  10790     1
  10772  10788     1
  10772  10789     1
  10772  10776     1
  10773  10784     1
  10773  10792     1
  10773  10775     1
  10773  10782     1
  10773  10778     1
  10773  10786     1
  10774  10786     1
  10774  10779     1
  10774  10787     1
  10775  10785     1
  10776  10778     1
  10776  10787     1
  10777  10782     1
  10777  10778     1
  10777  10780     1
  10777  10792     1
  10777  10779     1
  10777  10787     1
  10778  10783     1
  10778  10781     1
  10778  10785     1
  10779  10781     1
  10788  10792     1
  10788  10791     1
  10789  10792     1
  10789  10791     1
  10793  10801     1
  10793  10809     1
  10793  10814     1
  10793  10802     1
  10794  10800     1
  10794  10808     1
  10794  10811     1
  10794  10812     1
  10795  10797     1
  10795  10806     1
  10795  10796     1
  10795  10813     1
  10795  10811     1
  10795  10812     1
  10795  10799     1
  10796  10798     1
  10796  10805     1
  10796  10801     1
  10796  10809     1
  10796  10807     1
  10796  10815     1
  10797  10802     1
  10797  10810     1
  10797  10809     1
  10798  10808     1
  10799  10810     1
  10799  10801     1
  10800  10803     1
  10800  10815     1
  10800  10802     1
  10800  10810     1
  10800  10805     1
  10800  10801     1
  10801  10804     1
  10801  10808     1
  10801  10806     1
  10802  10804     1
  10811  10814     1
  10811  10815     1
  10812  10814     1
  10812  10815     1
  10816  10824     1
  10816  10832     1
  10816  10837     1
  10816  10825     1
  10817  10834     1
  10817  10835     1
  10817  10823     1
  10817  10831     1
  10818  10820     1
  10818  10829     1
  10818  10819     1
  10818  10836     1
  10818  10834     1
  10818  10835     1
  10818  10822     1
  10819  10830     1
  10819  10838     1
  10819  10821     1
  10819  10828     1
  10819  10824     1
  10819  10832     1
  10820  10832     1
  10820  10825     1
  10820  10833     1
  10821  10831     1
  10822  10824     1
  10822  10833     1
  10823  10828     1
  10823  10824     1
  10823  10826     1
  10823  10838     1
  10823  10825     1
  10823  10833     1
  10824  10829     1
  10824  10827     1
  10824  10831     1
  10825  10827     1
  10834  10838     1
  10834  10837     1
  10835  10838     1
  10835  10837     1
  10839  10847     1
  10839  10855     1
  10839  10860     1
  10839  10848     1
  10840  10846     1
  10840  10854     1
  10840  10857     1
  10840  10858     1
  10841  10843     1
  10841  10852     1
  10841  10842     1
  10841  10859     1
  10841  10857     1
  10841  10858     1
  10841  10845     1
  10842  10844     1
  10842  10851     1
  10842  10847     1
  10842  10855     1
  10842  10853     1
  10842  10861     1
  10843  10848     1
  10843  10856     1
  10843  10855     1
  10844  10854     1
  10845  10856     1
  10845  10847     1
  10846  10849     1
  10846  10861     1
  10846  10848     1
  10846  10856     1
  10846  10851     1
  10846  10847     1
  10847  10850     1
  10847  10854     1
  10847  10852     1
  10848  10850     1
  10857  10860     1
  10857  10861     1
  10858  10860     1
  10858  10861     1
  10862  10870     1
  10862  10878     1
  10862  10883     1
  10862  10871     1
  10863  10880     1
  10863  10881     1
  10863  10869     1
  10863  10877     1
  10864  10866     1
  10864  10875     1
  10864  10865     1
  10864  10882     1
  10864  10880     1
  10864  10881     1
  10864  10868     1
  10865  10876     1
  10865  10884     1
  10865  10867     1
  10865  10874     1
  10865  10870     1
  10865  10878     1
  10866  10878     1
  10866  10871     1
  10866  10879     1
  10867  10877     1
  10868  10870     1
  10868  10879     1
  10869  10874     1
  10869  10870     1
  10869  10872     1
  10869  10884     1
  10869  10871     1
  10869  10879     1
  10870  10875     1
  10870  10873     1
  10870  10877     1
  10871  10873     1
  10880  10884     1
  10880  10883     1
  10881  10884     1
  10881  10883     1
  10885  10893     1
  10885  10901     1
  10885  10906     1
  10885  10894     1
  10886  10892     1
  10886  10900     1
  10886  10903     1
  10886  10904     1
  10887  10889     1
  10887  10898     1
  10887  10888     1
  10887  10905     1
  10887  10903     1
  10887  10904     1
  10887  10891     1
  10888  10890     1
  10888  10897     1
  10888  10893     1
  10888  10901     1
  10888  10899     1
  10888  10907     1
  10889  10894     1
  10889  10902     1
  10889  10901     1
  10890  10900     1
  10891  10902     1
  10891  10893     1
  10892  10895     1
  10892  10907     1
  10892  10894     1
  10892  10902     1
  10892  10897     1
  10892  10893     1
  10893  10896     1
  10893  10900     1
  10893  10898     1
  10894  10896     1
  10903  10906     1
  10903  10907     1
  10904  10906     1
  10904  10907     1
  10908  10916     1
  10908  10924     1
  10908  10929     1
  10908  10917     1
  10909  10926     1
  10909  10927     1
  10909  10915     1
  10909  10923     1
  10910  10912     1
  10910  10921     1
  10910  10911     1
  10910  10928     1
  10910  10926     1
  10910  10927     1
  10910  10914     1
  10911  10922     1
  10911  10930     1
  10911  10913     1
  10911  10920     1
  10911  10916     1
  10911  10924     1
  10912  10924     1
  10912  10917     1
  10912  10925     1
  10913  10923     1
  10914  10916     1
  10914  10925     1
  10915  10920     1
  10915  10916     1
  10915  10918     1
  10915  10930     1
  10915  10917     1
  10915  10925     1
  10916  10921     1
  10916  10919     1
  10916  10923     1
  10917  10919     1
  10926  10930     1
  10926  10929     1
  10927  10930     1
  10927  10929     1
  10931  10939     1
  10931  10947     1
  10931  10952     1
  10931  10940     1
  10932  10938     1
  10932  10946     1
  10932  10949     1
  10932  10950     1
  10933  10935     1
  10933  10944     1
  10933  10934     1
  10933  10951     1
  10933  10949     1
  10933  10950     1
  10933  10937     1
  10934  10936     1
  10934  10943     1
  10934  10939     1
  10934  10947     1
  10934  10945     1
  10934  10953     1
  10935  10940     1
  10935  10948     1
  10935  10947     1
  10936  10946     1
  10937  10948     1
  10937  10939     1
  10938  10941     1
  10938  10953     1
  10938  10940     1
  10938  10948     1
  10938  10943     1
  10938  10939     1
  10939  10942     1
  10939  10946     1
  10939  10944     1
  10940  10942     1
  10949  10952     1
  10949  10953     1
  10950  10952     1
  10950  10953     1
  10954  10962     1
  10954  10970     1
  10954  10975     1
  10954  10963     1
  10955  10972     1
  10955  10973     1
  10955  10961     1
  10955  10969     1
  10956  10958     1
  10956  10967     1
  10956  10957     1
  10956  10974     1
  10956  10972     1
  10956  10973     1
  10956  10960     1
  10957  10968     1
  10957  10976     1
  10957  10959     1
  10957  10966     1
  10957  10962     1
  10957  10970     1
  10958  10970     1
  10958  10963     1
  10958  10971     1
  10959  10969     1
  10960  10962     1
  10960  10971     1
  10961  10966     1
  10961  10962     1
  10961  10964     1
  10961  10976     1
  10961  10963     1
  10961  10971     1
  10962  10967     1
  10962  10965     1
  10962  10969     1
  10963  10965     1
  10972  10976     1
  10972  10975     1
  10973  10976     1
  10973  10975     1
  10977  10985     1
  10977  10993     1
  10977  10998     1
  10977  10986     1
  10978  10984     1
  10978  10992     1
  10978  10995     1
  10978  10996     1
  10979  10981     1
  10979  10990     1
  10979  10980     1
  10979  10997     1
  10979  10995     1
  10979  10996     1
  10979  10983     1
  10980  10982     1
  10980  10989     1
  10980  10985     1
  10980  10993     1
  10980  10991     1
  10980  10999     1
  10981  10986     1
  10981  10994     1
  10981  10993     1
  10982  10992     1
  10983  10994     1
  10983  10985     1
  10984  10987     1
  10984  10999     1
  10984  10986     1
  10984  10994     1
  10984  10989     1
  10984  10985     1
  10985  10988     1
  10985  10992     1
  10985  10990     1
  10986  10988     1
  10995  10998     1
  10995  10999     1
  10996  10998     1
  10996  10999     1
  11000  11008     1
  11000  11016     1
  11000  11021     1
  11000  11009     1
  11001  11018     1
  11001  11019     1
  11001  11007     1
  11001  11015     1
  11002  11004     1
  11002  11013     1
  11002  11003     1
  11002  11020     1
  11002  11018     1
  11002  11019     1
  11002  11006     1
  11003  11014     1
  11003  11022     1
  11003  11005     1
  11003  11012     1
  11003  11008     1
  11003  11016     1
  11004  11016     1
  11004  11009     1
  11004  11017     1
  11005  11015     1
  11006  11008     1
  11006  11017     1
  11007  11012     1
  11007  11008     1
  11007  11010     1
  11007  11022     1
  11007  11009     1
  11007  11017     1
  11008  11013     1
  11008  11011     1
  11008  11015     1
  11009  11011     1
  11018  11022     1
  11018  11021     1
  11019  11022     1
  11019  11021     1
  11023  11031     1
  11023  11039     1
  11023  11044     1
  11023  11032     1
  11024  11030     1
  11024  11038     1
  11024  11041     1
  11024  11042     1
  11025  11027     1
  11025  11036     1
  11025  11026     1
  11025  11043     1
  11025  11041     1
  11025  11042     1
  11025  11029     1
  11026  11028     1
  11026  11035     1
  11026  11031     1
  11026  11039     1
  11026  11037     1
  11026  11045     1
  11027  11032     1
  11027  11040     1
  11027  11039     1
  11028  11038     1
  11029  11040     1
  11029  11031     1
  11030  11033     1
  11030  11045     1
  11030  11032     1
  11030  11040     1
  11030  11035     1
  11030  11031     1
  11031  11034     1
  11031  11038     1
  11031  11036     1
  11032  11034     1
  11041  11044     1
  11041  11045     1
  11042  11044     1
  11042  11045     1
  11046  11054     1
  11046  11062     1
  11046  11067     1
  11046  11055     1
  11047  11064     1
  11047  11065     1
  11047  11053     1
  11047  11061     1
  11048  11050     1
  11048  11059     1
  11048  11049     1
  11048  11066     1
  11048  11064     1
  11048  11065     1
  11048  11052     1
  11049  11060     1
  11049  11068     1
  11049  11051     1
  11049  11058     1
  11049  11054     1
  11049  11062     1
  11050  11062     1
  11050  11055     1
  11050  11063     1
  11051  11061     1
  11052  11054     1
  11052  11063     1
  11053  11058     1
  11053  11054     1
  11053  11056     1
  11053  11068     1
  11053  11055     1
  11053  11063     1
  11054  11059     1
  11054  11057     1
  11054  11061     1
  11055  11057     1
  11064  11068     1
  11064  11067     1
  11065  11068     1
  11065  11067     1
  11069  11077     1
  11069  11085     1
  11069  11090     1
  11069  11078     1
  11070  11076     1
  11070  11084     1
  11070  11087     1
  11070  11088     1
  11071  11073     1
  11071  11082     1
  11071  11072     1
  11071  11089     1
  11071  11087     1
  11071  11088     1
  11071  11075     1
  11072  11074     1
  11072  11081     1
  11072  11077     1
  11072  11085     1
  11072  11083     1
  11072  11091     1
  11073  11078     1
  11073  11086     1
  11073  11085     1
  11074  11084     1
  11075  11086     1
  11075  11077     1
  11076  11079     1
  11076  11091     1
  11076  11078     1
  11076  11086     1
  11076  11081     1
  11076  11077     1
  11077  11080     1
  11077  11084     1
  11077  11082     1
  11078  11080     1
  11087  11090     1
  11087  11091     1
  11088  11090     1
  11088  11091     1
  11092  11100     1
  11092  11108     1
  11092  11113     1
  11092  11101     1
  11093  11110     1
  11093  11111     1
  11093  11099     1
  11093  11107     1
  11094  11096     1
  11094  11105     1
  11094  11095     1
  11094  11112     1
  11094  11110     1
  11094  11111     1
  11094  11098     1
  11095  11106     1
  11095  11114     1
  11095  11097     1
  11095  11104     1
  11095  11100     1
  11095  11108     1
  11096  11108     1
  11096  11101     1
  11096  11109     1
  11097  11107     1
  11098  11100     1
  11098  11109     1
  11099  11104     1
  11099  11100     1
  11099  11102     1
  11099  11114     1
  11099  11101     1
  11099  11109     1
  11100  11105     1
  11100  11103     1
  11100  11107     1
  11101  11103     1
  11110  11114     1
  11110  11113     1
  11111  11114     1
  11111  11113     1
  11115  11123     1
  11115  11131     1
  11115  11136     1
  11115  11124     1
  11116  11122     1
  11116  11130     1
  11116  11133     1
  11116  11134     1
  11117  11119     1
  11117  11128     1
  11117  11118     1
  11117  11135     1
  11117  11133     1
  11117  11134     1
  11117  11121     1
  11118  11120     1
  11118  11127     1
  11118  11123     1
  11118  11131     1
  11118  11129     1
  11118  11137     1
  11119  11124     1
  11119  11132     1
  11119  11131     1
  11120  11130     1
  11121  11132     1
  11121  11123     1
  11122  11125     1
  11122  11137     1
  11122  11124     1
  11122  11132     1
  11122  11127     1
  11122  11123     1
  11123  11126     1
  11123  11130     1
  11123  11128     1
  11124  11126     1
  11133  11136     1
  11133  11137     1
  11134  11136     1
  11134  11137     1
  11138  11146     1
  11138  11154     1
  11138  11159     1
  11138  11147     1
  11139  11156     1
  11139  11157     1
  11139  11145     1
  11139  11153     1
  11140  11142     1
  11140  11151     1
  11140  11141     1
  11140  11158     1
  11140  11156     1
  11140  11157     1
  11140  11144     1
  11141  11152     1
  11141  11160     1
  11141  11143     1
  11141  11150     1
  11141  11146     1
  11141  11154     1
  11142  11154     1
  11142  11147     1
  11142  11155     1
  11143  11153     1
  11144  11146     1
  11144  11155     1
  11145  11150     1
  11145  11146     1
  11145  11148     1
  11145  11160     1
  11145  11147     1
  11145  11155     1
  11146  11151     1
  11146  11149     1
  11146  11153     1
  11147  11149     1
  11156  11160     1
  11156  11159     1
  11157  11160     1
  11157  11159     1
  11161  11169     1
  11161  11177     1
  11161  11182     1
  11161  11170     1
  11162  11168     1
  11162  11176     1
  11162  11179     1
  11162  11180     1
  11163  11165     1
  11163  11174     1
  11163  11164     1
  11163  11181     1
  11163  11179     1
  11163  11180     1
  11163  11167     1
  11164  11166     1
  11164  11173     1
  11164  11169     1
  11164  11177     1
  11164  11175     1
  11164  11183     1
  11165  11170     1
  11165  11178     1
  11165  11177     1
  11166  11176     1
  11167  11178     1
  11167  11169     1
  11168  11171     1
  11168  11183     1
  11168  11170     1
  11168  11178     1
  11168  11173     1
  11168  11169     1
  11169  11172     1
  11169  11176     1
  11169  11174     1
  11170  11172     1
  11179  11182     1
  11179  11183     1
  11180  11182     1
  11180  11183     1
  11184  11192     1
  11184  11200     1
  11184  11205     1
  11184  11193     1
  11185  11202     1
  11185  11203     1
  11185  11191     1
  11185  11199     1
  11186  11188     1
  11186  11197     1
  11186  11187     1
  11186  11204     1
  11186  11202     1
  11186  11203     1
  11186  11190     1
  11187  11198     1
  11187  11206     1
  11187  11189     1
  11187  11196     1
  11187  11192     1
  11187  11200     1
  11188  11200     1
  11188  11193     1
  11188  11201     1
  11189  11199     1
  11190  11192     1
  11190  11201     1
  11191  11196     1
  11191  11192     1
  11191  11194     1
  11191  11206     1
  11191  11193     1
  11191  11201     1
  11192  11197     1
  11192  11195     1
  11192  11199     1
  11193  11195     1
  11202  11206     1
  11202  11205     1
  11203  11206     1
  11203  11205     1
  11207  11215     1
  11207  11223     1
  11207  11228     1
  11207  11216     1
  11208  11214     1
  11208  11222     1
  11208  11225     1
  11208  11226     1
  11209  11211     1
  11209  11220     1
  11209  11210     1
  11209  11227     1
  11209  11225     1
  11209  11226     1
  11209  11213     1
  11210  11212     1
  11210  11219     1
  11210  11215     1
  11210  11223     1
  11210  11221     1
  11210  11229     1
  11211  11216     1
  11211  11224     1
  11211  11223     1
  11212  11222     1
  11213  11224     1
  11213  11215     1
  11214  11217     1
  11214  11229     1
  11214  11216     1
  11214  11224     1
  11214  11219     1
  11214  11215     1
  11215  11218     1
  11215  11222     1
  11215  11220     1
  11216  11218     1
  11225  11228     1
  11225  11229     1
  11226  11228     1
  11226  11229     1
  11230  11238     1
  11230  11246     1
  11230  11251     1
  11230  11239     1
  11231  11248     1
  11231  11249     1
  11231  11237     1
  11231  11245     1
  11232  11234     1
  11232  11243     1
  11232  11233     1
  11232  11250     1
  11232  11248     1
  11232  11249     1
  11232  11236     1
  11233  11244     1
  11233  11252     1
  11233  11235     1
  11233  11242     1
  11233  11238     1
  11233  11246     1
  11234  11246     1
  11234  11239     1
  11234  11247     1
  11235  11245     1
  11236  11238     1
  11236  11247     1
  11237  11242     1
  11237  11238     1
  11237  11240     1
  11237  11252     1
  11237  11239     1
  11237  11247     1
  11238  11243     1
  11238  11241     1
  11238  11245     1
  11239  11241     1
  11248  11252     1
  11248  11251     1
  11249  11252     1
  11249  11251     1
  11253  11261     1
  11253  11269     1
  11253  11274     1
  11253  11262     1
  11254  11260     1
  11254  11268     1
  11254  11271     1
  11254  11272     1
  11255  11257     1
  11255  11266     1
  11255  11256     1
  11255  11273     1
  11255  11271     1
  11255  11272     1
  11255  11259     1
  11256  11258     1
  11256  11265     1
  11256  11261     1
  11256  11269     1
  11256  11267     1
  11256  11275     1
  11257  11262     1
  11257  11270     1
  11257  11269     1
  11258  11268     1
  11259  11270     1
  11259  11261     1
  11260  11263     1
  11260  11275     1
  11260  11262     1
  11260  11270     1
  11260  11265     1
  11260  11261     1
  11261  11264     1
  11261  11268     1
  11261  11266     1
  11262  11264     1
  11271  11274     1
  11271  11275     1
  11272  11274     1
  11272  11275     1
  11276  11284     1
  11276  11292     1
  11276  11297     1
  11276  11285     1
  11277  11294     1
  11277  11295     1
  11277  11283     1
  11277  11291     1
  11278  11280     1
  11278  11289     1
  11278  11279     1
  11278  11296     1
  11278  11294     1
  11278  11295     1
  11278  11282     1
  11279  11290     1
  11279  11298     1
  11279  11281     1
  11279  11288     1
  11279  11284     1
  11279  11292     1
  11280  11292     1
  11280  11285     1
  11280  11293     1
  11281  11291     1
  11282  11284     1
  11282  11293     1
  11283  11288     1
  11283  11284     1
  11283  11286     1
  11283  11298     1
  11283  11285     1
  11283  11293     1
  11284  11289     1
  11284  11287     1
  11284  11291     1
  11285  11287     1
  11294  11298     1
  11294  11297     1
  11295  11298     1
  11295  11297     1
  11299  11307     1
  11299  11315     1
  11299  11320     1
  11299  11308     1
  11300  11306     1
  11300  11314     1
  11300  11317     1
  11300  11318     1
  11301  11303     1
  11301  11312     1
  11301  11302     1
  11301  11319     1
  11301  11317     1
  11301  11318     1
  11301  11305     1
  11302  11304     1
  11302  11311     1
  11302  11307     1
  11302  11315     1
  11302  11313     1
  11302  11321     1
  11303  11308     1
  11303  11316     1
  11303  11315     1
  11304  11314     1
  11305  11316     1
  11305  11307     1
  11306  11309     1
  11306  11321     1
  11306  11308     1
  11306  11316     1
  11306  11311     1
  11306  11307     1
  11307  11310     1
  11307  11314     1
  11307  11312     1
  11308  11310     1
  11317  11320     1
  11317  11321     1
  11318  11320     1
  11318  11321     1
  11322  11330     1
  11322  11338     1
  11322  11343     1
  11322  11331     1
  11323  11340     1
  11323  11341     1
  11323  11329     1
  11323  11337     1
  11324  11326     1
  11324  11335     1
  11324  11325     1
  11324  11342     1
  11324  11340     1
  11324  11341     1
  11324  11328     1
  11325  11336     1
  11325  11344     1
  11325  11327     1
  11325  11334     1
  11325  11330     1
  11325  11338     1
  11326  11338     1
  11326  11331     1
  11326  11339     1
  11327  11337     1
  11328  11330     1
  11328  11339     1
  11329  11334     1
  11329  11330     1
  11329  11332     1
  11329  11344     1
  11329  11331     1
  11329  11339     1
  11330  11335     1
  11330  11333     1
  11330  11337     1
  11331  11333     1
  11340  11344     1
  11340  11343     1
  11341  11344     1
  11341  11343     1
  11345  11353     1
  11345  11361     1
  11345  11366     1
  11345  11354     1
  11346  11352     1
  11346  11360     1
  11346  11363     1
  11346  11364     1
  11347  11349     1
  11347  11358     1
  11347  11348     1
  11347  11365     1
  11347  11363     1
  11347  11364     1
  11347  11351     1
  11348  11350     1
  11348  11357     1
  11348  11353     1
  11348  11361     1
  11348  11359     1
  11348  11367     1
  11349  11354     1
  11349  11362     1
  11349  11361     1
  11350  11360     1
  11351  11362     1
  11351  11353     1
  11352  11355     1
  11352  11367     1
  11352  11354     1
  11352  11362     1
  11352  11357     1
  11352  11353     1
  11353  11356     1
  11353  11360     1
  11353  11358     1
  11354  11356     1
  11363  11366     1
  11363  11367     1
  11364  11366     1
  11364  11367     1
  11368  11376     1
  11368  11384     1
  11368  11389     1
  11368  11377     1
  11369  11386     1
  11369  11387     1
  11369  11375     1
  11369  11383     1
  11370  11372     1
  11370  11381     1
  11370  11371     1
  11370  11388     1
  11370  11386     1
  11370  11387     1
  11370  11374     1
  11371  11382     1
  11371  11390     1
  11371  11373     1
  11371  11380     1
  11371  11376     1
  11371  11384     1
  11372  11384     1
  11372  11377     1
  11372  11385     1
  11373  11383     1
  11374  11376     1
  11374  11385     1
  11375  11380     1
  11375  11376     1
  11375  11378     1
  11375  11390     1
  11375  11377     1
  11375  11385     1
  11376  11381     1
  11376  11379     1
  11376  11383     1
  11377  11379     1
  11386  11390     1
  11386  11389     1
  11387  11390     1
  11387  11389     1
  11391  11399     1
  11391  11407     1
  11391  11412     1
  11391  11400     1
  11392  11398     1
  11392  11406     1
  11392  11409     1
  11392  11410     1
  11393  11395     1
  11393  11404     1
  11393  11394     1
  11393  11411     1
  11393  11409     1
  11393  11410     1
  11393  11397     1
  11394  11396     1
  11394  11403     1
  11394  11399     1
  11394  11407     1
  11394  11405     1
  11394  11413     1
  11395  11400     1
  11395  11408     1
  11395  11407     1
  11396  11406     1
  11397  11408     1
  11397  11399     1
  11398  11401     1
  11398  11413     1
  11398  11400     1
  11398  11408     1
  11398  11403     1
  11398  11399     1
  11399  11402     1
  11399  11406     1
  11399  11404     1
  11400  11402     1
  11409  11412     1
  11409  11413     1
  11410  11412     1
  11410  11413     1
  11414  11422     1
  11414  11430     1
  11414  11435     1
  11414  11423     1
  11415  11432     1
  11415  11433     1
  11415  11421     1
  11415  11429     1
  11416  11418     1
  11416  11427     1
  11416  11417     1
  11416  11434     1
  11416  11432     1
  11416  11433     1
  11416  11420     1
  11417  11428     1
  11417  11436     1
  11417  11419     1
  11417  11426     1
  11417  11422     1
  11417  11430     1
  11418  11430     1
  11418  11423     1
  11418  11431     1
  11419  11429     1
  11420  11422     1
  11420  11431     1
  11421  11426     1
  11421  11422     1
  11421  11424     1
  11421  11436     1
  11421  11423     1
  11421  11431     1
  11422  11427     1
  11422  11425     1
  11422  11429     1
  11423  11425     1
  11432  11436     1
  11432  11435     1
  11433  11436     1
  11433  11435     1
  11437  11445     1
  11437  11453     1
  11437  11458     1
  11437  11446     1
  11438  11444     1
  11438  11452     1
  11438  11455     1
  11438  11456     1
  11439  11441     1
  11439  11450     1
  11439  11440     1
  11439  11457     1
  11439  11455     1
  11439  11456     1
  11439  11443     1
  11440  11442     1
  11440  11449     1
  11440  11445     1
  11440  11453     1
  11440  11451     1
  11440  11459     1
  11441  11446     1
  11441  11454     1
  11441  11453     1
  11442  11452     1
  11443  11454     1
  11443  11445     1
  11444  11447     1
  11444  11459     1
  11444  11446     1
  11444  11454     1
  11444  11449     1
  11444  11445     1
  11445  11448     1
  11445  11452     1
  11445  11450     1
  11446  11448     1
  11455  11458     1
  11455  11459     1
  11456  11458     1
  11456  11459     1
  11460  11468     1
  11460  11476     1
  11460  11481     1
  11460  11469     1
  11461  11478     1
  11461  11479     1
  11461  11467     1
  11461  11475     1
  11462  11464     1
  11462  11473     1
  11462  11463     1
  11462  11480     1
  11462  11478     1
  11462  11479     1
  11462  11466     1
  11463  11474     1
  11463  11482     1
  11463  11465     1
  11463  11472     1
  11463  11468     1
  11463  11476     1
  11464  11476     1
  11464  11469     1
  11464  11477     1
  11465  11475     1
  11466  11468     1
  11466  11477     1
  11467  11472     1
  11467  11468     1
  11467  11470     1
  11467  11482     1
  11467  11469     1
  11467  11477     1
  11468  11473     1
  11468  11471     1
  11468  11475     1
  11469  11471     1
  11478  11482     1
  11478  11481     1
  11479  11482     1
  11479  11481     1
  11483  11491     1
  11483  11499     1
  11483  11504     1
  11483  11492     1
  11484  11490     1
  11484  11498     1
  11484  11501     1
  11484  11502     1
  11485  11487     1
  11485  11496     1
  11485  11486     1
  11485  11503     1
  11485  11501     1
  11485  11502     1
  11485  11489     1
  11486  11488     1
  11486  11495     1
  11486  11491     1
  11486  11499     1
  11486  11497     1
  11486  11505     1
  11487  11492     1
  11487  11500     1
  11487  11499     1
  11488  11498     1
  11489  11500     1
  11489  11491     1
  11490  11493     1
  11490  11505     1
  11490  11492     1
  11490  11500     1
  11490  11495     1
  11490  11491     1
  11491  11494     1
  11491  11498     1
  11491  11496     1
  11492  11494     1
  11501  11504     1
  11501  11505     1
  11502  11504     1
  11502  11505     1
  11506  11514     1
  11506  11522     1
  11506  11527     1
  11506  11515     1
  11507  11524     1
  11507  11525     1
  11507  11513     1
  11507  11521     1
  11508  11510     1
  11508  11519     1
  11508  11509     1
  11508  11526     1
  11508  11524     1
  11508  11525     1
  11508  11512     1
  11509  11520     1
  11509  11528     1
  11509  11511     1
  11509  11518     1
  11509  11514     1
  11509  11522     1
  11510  11522     1
  11510  11515     1
  11510  11523     1
  11511  11521     1
  11512  11514     1
  11512  11523     1
  11513  11518     1
  11513  11514     1
  11513  11516     1
  11513  11528     1
  11513  11515     1
  11513  11523     1
  11514  11519     1
  11514  11517     1
  11514  11521     1
  11515  11517     1
  11524  11528     1
  11524  11527     1
  11525  11528     1
  11525  11527     1
  11529  11537     1
  11529  11545     1
  11529  11550     1
  11529  11538     1
  11530  11536     1
  11530  11544     1
  11530  11547     1
  11530  11548     1
  11531  11533     1
  11531  11542     1
  11531  11532     1
  11531  11549     1
  11531  11547     1
  11531  11548     1
  11531  11535     1
  11532  11534     1
  11532  11541     1
  11532  11537     1
  11532  11545     1
  11532  11543     1
  11532  11551     1
  11533  11538     1
  11533  11546     1
  11533  11545     1
  11534  11544     1
  11535  11546     1
  11535  11537     1
  11536  11539     1
  11536  11551     1
  11536  11538     1
  11536  11546     1
  11536  11541     1
  11536  11537     1
  11537  11540     1
  11537  11544     1
  11537  11542     1
  11538  11540     1
  11547  11550     1
  11547  11551     1
  11548  11550     1
  11548  11551     1
  11552  11560     1
  11552  11568     1
  11552  11573     1
  11552  11561     1
  11553  11570     1
  11553  11571     1
  11553  11559     1
  11553  11567     1
  11554  11556     1
  11554  11565     1
  11554  11555     1
  11554  11572     1
  11554  11570     1
  11554  11571     1
  11554  11558     1
  11555  11566     1
  11555  11574     1
  11555  11557     1
  11555  11564     1
  11555  11560     1
  11555  11568     1
  11556  11568     1
  11556  11561     1
  11556  11569     1
  11557  11567     1
  11558  11560     1
  11558  11569     1
  11559  11564     1
  11559  11560     1
  11559  11562     1
  11559  11574     1
  11559  11561     1
  11559  11569     1
  11560  11565     1
  11560  11563     1
  11560  11567     1
  11561  11563     1
  11570  11574     1
  11570  11573     1
  11571  11574     1
  11571  11573     1
  11575  11583     1
  11575  11591     1
  11575  11596     1
  11575  11584     1
  11576  11582     1
  11576  11590     1
  11576  11593     1
  11576  11594     1
  11577  11579     1
  11577  11588     1
  11577  11578     1
  11577  11595     1
  11577  11593     1
  11577  11594     1
  11577  11581     1
  11578  11580     1
  11578  11587     1
  11578  11583     1
  11578  11591     1
  11578  11589     1
  11578  11597     1
  11579  11584     1
  11579  11592     1
  11579  11591     1
  11580  11590     1
  11581  11592     1
  11581  11583     1
  11582  11585     1
  11582  11597     1
  11582  11584     1
  11582  11592     1
  11582  11587     1
  11582  11583     1
  11583  11586     1
  11583  11590     1
  11583  11588     1
  11584  11586     1
  11593  11596     1
  11593  11597     1
  11594  11596     1
  11594  11597     1
  11598  11606     1
  11598  11614     1
  11598  11619     1
  11598  11607     1
  11599  11616     1
  11599  11617     1
  11599  11605     1
  11599  11613     1
  11600  11602     1
  11600  11611     1
  11600  11601     1
  11600  11618     1
  11600  11616     1
  11600  11617     1
  11600  11604     1
  11601  11612     1
  11601  11620     1
  11601  11603     1
  11601  11610     1
  11601  11606     1
  11601  11614     1
  11602  11614     1
  11602  11607     1
  11602  11615     1
  11603  11613     1
  11604  11606     1
  11604  11615     1
  11605  11610     1
  11605  11606     1
  11605  11608     1
  11605  11620     1
  11605  11607     1
  11605  11615     1
  11606  11611     1
  11606  11609     1
  11606  11613     1
  11607  11609     1
  11616  11620     1
  11616  11619     1
  11617  11620     1
  11617  11619     1
  11621  11629     1
  11621  11637     1
  11621  11642     1
  11621  11630     1
  11622  11628     1
  11622  11636     1
  11622  11639     1
  11622  11640     1
  11623  11625     1
  11623  11634     1
  11623  11624     1
  11623  11641     1
  11623  11639     1
  11623  11640     1
  11623  11627     1
  11624  11626     1
  11624  11633     1
  11624  11629     1
  11624  11637     1
  11624  11635     1
  11624  11643     1
  11625  11630     1
  11625  11638     1
  11625  11637     1
  11626  11636     1
  11627  11638     1
  11627  11629     1
  11628  11631     1
  11628  11643     1
  11628  11630     1
  11628  11638     1
  11628  11633     1
  11628  11629     1
  11629  11632     1
  11629  11636     1
  11629  11634     1
  11630  11632     1
  11639  11642     1
  11639  11643     1
  11640  11642     1
  11640  11643     1
  11644  11652     1
  11644  11660     1
  11644  11665     1
  11644  11653     1
  11645  11662     1
  11645  11663     1
  11645  11651     1
  11645  11659     1
  11646  11648     1
  11646  11657     1
  11646  11647     1
  11646  11664     1
  11646  11662     1
  11646  11663     1
  11646  11650     1
  11647  11658     1
  11647  11666     1
  11647  11649     1
  11647  11656     1
  11647  11652     1
  11647  11660     1
  11648  11660     1
  11648  11653     1
  11648  11661     1
  11649  11659     1
  11650  11652     1
  11650  11661     1
  11651  11656     1
  11651  11652     1
  11651  11654     1
  11651  11666     1
  11651  11653     1
  11651  11661     1
  11652  11657     1
  11652  11655     1
  11652  11659     1
  11653  11655     1
  11662  11666     1
  11662  11665     1
  11663  11666     1
  11663  11665     1
  11667  11675     1
  11667  11683     1
  11667  11688     1
  11667  11676     1
  11668  11674     1
  11668  11682     1
  11668  11685     1
  11668  11686     1
  11669  11671     1
  11669  11680     1
  11669  11670     1
  11669  11687     1
  11669  11685     1
  11669  11686     1
  11669  11673     1
  11670  11672     1
  11670  11679     1
  11670  11675     1
  11670  11683     1
  11670  11681     1
  11670  11689     1
  11671  11676     1
  11671  11684     1
  11671  11683     1
  11672  11682     1
  11673  11684     1
  11673  11675     1
  11674  11677     1
  11674  11689     1
  11674  11676     1
  11674  11684     1
  11674  11679     1
  11674  11675     1
  11675  11678     1
  11675  11682     1
  11675  11680     1
  11676  11678     1
  11685  11688     1
  11685  11689     1
  11686  11688     1
  11686  11689     1
  11690  11698     1
  11690  11706     1
  11690  11711     1
  11690  11699     1
  11691  11708     1
  11691  11709     1
  11691  11697     1
  11691  11705     1
  11692  11694     1
  11692  11703     1
  11692  11693     1
  11692  11710     1
  11692  11708     1
  11692  11709     1
  11692  11696     1
  11693  11704     1
  11693  11712     1
  11693  11695     1
  11693  11702     1
  11693  11698     1
  11693  11706     1
  11694  11706     1
  11694  11699     1
  11694  11707     1
  11695  11705     1
  11696  11698     1
  11696  11707     1
  11697  11702     1
  11697  11698     1
  11697  11700     1
  11697  11712     1
  11697  11699     1
  11697  11707     1
  11698  11703     1
  11698  11701     1
  11698  11705     1
  11699  11701     1
  11708  11712     1
  11708  11711     1
  11709  11712     1
  11709  11711     1
  11713  11721     1
  11713  11729     1
  11713  11734     1
  11713  11722     1
  11714  11720     1
  11714  11728     1
  11714  11731     1
  11714  11732     1
  11715  11717     1
  11715  11726     1
  11715  11716     1
  11715  11733     1
  11715  11731     1
  11715  11732     1
  11715  11719     1
  11716  11718     1
  11716  11725     1
  11716  11721     1
  11716  11729     1
  11716  11727     1
  11716  11735     1
  11717  11722     1
  11717  11730     1
  11717  11729     1
  11718  11728     1
  11719  11730     1
  11719  11721     1
  11720  11723     1
  11720  11735     1
  11720  11722     1
  11720  11730     1
  11720  11725     1
  11720  11721     1
  11721  11724     1
  11721  11728     1
  11721  11726     1
  11722  11724     1
  11731  11734     1
  11731  11735     1
  11732  11734     1
  11732  11735     1
  11736  11744     1
  11736  11752     1
  11736  11757     1
  11736  11745     1
  11737  11754     1
  11737  11755     1
  11737  11743     1
  11737  11751     1
  11738  11740     1
  11738  11749     1
  11738  11739     1
  11738  11756     1
  11738  11754     1
  11738  11755     1
  11738  11742     1
  11739  11750     1
  11739  11758     1
  11739  11741     1
  11739  11748     1
  11739  11744     1
  11739  11752     1
  11740  11752     1
  11740  11745     1
  11740  11753     1
  11741  11751     1
  11742  11744     1
  11742  11753     1
  11743  11748     1
  11743  11744     1
  11743  11746     1
  11743  11758     1
  11743  11745     1
  11743  11753     1
  11744  11749     1
  11744  11747     1
  11744  11751     1
  11745  11747     1
  11754  11758     1
  11754  11757     1
  11755  11758     1
  11755  11757     1
  11759  11767     1
  11759  11775     1
  11759  11780     1
  11759  11768     1
  11760  11766     1
  11760  11774     1
  11760  11777     1
  11760  11778     1
  11761  11763     1
  11761  11772     1
  11761  11762     1
  11761  11779     1
  11761  11777     1
  11761  11778     1
  11761  11765     1
  11762  11764     1
  11762  11771     1
  11762  11767     1
  11762  11775     1
  11762  11773     1
  11762  11781     1
  11763  11768     1
  11763  11776     1
  11763  11775     1
  11764  11774     1
  11765  11776     1
  11765  11767     1
  11766  11769     1
  11766  11781     1
  11766  11768     1
  11766  11776     1
  11766  11771     1
  11766  11767     1
  11767  11770     1
  11767  11774     1
  11767  11772     1
  11768  11770     1
  11777  11780     1
  11777  11781     1
  11778  11780     1
  11778  11781     1
  11782  11790     1
  11782  11798     1
  11782  11803     1
  11782  11791     1
  11783  11800     1
  11783  11801     1
  11783  11789     1
  11783  11797     1
  11784  11786     1
  11784  11795     1
  11784  11785     1
  11784  11802     1
  11784  11800     1
  11784  11801     1
  11784  11788     1
  11785  11796     1
  11785  11804     1
  11785  11787     1
  11785  11794     1
  11785  11790     1
  11785  11798     1
  11786  11798     1
  11786  11791     1
  11786  11799     1
  11787  11797     1
  11788  11790     1
  11788  11799     1
  11789  11794     1
  11789  11790     1
  11789  11792     1
  11789  11804     1
  11789  11791     1
  11789  11799     1
  11790  11795     1
  11790  11793     1
  11790  11797     1
  11791  11793     1
  11800  11804     1
  11800  11803     1
  11801  11804     1
  11801  11803     1
  11805  11813     1
  11805  11821     1
  11805  11826     1
  11805  11814     1
  11806  11812     1
  11806  11820     1
  11806  11823     1
  11806  11824     1
  11807  11809     1
  11807  11818     1
  11807  11808     1
  11807  11825     1
  11807  11823     1
  11807  11824     1
  11807  11811     1
  11808  11810     1
  11808  11817     1
  11808  11813     1
  11808  11821     1
  11808  11819     1
  11808  11827     1
  11809  11814     1
  11809  11822     1
  11809  11821     1
  11810  11820     1
  11811  11822     1
  11811  11813     1
  11812  11815     1
  11812  11827     1
  11812  11814     1
  11812  11822     1
  11812  11817     1
  11812  11813     1
  11813  11816     1
  11813  11820     1
  11813  11818     1
  11814  11816     1
  11823  11826     1
  11823  11827     1
  11824  11826     1
  11824  11827     1
  11828  11836     1
  11828  11844     1
  11828  11849     1
  11828  11837     1
  11829  11846     1
  11829  11847     1
  11829  11835     1
  11829  11843     1
  11830  11832     1
  11830  11841     1
  11830  11831     1
  11830  11848     1
  11830  11846     1
  11830  11847     1
  11830  11834     1
  11831  11842     1
  11831  11850     1
  11831  11833     1
  11831  11840     1
  11831  11836     1
  11831  11844     1
  11832  11844     1
  11832  11837     1
  11832  11845     1
  11833  11843     1
  11834  11836     1
  11834  11845     1
  11835  11840     1
  11835  11836     1
  11835  11838     1
  11835  11850     1
  11835  11837     1
  11835  11845     1
  11836  11841     1
  11836  11839     1
  11836  11843     1
  11837  11839     1
  11846  11850     1
  11846  11849     1
  11847  11850     1
  11847  11849     1
  11851  11859     1
  11851  11867     1
  11851  11872     1
  11851  11860     1
  11852  11858     1
  11852  11866     1
  11852  11869     1
  11852  11870     1
  11853  11855     1
  11853  11864     1
  11853  11854     1
  11853  11871     1
  11853  11869     1
  11853  11870     1
  11853  11857     1
  11854  11856     1
  11854  11863     1
  11854  11859     1
  11854  11867     1
  11854  11865     1
  11854  11873     1
  11855  11860     1
  11855  11868     1
  11855  11867     1
  11856  11866     1
  11857  11868     1
  11857  11859     1
  11858  11861     1
  11858  11873     1
  11858  11860     1
  11858  11868     1
  11858  11863     1
  11858  11859     1
  11859  11862     1
  11859  11866     1
  11859  11864     1
  11860  11862     1
  11869  11872     1
  11869  11873     1
  11870  11872     1
  11870  11873     1
  11874  11882     1
  11874  11890     1
  11874  11895     1
  11874  11883     1
  11875  11892     1
  11875  11893     1
  11875  11881     1
  11875  11889     1
  11876  11878     1
  11876  11887     1
  11876  11877     1
  11876  11894     1
  11876  11892     1
  11876  11893     1
  11876  11880     1
  11877  11888     1
  11877  11896     1
  11877  11879     1
  11877  11886     1
  11877  11882     1
  11877  11890     1
  11878  11890     1
  11878  11883     1
  11878  11891     1
  11879  11889     1
  11880  11882     1
  11880  11891     1
  11881  11886     1
  11881  11882     1
  11881  11884     1
  11881  11896     1
  11881  11883     1
  11881  11891     1
  11882  11887     1
  11882  11885     1
  11882  11889     1
  11883  11885     1
  11892  11896     1
  11892  11895     1
  11893  11896     1
  11893  11895     1
  11897  11905     1
  11897  11913     1
  11897  11918     1
  11897  11906     1
  11898  11904     1
  11898  11912     1
  11898  11915     1
  11898  11916     1
  11899  11901     1
  11899  11910     1
  11899  11900     1
  11899  11917     1
  11899  11915     1
  11899  11916     1
  11899  11903     1
  11900  11902     1
  11900  11909     1
  11900  11905     1
  11900  11913     1
  11900  11911     1
  11900  11919     1
  11901  11906     1
  11901  11914     1
  11901  11913     1
  11902  11912     1
  11903  11914     1
  11903  11905     1
  11904  11907     1
  11904  11919     1
  11904  11906     1
  11904  11914     1
  11904  11909     1
  11904  11905     1
  11905  11908     1
  11905  11912     1
  11905  11910     1
  11906  11908     1
  11915  11918     1
  11915  11919     1
  11916  11918     1
  11916  11919     1
  11920  11928     1
  11920  11936     1
  11920  11941     1
  11920  11929     1
  11921  11938     1
  11921  11939     1
  11921  11927     1
  11921  11935     1
  11922  11924     1
  11922  11933     1
  11922  11923     1
  11922  11940     1
  11922  11938     1
  11922  11939     1
  11922  11926     1
  11923  11934     1
  11923  11942     1
  11923  11925     1
  11923  11932     1
  11923  11928     1
  11923  11936     1
  11924  11936     1
  11924  11929     1
  11924  11937     1
  11925  11935     1
  11926  11928     1
  11926  11937     1
  11927  11932     1
  11927  11928     1
  11927  11930     1
  11927  11942     1
  11927  11929     1
  11927  11937     1
  11928  11933     1
  11928  11931     1
  11928  11935     1
  11929  11931     1
  11938  11942     1
  11938  11941     1
  11939  11942     1
  11939  11941     1
  11943  11951     1
  11943  11959     1
  11943  11964     1
  11943  11952     1
  11944  11950     1
  11944  11958     1
  11944  11961     1
  11944  11962     1
  11945  11947     1
  11945  11956     1
  11945  11946     1
  11945  11963     1
  11945  11961     1
  11945  11962     1
  11945  11949     1
  11946  11948     1
  11946  11955     1
  11946  11951     1
  11946  11959     1
  11946  11957     1
  11946  11965     1
  11947  11952     1
  11947  11960     1
  11947  11959     1
  11948  11958     1
  11949  11960     1
  11949  11951     1
  11950  11953     1
  11950  11965     1
  11950  11952     1
  11950  11960     1
  11950  11955     1
  11950  11951     1
  11951  11954     1
  11951  11958     1
  11951  11956     1
  11952  11954     1
  11961  11964     1
  11961  11965     1
  11962  11964     1
  11962  11965     1
  11966  11974     1
  11966  11982     1
  11966  11987     1
  11966  11975     1
  11967  11984     1
  11967  11985     1
  11967  11973     1
  11967  11981     1
  11968  11970     1
  11968  11979     1
  11968  11969     1
  11968  11986     1
  11968  11984     1
  11968  11985     1
  11968  11972     1
  11969  11980     1
  11969  11988     1
  11969  11971     1
  11969  11978     1
  11969  11974     1
  11969  11982     1
  11970  11982     1
  11970  11975     1
  11970  11983     1
  11971  11981     1
  11972  11974     1
  11972  11983     1
  11973  11978     1
  11973  11974     1
  11973  11976     1
  11973  11988     1
  11973  11975     1
  11973  11983     1
  11974  11979     1
  11974  11977     1
  11974  11981     1
  11975  11977     1
  11984  11988     1
  11984  11987     1
  11985  11988     1
  11985  11987     1
  11989  11997     1
  11989  12005     1
  11989  12010     1
  11989  11998     1
  11990  11996     1
  11990  12004     1
  11990  12007     1
  11990  12008     1
  11991  11993     1
  11991  12002     1
  11991  11992     1
  11991  12009     1
  11991  12007     1
  11991  12008     1
  11991  11995     1
  11992  11994     1
  11992  12001     1
  11992  11997     1
  11992  12005     1
  11992  12003     1
  11992  12011     1
  11993  11998     1
  11993  12006     1
  11993  12005     1
  11994  12004     1
  11995  12006     1
  11995  11997     1
  11996  11999     1
  11996  12011     1
  11996  11998     1
  11996  12006     1
  11996  12001     1
  11996  11997     1
  11997  12000     1
  11997  12004     1
  11997  12002     1
  11998  12000     1
  12007  12010     1
  12007  12011     1
  12008  12010     1
  12008  12011     1
  12012  12020     1
  12012  12028     1
  12012  12033     1
  12012  12021     1
  12013  12030     1
  12013  12031     1
  12013  12019     1
  12013  12027     1
  12014  12016     1
  12014  12025     1
  12014  12015     1
  12014  12032     1
  12014  12030     1
  12014  12031     1
  12014  12018     1
  12015  12026     1
  12015  12034     1
  12015  12017     1
  12015  12024     1
  12015  12020     1
  12015  12028     1
  12016  12028     1
  12016  12021     1
  12016  12029     1
  12017  12027     1
  12018  12020     1
  12018  12029     1
  12019  12024     1
  12019  12020     1
  12019  12022     1
  12019  12034     1
  12019  12021     1
  12019  12029     1
  12020  12025     1
  12020  12023     1
  12020  12027     1
  12021  12023     1
  12030  12034     1
  12030  12033     1
  12031  12034     1
  12031  12033     1
  12035  12043     1
  12035  12051     1
  12035  12056     1
  12035  12044     1
  12036  12042     1
  12036  12050     1
  12036  12053     1
  12036  12054     1
  12037  12039     1
  12037  12048     1
  12037  12038     1
  12037  12055     1
  12037  12053     1
  12037  12054     1
  12037  12041     1
  12038  12040     1
  12038  12047     1
  12038  12043     1
  12038  12051     1
  12038  12049     1
  12038  12057     1
  12039  12044     1
  12039  12052     1
  12039  12051     1
  12040  12050     1
  12041  12052     1
  12041  12043     1
  12042  12045     1
  12042  12057     1
  12042  12044     1
  12042  12052     1
  12042  12047     1
  12042  12043     1
  12043  12046     1
  12043  12050     1
  12043  12048     1
  12044  12046     1
  12053  12056     1
  12053  12057     1
  12054  12056     1
  12054  12057     1
  12058  12066     1
  12058  12074     1
  12058  12079     1
  12058  12067     1
  12059  12076     1
  12059  12077     1
  12059  12065     1
  12059  12073     1
  12060  12062     1
  12060  12071     1
  12060  12061     1
  12060  12078     1
  12060  12076     1
  12060  12077     1
  12060  12064     1
  12061  12072     1
  12061  12080     1
  12061  12063     1
  12061  12070     1
  12061  12066     1
  12061  12074     1
  12062  12074     1
  12062  12067     1
  12062  12075     1
  12063  12073     1
  12064  12066     1
  12064  12075     1
  12065  12070     1
  12065  12066     1
  12065  12068     1
  12065  12080     1
  12065  12067     1
  12065  12075     1
  12066  12071     1
  12066  12069     1
  12066  12073     1
  12067  12069     1
  12076  12080     1
  12076  12079     1
  12077  12080     1
  12077  12079     1
  12081  12089     1
  12081  12097     1
  12081  12102     1
  12081  12090     1
  12082  12088     1
  12082  12096     1
  12082  12099     1
  12082  12100     1
  12083  12085     1
  12083  12094     1
  12083  12084     1
  12083  12101     1
  12083  12099     1
  12083  12100     1
  12083  12087     1
  12084  12086     1
  12084  12093     1
  12084  12089     1
  12084  12097     1
  12084  12095     1
  12084  12103     1
  12085  12090     1
  12085  12098     1
  12085  12097     1
  12086  12096     1
  12087  12098     1
  12087  12089     1
  12088  12091     1
  12088  12103     1
  12088  12090     1
  12088  12098     1
  12088  12093     1
  12088  12089     1
  12089  12092     1
  12089  12096     1
  12089  12094     1
  12090  12092     1
  12099  12102     1
  12099  12103     1
  12100  12102     1
  12100  12103     1
  12104  12112     1
  12104  12120     1
  12104  12125     1
  12104  12113     1
  12105  12122     1
  12105  12123     1
  12105  12111     1
  12105  12119     1
  12106  12108     1
  12106  12117     1
  12106  12107     1
  12106  12124     1
  12106  12122     1
  12106  12123     1
  12106  12110     1
  12107  12118     1
  12107  12126     1
  12107  12109     1
  12107  12116     1
  12107  12112     1
  12107  12120     1
  12108  12120     1
  12108  12113     1
  12108  12121     1
  12109  12119     1
  12110  12112     1
  12110  12121     1
  12111  12116     1
  12111  12112     1
  12111  12114     1
  12111  12126     1
  12111  12113     1
  12111  12121     1
  12112  12117     1
  12112  12115     1
  12112  12119     1
  12113  12115     1
  12122  12126     1
  12122  12125     1
  12123  12126     1
  12123  12125     1
  12127  12135     1
  12127  12143     1
  12127  12148     1
  12127  12136     1
  12128  12134     1
  12128  12142     1
  12128  12145     1
  12128  12146     1
  12129  12131     1
  12129  12140     1
  12129  12130     1
  12129  12147     1
  12129  12145     1
  12129  12146     1
  12129  12133     1
  12130  12132     1
  12130  12139     1
  12130  12135     1
  12130  12143     1
  12130  12141     1
  12130  12149     1
  12131  12136     1
  12131  12144     1
  12131  12143     1
  12132  12142     1
  12133  12144     1
  12133  12135     1
  12134  12137     1
  12134  12149     1
  12134  12136     1
  12134  12144     1
  12134  12139     1
  12134  12135     1
  12135  12138     1
  12135  12142     1
  12135  12140     1
  12136  12138     1
  12145  12148     1
  12145  12149     1
  12146  12148     1
  12146  12149     1
  12150  12158     1
  12150  12166     1
  12150  12171     1
  12150  12159     1
  12151  12168     1
  12151  12169     1
  12151  12157     1
  12151  12165     1
  12152  12154     1
  12152  12163     1
  12152  12153     1
  12152  12170     1
  12152  12168     1
  12152  12169     1
  12152  12156     1
  12153  12164     1
  12153  12172     1
  12153  12155     1
  12153  12162     1
  12153  12158     1
  12153  12166     1
  12154  12166     1
  12154  12159     1
  12154  12167     1
  12155  12165     1
  12156  12158     1
  12156  12167     1
  12157  12162     1
  12157  12158     1
  12157  12160     1
  12157  12172     1
  12157  12159     1
  12157  12167     1
  12158  12163     1
  12158  12161     1
  12158  12165     1
  12159  12161     1
  12168  12172     1
  12168  12171     1
  12169  12172     1
  12169  12171     1
  12173  12181     1
  12173  12189     1
  12173  12194     1
  12173  12182     1
  12174  12180     1
  12174  12188     1
  12174  12191     1
  12174  12192     1
  12175  12177     1
  12175  12186     1
  12175  12176     1
  12175  12193     1
  12175  12191     1
  12175  12192     1
  12175  12179     1
  12176  12178     1
  12176  12185     1
  12176  12181     1
  12176  12189     1
  12176  12187     1
  12176  12195     1
  12177  12182     1
  12177  12190     1
  12177  12189     1
  12178  12188     1
  12179  12190     1
  12179  12181     1
  12180  12183     1
  12180  12195     1
  12180  12182     1
  12180  12190     1
  12180  12185     1
  12180  12181     1
  12181  12184     1
  12181  12188     1
  12181  12186     1
  12182  12184     1
  12191  12194     1
  12191  12195     1
  12192  12194     1
  12192  12195     1
  12196  12204     1
  12196  12212     1
  12196  12217     1
  12196  12205     1
  12197  12214     1
  12197  12215     1
  12197  12203     1
  12197  12211     1
  12198  12200     1
  12198  12209     1
  12198  12199     1
  12198  12216     1
  12198  12214     1
  12198  12215     1
  12198  12202     1
  12199  12210     1
  12199  12218     1
  12199  12201     1
  12199  12208     1
  12199  12204     1
  12199  12212     1
  12200  12212     1
  12200  12205     1
  12200  12213     1
  12201  12211     1
  12202  12204     1
  12202  12213     1
  12203  12208     1
  12203  12204     1
  12203  12206     1
  12203  12218     1
  12203  12205     1
  12203  12213     1
  12204  12209     1
  12204  12207     1
  12204  12211     1
  12205  12207     1
  12214  12218     1
  12214  12217     1
  12215  12218     1
  12215  12217     1
  12219  12227     1
  12219  12235     1
  12219  12240     1
  12219  12228     1
  12220  12226     1
  12220  12234     1
  12220  12237     1
  12220  12238     1
  12221  12223     1
  12221  12232     1
  12221  12222     1
  12221  12239     1
  12221  12237     1
  12221  12238     1
  12221  12225     1
  12222  12224     1
  12222  12231     1
  12222  12227     1
  12222  12235     1
  12222  12233     1
  12222  12241     1
  12223  12228     1
  12223  12236     1
  12223  12235     1
  12224  12234     1
  12225  12236     1
  12225  12227     1
  12226  12229     1
  12226  12241     1
  12226  12228     1
  12226  12236     1
  12226  12231     1
  12226  12227     1
  12227  12230     1
  12227  12234     1
  12227  12232     1
  12228  12230     1
  12237  12240     1
  12237  12241     1
  12238  12240     1
  12238  12241     1
  12242  12250     1
  12242  12258     1
  12242  12263     1
  12242  12251     1
  12243  12260     1
  12243  12261     1
  12243  12249     1
  12243  12257     1
  12244  12246     1
  12244  12255     1
  12244  12245     1
  12244  12262     1
  12244  12260     1
  12244  12261     1
  12244  12248     1
  12245  12256     1
  12245  12264     1
  12245  12247     1
  12245  12254     1
  12245  12250     1
  12245  12258     1
  12246  12258     1
  12246  12251     1
  12246  12259     1
  12247  12257     1
  12248  12250     1
  12248  12259     1
  12249  12254     1
  12249  12250     1
  12249  12252     1
  12249  12264     1
  12249  12251     1
  12249  12259     1
  12250  12255     1
  12250  12253     1
  12250  12257     1
  12251  12253     1
  12260  12264     1
  12260  12263     1
  12261  12264     1
  12261  12263     1
  12265  12273     1
  12265  12281     1
  12265  12286     1
  12265  12274     1
  12266  12272     1
  12266  12280     1
  12266  12283     1
  12266  12284     1
  12267  12269     1
  12267  12278     1
  12267  12268     1
  12267  12285     1
  12267  12283     1
  12267  12284     1
  12267  12271     1
  12268  12270     1
  12268  12277     1
  12268  12273     1
  12268  12281     1
  12268  12279     1
  12268  12287     1
  12269  12274     1
  12269  12282     1
  12269  12281     1
  12270  12280     1
  12271  12282     1
  12271  12273     1
  12272  12275     1
  12272  12287     1
  12272  12274     1
  12272  12282     1
  12272  12277     1
  12272  12273     1
  12273  12276     1
  12273  12280     1
  12273  12278     1
  12274  12276     1
  12283  12286     1
  12283  12287     1
  12284  12286     1
  12284  12287     1
  12288  12296     1
  12288  12304     1
  12288  12309     1
  12288  12297     1
  12289  12306     1
  12289  12307     1
  12289  12295     1
  12289  12303     1
  12290  12292     1
  12290  12301     1
  12290  12291     1
  12290  12308     1
  12290  12306     1
  12290  12307     1
  12290  12294     1
  12291  12302     1
  12291  12310     1
  12291  12293     1
  12291  12300     1
  12291  12296     1
  12291  12304     1
  12292  12304     1
  12292  12297     1
  12292  12305     1
  12293  12303     1
  12294  12296     1
  12294  12305     1
  12295  12300     1
  12295  12296     1
  12295  12298     1
  12295  12310     1
  12295  12297     1
  12295  12305     1
  12296  12301     1
  12296  12299     1
  12296  12303     1
  12297  12299     1
  12306  12310     1
  12306  12309     1
  12307  12310     1
  12307  12309     1
  12311  12319     1
  12311  12327     1
  12311  12332     1
  12311  12320     1
  12312  12318     1
  12312  12326     1
  12312  12329     1
  12312  12330     1
  12313  12315     1
  12313  12324     1
  12313  12314     1
  12313  12331     1
  12313  12329     1
  12313  12330     1
  12313  12317     1
  12314  12316     1
  12314  12323     1
  12314  12319     1
  12314  12327     1
  12314  12325     1
  12314  12333     1
  12315  12320     1
  12315  12328     1
  12315  12327     1
  12316  12326     1
  12317  12328     1
  12317  12319     1
  12318  12321     1
  12318  12333     1
  12318  12320     1
  12318  12328     1
  12318  12323     1
  12318  12319     1
  12319  12322     1
  12319  12326     1
  12319  12324     1
  12320  12322     1
  12329  12332     1
  12329  12333     1
  12330  12332     1
  12330  12333     1
  12334  12342     1
  12334  12350     1
  12334  12355     1
  12334  12343     1
  12335  12352     1
  12335  12353     1
  12335  12341     1
  12335  12349     1
  12336  12338     1
  12336  12347     1
  12336  12337     1
  12336  12354     1
  12336  12352     1
  12336  12353     1
  12336  12340     1
  12337  12348     1
  12337  12356     1
  12337  12339     1
  12337  12346     1
  12337  12342     1
  12337  12350     1
  12338  12350     1
  12338  12343     1
  12338  12351     1
  12339  12349     1
  12340  12342     1
  12340  12351     1
  12341  12346     1
  12341  12342     1
  12341  12344     1
  12341  12356     1
  12341  12343     1
  12341  12351     1
  12342  12347     1
  12342  12345     1
  12342  12349     1
  12343  12345     1
  12352  12356     1
  12352  12355     1
  12353  12356     1
  12353  12355     1
  12357  12365     1
  12357  12373     1
  12357  12378     1
  12357  12366     1
  12358  12364     1
  12358  12372     1
  12358  12375     1
  12358  12376     1
  12359  12361     1
  12359  12370     1
  12359  12360     1
  12359  12377     1
  12359  12375     1
  12359  12376     1
  12359  12363     1
  12360  12362     1
  12360  12369     1
  12360  12365     1
  12360  12373     1
  12360  12371     1
  12360  12379     1
  12361  12366     1
  12361  12374     1
  12361  12373     1
  12362  12372     1
  12363  12374     1
  12363  12365     1
  12364  12367     1
  12364  12379     1
  12364  12366     1
  12364  12374     1
  12364  12369     1
  12364  12365     1
  12365  12368     1
  12365  12372     1
  12365  12370     1
  12366  12368     1
  12375  12378     1
  12375  12379     1
  12376  12378     1
  12376  12379     1
  12380  12388     1
  12380  12396     1
  12380  12401     1
  12380  12389     1
  12381  12398     1
  12381  12399     1
  12381  12387     1
  12381  12395     1
  12382  12384     1
  12382  12393     1
  12382  12383     1
  12382  12400     1
  12382  12398     1
  12382  12399     1
  12382  12386     1
  12383  12394     1
  12383  12402     1
  12383  12385     1
  12383  12392     1
  12383  12388     1
  12383  12396     1
  12384  12396     1
  12384  12389     1
  12384  12397     1
  12385  12395     1
  12386  12388     1
  12386  12397     1
  12387  12392     1
  12387  12388     1
  12387  12390     1
  12387  12402     1
  12387  12389     1
  12387  12397     1
  12388  12393     1
  12388  12391     1
  12388  12395     1
  12389  12391     1
  12398  12402     1
  12398  12401     1
  12399  12402     1
  12399  12401     1
  12403  12411     1
  12403  12419     1
  12403  12424     1
  12403  12412     1
  12404  12410     1
  12404  12418     1
  12404  12421     1
  12404  12422     1
  12405  12407     1
  12405  12416     1
  12405  12406     1
  12405  12423     1
  12405  12421     1
  12405  12422     1
  12405  12409     1
  12406  12408     1
  12406  12415     1
  12406  12411     1
  12406  12419     1
  12406  12417     1
  12406  12425     1
  12407  12412     1
  12407  12420     1
  12407  12419     1
  12408  12418     1
  12409  12420     1
  12409  12411     1
  12410  12413     1
  12410  12425     1
  12410  12412     1
  12410  12420     1
  12410  12415     1
  12410  12411     1
  12411  12414     1
  12411  12418     1
  12411  12416     1
  12412  12414     1
  12421  12424     1
  12421  12425     1
  12422  12424     1
  12422  12425     1
  12426  12434     1
  12426  12442     1
  12426  12447     1
  12426  12435     1
  12427  12444     1
  12427  12445     1
  12427  12433     1
  12427  12441     1
  12428  12430     1
  12428  12439     1
  12428  12429     1
  12428  12446     1
  12428  12444     1
  12428  12445     1
  12428  12432     1
  12429  12440     1
  12429  12448     1
  12429  12431     1
  12429  12438     1
  12429  12434     1
  12429  12442     1
  12430  12442     1
  12430  12435     1
  12430  12443     1
  12431  12441     1
  12432  12434     1
  12432  12443     1
  12433  12438     1
  12433  12434     1
  12433  12436     1
  12433  12448     1
  12433  12435     1
  12433  12443     1
  12434  12439     1
  12434  12437     1
  12434  12441     1
  12435  12437     1
  12444  12448     1
  12444  12447     1
  12445  12448     1
  12445  12447     1
  12449  12457     1
  12449  12465     1
  12449  12470     1
  12449  12458     1
  12450  12456     1
  12450  12464     1
  12450  12467     1
  12450  12468     1
  12451  12453     1
  12451  12462     1
  12451  12452     1
  12451  12469     1
  12451  12467     1
  12451  12468     1
  12451  12455     1
  12452  12454     1
  12452  12461     1
  12452  12457     1
  12452  12465     1
  12452  12463     1
  12452  12471     1
  12453  12458     1
  12453  12466     1
  12453  12465     1
  12454  12464     1
  12455  12466     1
  12455  12457     1
  12456  12459     1
  12456  12471     1
  12456  12458     1
  12456  12466     1
  12456  12461     1
  12456  12457     1
  12457  12460     1
  12457  12464     1
  12457  12462     1
  12458  12460     1
  12467  12470     1
  12467  12471     1
  12468  12470     1
  12468  12471     1
  12472  12480     1
  12472  12488     1
  12472  12493     1
  12472  12481     1
  12473  12490     1
  12473  12491     1
  12473  12479     1
  12473  12487     1
  12474  12476     1
  12474  12485     1
  12474  12475     1
  12474  12492     1
  12474  12490     1
  12474  12491     1
  12474  12478     1
  12475  12486     1
  12475  12494     1
  12475  12477     1
  12475  12484     1
  12475  12480     1
  12475  12488     1
  12476  12488     1
  12476  12481     1
  12476  12489     1
  12477  12487     1
  12478  12480     1
  12478  12489     1
  12479  12484     1
  12479  12480     1
  12479  12482     1
  12479  12494     1
  12479  12481     1
  12479  12489     1
  12480  12485     1
  12480  12483     1
  12480  12487     1
  12481  12483     1
  12490  12494     1
  12490  12493     1
  12491  12494     1
  12491  12493     1
  12495  12503     1
  12495  12511     1
  12495  12516     1
  12495  12504     1
  12496  12502     1
  12496  12510     1
  12496  12513     1
  12496  12514     1
  12497  12499     1
  12497  12508     1
  12497  12498     1
  12497  12515     1
  12497  12513     1
  12497  12514     1
  12497  12501     1
  12498  12500     1
  12498  12507     1
  12498  12503     1
  12498  12511     1
  12498  12509     1
  12498  12517     1
  12499  12504     1
  12499  12512     1
  12499  12511     1
  12500  12510     1
  12501  12512     1
  12501  12503     1
  12502  12505     1
  12502  12517     1
  12502  12504     1
  12502  12512     1
  12502  12507     1
  12502  12503     1
  12503  12506     1
  12503  12510     1
  12503  12508     1
  12504  12506     1
  12513  12516     1
  12513  12517     1
  12514  12516     1
  12514  12517     1
  12518  12526     1
  12518  12534     1
  12518  12539     1
  12518  12527     1
  12519  12536     1
  12519  12537     1
  12519  12525     1
  12519  12533     1
  12520  12522     1
  12520  12531     1
  12520  12521     1
  12520  12538     1
  12520  12536     1
  12520  12537     1
  12520  12524     1
  12521  12532     1
  12521  12540     1
  12521  12523     1
  12521  12530     1
  12521  12526     1
  12521  12534     1
  12522  12534     1
  12522  12527     1
  12522  12535     1
  12523  12533     1
  12524  12526     1
  12524  12535     1
  12525  12530     1
  12525  12526     1
  12525  12528     1
  12525  12540     1
  12525  12527     1
  12525  12535     1
  12526  12531     1
  12526  12529     1
  12526  12533     1
  12527  12529     1
  12536  12540     1
  12536  12539     1
  12537  12540     1
  12537  12539     1
  12541  12549     1
  12541  12557     1
  12541  12562     1
  12541  12550     1
  12542  12548     1
  12542  12556     1
  12542  12559     1
  12542  12560     1
  12543  12545     1
  12543  12554     1
  12543  12544     1
  12543  12561     1
  12543  12559     1
  12543  12560     1
  12543  12547     1
  12544  12546     1
  12544  12553     1
  12544  12549     1
  12544  12557     1
  12544  12555     1
  12544  12563     1
  12545  12550     1
  12545  12558     1
  12545  12557     1
  12546  12556     1
  12547  12558     1
  12547  12549     1
  12548  12551     1
  12548  12563     1
  12548  12550     1
  12548  12558     1
  12548  12553     1
  12548  12549     1
  12549  12552     1
  12549  12556     1
  12549  12554     1
  12550  12552     1
  12559  12562     1
  12559  12563     1
  12560  12562     1
  12560  12563     1
  12564  12572     1
  12564  12580     1
  12564  12585     1
  12564  12573     1
  12565  12582     1
  12565  12583     1
  12565  12571     1
  12565  12579     1
  12566  12568     1
  12566  12577     1
  12566  12567     1
  12566  12584     1
  12566  12582     1
  12566  12583     1
  12566  12570     1
  12567  12578     1
  12567  12586     1
  12567  12569     1
  12567  12576     1
  12567  12572     1
  12567  12580     1
  12568  12580     1
  12568  12573     1
  12568  12581     1
  12569  12579     1
  12570  12572     1
  12570  12581     1
  12571  12576     1
  12571  12572     1
  12571  12574     1
  12571  12586     1
  12571  12573     1
  12571  12581     1
  12572  12577     1
  12572  12575     1
  12572  12579     1
  12573  12575     1
  12582  12586     1
  12582  12585     1
  12583  12586     1
  12583  12585     1
  12587  12595     1
  12587  12603     1
  12587  12608     1
  12587  12596     1
  12588  12594     1
  12588  12602     1
  12588  12605     1
  12588  12606     1
  12589  12591     1
  12589  12600     1
  12589  12590     1
  12589  12607     1
  12589  12605     1
  12589  12606     1
  12589  12593     1
  12590  12592     1
  12590  12599     1
  12590  12595     1
  12590  12603     1
  12590  12601     1
  12590  12609     1
  12591  12596     1
  12591  12604     1
  12591  12603     1
  12592  12602     1
  12593  12604     1
  12593  12595     1
  12594  12597     1
  12594  12609     1
  12594  12596     1
  12594  12604     1
  12594  12599     1
  12594  12595     1
  12595  12598     1
  12595  12602     1
  12595  12600     1
  12596  12598     1
  12605  12608     1
  12605  12609     1
  12606  12608     1
  12606  12609     1
  12610  12618     1
  12610  12626     1
  12610  12631     1
  12610  12619     1
  12611  12628     1
  12611  12629     1
  12611  12617     1
  12611  12625     1
  12612  12614     1
  12612  12623     1
  12612  12613     1
  12612  12630     1
  12612  12628     1
  12612  12629     1
  12612  12616     1
  12613  12624     1
  12613  12632     1
  12613  12615     1
  12613  12622     1
  12613  12618     1
  12613  12626     1
  12614  12626     1
  12614  12619     1
  12614  12627     1
  12615  12625     1
  12616  12618     1
  12616  12627     1
  12617  12622     1
  12617  12618     1
  12617  12620     1
  12617  12632     1
  12617  12619     1
  12617  12627     1
  12618  12623     1
  12618  12621     1
  12618  12625     1
  12619  12621     1
  12628  12632     1
  12628  12631     1
  12629  12632     1
  12629  12631     1
  12633  12641     1
  12633  12649     1
  12633  12654     1
  12633  12642     1
  12634  12640     1
  12634  12648     1
  12634  12651     1
  12634  12652     1
  12635  12637     1
  12635  12646     1
  12635  12636     1
  12635  12653     1
  12635  12651     1
  12635  12652     1
  12635  12639     1
  12636  12638     1
  12636  12645     1
  12636  12641     1
  12636  12649     1
  12636  12647     1
  12636  12655     1
  12637  12642     1
  12637  12650     1
  12637  12649     1
  12638  12648     1
  12639  12650     1
  12639  12641     1
  12640  12643     1
  12640  12655     1
  12640  12642     1
  12640  12650     1
  12640  12645     1
  12640  12641     1
  12641  12644     1
  12641  12648     1
  12641  12646     1
  12642  12644     1
  12651  12654     1
  12651  12655     1
  12652  12654     1
  12652  12655     1
  12656  12664     1
  12656  12672     1
  12656  12677     1
  12656  12665     1
  12657  12674     1
  12657  12675     1
  12657  12663     1
  12657  12671     1
  12658  12660     1
  12658  12669     1
  12658  12659     1
  12658  12676     1
  12658  12674     1
  12658  12675     1
  12658  12662     1
  12659  12670     1
  12659  12678     1
  12659  12661     1
  12659  12668     1
  12659  12664     1
  12659  12672     1
  12660  12672     1
  12660  12665     1
  12660  12673     1
  12661  12671     1
  12662  12664     1
  12662  12673     1
  12663  12668     1
  12663  12664     1
  12663  12666     1
  12663  12678     1
  12663  12665     1
  12663  12673     1
  12664  12669     1
  12664  12667     1
  12664  12671     1
  12665  12667     1
  12674  12678     1
  12674  12677     1
  12675  12678     1
  12675  12677     1
  12679  12687     1
  12679  12695     1
  12679  12700     1
  12679  12688     1
  12680  12686     1
  12680  12694     1
  12680  12697     1
  12680  12698     1
  12681  12683     1
  12681  12692     1
  12681  12682     1
  12681  12699     1
  12681  12697     1
  12681  12698     1
  12681  12685     1
  12682  12684     1
  12682  12691     1
  12682  12687     1
  12682  12695     1
  12682  12693     1
  12682  12701     1
  12683  12688     1
  12683  12696     1
  12683  12695     1
  12684  12694     1
  12685  12696     1
  12685  12687     1
  12686  12689     1
  12686  12701     1
  12686  12688     1
  12686  12696     1
  12686  12691     1
  12686  12687     1
  12687  12690     1
  12687  12694     1
  12687  12692     1
  12688  12690     1
  12697  12700     1
  12697  12701     1
  12698  12700     1
  12698  12701     1
  12702  12710     1
  12702  12718     1
  12702  12723     1
  12702  12711     1
  12703  12720     1
  12703  12721     1
  12703  12709     1
  12703  12717     1
  12704  12706     1
  12704  12715     1
  12704  12705     1
  12704  12722     1
  12704  12720     1
  12704  12721     1
  12704  12708     1
  12705  12716     1
  12705  12724     1
  12705  12707     1
  12705  12714     1
  12705  12710     1
  12705  12718     1
  12706  12718     1
  12706  12711     1
  12706  12719     1
  12707  12717     1
  12708  12710     1
  12708  12719     1
  12709  12714     1
  12709  12710     1
  12709  12712     1
  12709  12724     1
  12709  12711     1
  12709  12719     1
  12710  12715     1
  12710  12713     1
  12710  12717     1
  12711  12713     1
  12720  12724     1
  12720  12723     1
  12721  12724     1
  12721  12723     1
  12725  12733     1
  12725  12741     1
  12725  12746     1
  12725  12734     1
  12726  12732     1
  12726  12740     1
  12726  12743     1
  12726  12744     1
  12727  12729     1
  12727  12738     1
  12727  12728     1
  12727  12745     1
  12727  12743     1
  12727  12744     1
  12727  12731     1
  12728  12730     1
  12728  12737     1
  12728  12733     1
  12728  12741     1
  12728  12739     1
  12728  12747     1
  12729  12734     1
  12729  12742     1
  12729  12741     1
  12730  12740     1
  12731  12742     1
  12731  12733     1
  12732  12735     1
  12732  12747     1
  12732  12734     1
  12732  12742     1
  12732  12737     1
  12732  12733     1
  12733  12736     1
  12733  12740     1
  12733  12738     1
  12734  12736     1
  12743  12746     1
  12743  12747     1
  12744  12746     1
  12744  12747     1
  12748  12756     1
  12748  12764     1
  12748  12769     1
  12748  12757     1
  12749  12766     1
  12749  12767     1
  12749  12755     1
  12749  12763     1
  12750  12752     1
  12750  12761     1
  12750  12751     1
  12750  12768     1
  12750  12766     1
  12750  12767     1
  12750  12754     1
  12751  12762     1
  12751  12770     1
  12751  12753     1
  12751  12760     1
  12751  12756     1
  12751  12764     1
  12752  12764     1
  12752  12757     1
  12752  12765     1
  12753  12763     1
  12754  12756     1
  12754  12765     1
  12755  12760     1
  12755  12756     1
  12755  12758     1
  12755  12770     1
  12755  12757     1
  12755  12765     1
  12756  12761     1
  12756  12759     1
  12756  12763     1
  12757  12759     1
  12766  12770     1
  12766  12769     1
  12767  12770     1
  12767  12769     1
  12771  12779     1
  12771  12787     1
  12771  12792     1
  12771  12780     1
  12772  12778     1
  12772  12786     1
  12772  12789     1
  12772  12790     1
  12773  12775     1
  12773  12784     1
  12773  12774     1
  12773  12791     1
  12773  12789     1
  12773  12790     1
  12773  12777     1
  12774  12776     1
  12774  12783     1
  12774  12779     1
  12774  12787     1
  12774  12785     1
  12774  12793     1
  12775  12780     1
  12775  12788     1
  12775  12787     1
  12776  12786     1
  12777  12788     1
  12777  12779     1
  12778  12781     1
  12778  12793     1
  12778  12780     1
  12778  12788     1
  12778  12783     1
  12778  12779     1
  12779  12782     1
  12779  12786     1
  12779  12784     1
  12780  12782     1
  12789  12792     1
  12789  12793     1
  12790  12792     1
  12790  12793     1
  12794  12802     1
  12794  12810     1
  12794  12815     1
  12794  12803     1
  12795  12812     1
  12795  12813     1
  12795  12801     1
  12795  12809     1
  12796  12798     1
  12796  12807     1
  12796  12797     1
  12796  12814     1
  12796  12812     1
  12796  12813     1
  12796  12800     1
  12797  12808     1
  12797  12816     1
  12797  12799     1
  12797  12806     1
  12797  12802     1
  12797  12810     1
  12798  12810     1
  12798  12803     1
  12798  12811     1
  12799  12809     1
  12800  12802     1
  12800  12811     1
  12801  12806     1
  12801  12802     1
  12801  12804     1
  12801  12816     1
  12801  12803     1
  12801  12811     1
  12802  12807     1
  12802  12805     1
  12802  12809     1
  12803  12805     1
  12812  12816     1
  12812  12815     1
  12813  12816     1
  12813  12815     1
  12817  12825     1
  12817  12833     1
  12817  12838     1
  12817  12826     1
  12818  12824     1
  12818  12832     1
  12818  12835     1
  12818  12836     1
  12819  12821     1
  12819  12830     1
  12819  12820     1
  12819  12837     1
  12819  12835     1
  12819  12836     1
  12819  12823     1
  12820  12822     1
  12820  12829     1
  12820  12825     1
  12820  12833     1
  12820  12831     1
  12820  12839     1
  12821  12826     1
  12821  12834     1
  12821  12833     1
  12822  12832     1
  12823  12834     1
  12823  12825     1
  12824  12827     1
  12824  12839     1
  12824  12826     1
  12824  12834     1
  12824  12829     1
  12824  12825     1
  12825  12828     1
  12825  12832     1
  12825  12830     1
  12826  12828     1
  12835  12838     1
  12835  12839     1
  12836  12838     1
  12836  12839     1
  12840  12848     1
  12840  12856     1
  12840  12861     1
  12840  12849     1
  12841  12858     1
  12841  12859     1
  12841  12847     1
  12841  12855     1
  12842  12844     1
  12842  12853     1
  12842  12843     1
  12842  12860     1
  12842  12858     1
  12842  12859     1
  12842  12846     1
  12843  12854     1
  12843  12862     1
  12843  12845     1
  12843  12852     1
  12843  12848     1
  12843  12856     1
  12844  12856     1
  12844  12849     1
  12844  12857     1
  12845  12855     1
  12846  12848     1
  12846  12857     1
  12847  12852     1
  12847  12848     1
  12847  12850     1
  12847  12862     1
  12847  12849     1
  12847  12857     1
  12848  12853     1
  12848  12851     1
  12848  12855     1
  12849  12851     1
  12858  12862     1
  12858  12861     1
  12859  12862     1
  12859  12861     1
  12863  12871     1
  12863  12879     1
  12863  12884     1
  12863  12872     1
  12864  12870     1
  12864  12878     1
  12864  12881     1
  12864  12882     1
  12865  12867     1
  12865  12876     1
  12865  12866     1
  12865  12883     1
  12865  12881     1
  12865  12882     1
  12865  12869     1
  12866  12868     1
  12866  12875     1
  12866  12871     1
  12866  12879     1
  12866  12877     1
  12866  12885     1
  12867  12872     1
  12867  12880     1
  12867  12879     1
  12868  12878     1
  12869  12880     1
  12869  12871     1
  12870  12873     1
  12870  12885     1
  12870  12872     1
  12870  12880     1
  12870  12875     1
  12870  12871     1
  12871  12874     1
  12871  12878     1
  12871  12876     1
  12872  12874     1
  12881  12884     1
  12881  12885     1
  12882  12884     1
  12882  12885     1
  12886  12894     1
  12886  12902     1
  12886  12907     1
  12886  12895     1
  12887  12904     1
  12887  12905     1
  12887  12893     1
  12887  12901     1
  12888  12890     1
  12888  12899     1
  12888  12889     1
  12888  12906     1
  12888  12904     1
  12888  12905     1
  12888  12892     1
  12889  12900     1
  12889  12908     1
  12889  12891     1
  12889  12898     1
  12889  12894     1
  12889  12902     1
  12890  12902     1
  12890  12895     1
  12890  12903     1
  12891  12901     1
  12892  12894     1
  12892  12903     1
  12893  12898     1
  12893  12894     1
  12893  12896     1
  12893  12908     1
  12893  12895     1
  12893  12903     1
  12894  12899     1
  12894  12897     1
  12894  12901     1
  12895  12897     1
  12904  12908     1
  12904  12907     1
  12905  12908     1
  12905  12907     1
  12909  12917     1
  12909  12925     1
  12909  12930     1
  12909  12918     1
  12910  12916     1
  12910  12924     1
  12910  12927     1
  12910  12928     1
  12911  12913     1
  12911  12922     1
  12911  12912     1
  12911  12929     1
  12911  12927     1
  12911  12928     1
  12911  12915     1
  12912  12914     1
  12912  12921     1
  12912  12917     1
  12912  12925     1
  12912  12923     1
  12912  12931     1
  12913  12918     1
  12913  12926     1
  12913  12925     1
  12914  12924     1
  12915  12926     1
  12915  12917     1
  12916  12919     1
  12916  12931     1
  12916  12918     1
  12916  12926     1
  12916  12921     1
  12916  12917     1
  12917  12920     1
  12917  12924     1
  12917  12922     1
  12918  12920     1
  12927  12930     1
  12927  12931     1
  12928  12930     1
  12928  12931     1
  12932  12940     1
  12932  12948     1
  12932  12953     1
  12932  12941     1
  12933  12950     1
  12933  12951     1
  12933  12939     1
  12933  12947     1
  12934  12936     1
  12934  12945     1
  12934  12935     1
  12934  12952     1
  12934  12950     1
  12934  12951     1
  12934  12938     1
  12935  12946     1
  12935  12954     1
  12935  12937     1
  12935  12944     1
  12935  12940     1
  12935  12948     1
  12936  12948     1
  12936  12941     1
  12936  12949     1
  12937  12947     1
  12938  12940     1
  12938  12949     1
  12939  12944     1
  12939  12940     1
  12939  12942     1
  12939  12954     1
  12939  12941     1
  12939  12949     1
  12940  12945     1
  12940  12943     1
  12940  12947     1
  12941  12943     1
  12950  12954     1
  12950  12953     1
  12951  12954     1
  12951  12953     1
  12955  12963     1
  12955  12971     1
  12955  12976     1
  12955  12964     1
  12956  12962     1
  12956  12970     1
  12956  12973     1
  12956  12974     1
  12957  12959     1
  12957  12968     1
  12957  12958     1
  12957  12975     1
  12957  12973     1
  12957  12974     1
  12957  12961     1
  12958  12960     1
  12958  12967     1
  12958  12963     1
  12958  12971     1
  12958  12969     1
  12958  12977     1
  12959  12964     1
  12959  12972     1
  12959  12971     1
  12960  12970     1
  12961  12972     1
  12961  12963     1
  12962  12965     1
  12962  12977     1
  12962  12964     1
  12962  12972     1
  12962  12967     1
  12962  12963     1
  12963  12966     1
  12963  12970     1
  12963  12968     1
  12964  12966     1
  12973  12976     1
  12973  12977     1
  12974  12976     1
  12974  12977     1
  12978  12986     1
  12978  12994     1
  12978  12999     1
  12978  12987     1
  12979  12996     1
  12979  12997     1
  12979  12985     1
  12979  12993     1
  12980  12982     1
  12980  12991     1
  12980  12981     1
  12980  12998     1
  12980  12996     1
  12980  12997     1
  12980  12984     1
  12981  12992     1
  12981  13000     1
  12981  12983     1
  12981  12990     1
  12981  12986     1
  12981  12994     1
  12982  12994     1
  12982  12987     1
  12982  12995     1
  12983  12993     1
  12984  12986     1
  12984  12995     1
  12985  12990     1
  12985  12986     1
  12985  12988     1
  12985  13000     1
  12985  12987     1
  12985  12995     1
  12986  12991     1
  12986  12989     1
  12986  12993     1
  12987  12989     1
  12996  13000     1
  12996  12999     1
  12997  13000     1
  12997  12999     1
  13001  13009     1
  13001  13017     1
  13001  13022     1
  13001  13010     1
  13002  13008     1
  13002  13016     1
  13002  13019     1
  13002  13020     1
  13003  13005     1
  13003  13014     1
  13003  13004     1
  13003  13021     1
  13003  13019     1
  13003  13020     1
  13003  13007     1
  13004  13006     1
  13004  13013     1
  13004  13009     1
  13004  13017     1
  13004  13015     1
  13004  13023     1
  13005  13010     1
  13005  13018     1
  13005  13017     1
  13006  13016     1
  13007  13018     1
  13007  13009     1
  13008  13011     1
  13008  13023     1
  13008  13010     1
  13008  13018     1
  13008  13013     1
  13008  13009     1
  13009  13012     1
  13009  13016     1
  13009  13014     1
  13010  13012     1
  13019  13022     1
  13019  13023     1
  13020  13022     1
  13020  13023     1
  13024  13032     1
  13024  13040     1
  13024  13045     1
  13024  13033     1
  13025  13042     1
  13025  13043     1
  13025  13031     1
  13025  13039     1
  13026  13028     1
  13026  13037     1
  13026  13027     1
  13026  13044     1
  13026  13042     1
  13026  13043     1
  13026  13030     1
  13027  13038     1
  13027  13046     1
  13027  13029     1
  13027  13036     1
  13027  13032     1
  13027  13040     1
  13028  13040     1
  13028  13033     1
  13028  13041     1
  13029  13039     1
  13030  13032     1
  13030  13041     1
  13031  13036     1
  13031  13032     1
  13031  13034     1
  13031  13046     1
  13031  13033     1
  13031  13041     1
  13032  13037     1
  13032  13035     1
  13032  13039     1
  13033  13035     1
  13042  13046     1
  13042  13045     1
  13043  13046     1
  13043  13045     1
  13047  13055     1
  13047  13063     1
  13047  13068     1
  13047  13056     1
  13048  13054     1
  13048  13062     1
  13048  13065     1
  13048  13066     1
  13049  13051     1
  13049  13060     1
  13049  13050     1
  13049  13067     1
  13049  13065     1
  13049  13066     1
  13049  13053     1
  13050  13052     1
  13050  13059     1
  13050  13055     1
  13050  13063     1
  13050  13061     1
  13050  13069     1
  13051  13056     1
  13051  13064     1
  13051  13063     1
  13052  13062     1
  13053  13064     1
  13053  13055     1
  13054  13057     1
  13054  13069     1
  13054  13056     1
  13054  13064     1
  13054  13059     1
  13054  13055     1
  13055  13058     1
  13055  13062     1
  13055  13060     1
  13056  13058     1
  13065  13068     1
  13065  13069     1
  13066  13068     1
  13066  13069     1
  13070  13078     1
  13070  13086     1
  13070  13091     1
  13070  13079     1
  13071  13088     1
  13071  13089     1
  13071  13077     1
  13071  13085     1
  13072  13074     1
  13072  13083     1
  13072  13073     1
  13072  13090     1
  13072  13088     1
  13072  13089     1
  13072  13076     1
  13073  13084     1
  13073  13092     1
  13073  13075     1
  13073  13082     1
  13073  13078     1
  13073  13086     1
  13074  13086     1
  13074  13079     1
  13074  13087     1
  13075  13085     1
  13076  13078     1
  13076  13087     1
  13077  13082     1
  13077  13078     1
  13077  13080     1
  13077  13092     1
  13077  13079     1
  13077  13087     1
  13078  13083     1
  13078  13081     1
  13078  13085     1
  13079  13081     1
  13088  13092     1
  13088  13091     1
  13089  13092     1
  13089  13091     1
  13093  13101     1
  13093  13109     1
  13093  13114     1
  13093  13102     1
  13094  13100     1
  13094  13108     1
  13094  13111     1
  13094  13112     1
  13095  13097     1
  13095  13106     1
  13095  13096     1
  13095  13113     1
  13095  13111     1
  13095  13112     1
  13095  13099     1
  13096  13098     1
  13096  13105     1
  13096  13101     1
  13096  13109     1
  13096  13107     1
  13096  13115     1
  13097  13102     1
  13097  13110     1
  13097  13109     1
  13098  13108     1
  13099  13110     1
  13099  13101     1
  13100  13103     1
  13100  13115     1
  13100  13102     1
  13100  13110     1
  13100  13105     1
  13100  13101     1
  13101  13104     1
  13101  13108     1
  13101  13106     1
  13102  13104     1
  13111  13114     1
  13111  13115     1
  13112  13114     1
  13112  13115     1
  13116  13124     1
  13116  13132     1
  13116  13137     1
  13116  13125     1
  13117  13134     1
  13117  13135     1
  13117  13123     1
  13117  13131     1
  13118  13120     1
  13118  13129     1
  13118  13119     1
  13118  13136     1
  13118  13134     1
  13118  13135     1
  13118  13122     1
  13119  13130     1
  13119  13138     1
  13119  13121     1
  13119  13128     1
  13119  13124     1
  13119  13132     1
  13120  13132     1
  13120  13125     1
  13120  13133     1
  13121  13131     1
  13122  13124     1
  13122  13133     1
  13123  13128     1
  13123  13124     1
  13123  13126     1
  13123  13138     1
  13123  13125     1
  13123  13133     1
  13124  13129     1
  13124  13127     1
  13124  13131     1
  13125  13127     1
  13134  13138     1
  13134  13137     1
  13135  13138     1
  13135  13137     1
  13139  13147     1
  13139  13155     1
  13139  13160     1
  13139  13148     1
  13140  13146     1
  13140  13154     1
  13140  13157     1
  13140  13158     1
  13141  13143     1
  13141  13152     1
  13141  13142     1
  13141  13159     1
  13141  13157     1
  13141  13158     1
  13141  13145     1
  13142  13144     1
  13142  13151     1
  13142  13147     1
  13142  13155     1
  13142  13153     1
  13142  13161     1
  13143  13148     1
  13143  13156     1
  13143  13155     1
  13144  13154     1
  13145  13156     1
  13145  13147     1
  13146  13149     1
  13146  13161     1
  13146  13148     1
  13146  13156     1
  13146  13151     1
  13146  13147     1
  13147  13150     1
  13147  13154     1
  13147  13152     1
  13148  13150     1
  13157  13160     1
  13157  13161     1
  13158  13160     1
  13158  13161     1
  13162  13170     1
  13162  13178     1
  13162  13183     1
  13162  13171     1
  13163  13180     1
  13163  13181     1
  13163  13169     1
  13163  13177     1
  13164  13166     1
  13164  13175     1
  13164  13165     1
  13164  13182     1
  13164  13180     1
  13164  13181     1
  13164  13168     1
  13165  13176     1
  13165  13184     1
  13165  13167     1
  13165  13174     1
  13165  13170     1
  13165  13178     1
  13166  13178     1
  13166  13171     1
  13166  13179     1
  13167  13177     1
  13168  13170     1
  13168  13179     1
  13169  13174     1
  13169  13170     1
  13169  13172     1
  13169  13184     1
  13169  13171     1
  13169  13179     1
  13170  13175     1
  13170  13173     1
  13170  13177     1
  13171  13173     1
  13180  13184     1
  13180  13183     1
  13181  13184     1
  13181  13183     1
  13185  13193     1
  13185  13201     1
  13185  13206     1
  13185  13194     1
  13186  13192     1
  13186  13200     1
  13186  13203     1
  13186  13204     1
  13187  13189     1
  13187  13198     1
  13187  13188     1
  13187  13205     1
  13187  13203     1
  13187  13204     1
  13187  13191     1
  13188  13190     1
  13188  13197     1
  13188  13193     1
  13188  13201     1
  13188  13199     1
  13188  13207     1
  13189  13194     1
  13189  13202     1
  13189  13201     1
  13190  13200     1
  13191  13202     1
  13191  13193     1
  13192  13195     1
  13192  13207     1
  13192  13194     1
  13192  13202     1
  13192  13197     1
  13192  13193     1
  13193  13196     1
  13193  13200     1
  13193  13198     1
  13194  13196     1
  13203  13206     1
  13203  13207     1
  13204  13206     1
  13204  13207     1
  13208  13216     1
  13208  13224     1
  13208  13229     1
  13208  13217     1
  13209  13226     1
  13209  13227     1
  13209  13215     1
  13209  13223     1
  13210  13212     1
  13210  13221     1
  13210  13211     1
  13210  13228     1
  13210  13226     1
  13210  13227     1
  13210  13214     1
  13211  13222     1
  13211  13230     1
  13211  13213     1
  13211  13220     1
  13211  13216     1
  13211  13224     1
  13212  13224     1
  13212  13217     1
  13212  13225     1
  13213  13223     1
  13214  13216     1
  13214  13225     1
  13215  13220     1
  13215  13216     1
  13215  13218     1
  13215  13230     1
  13215  13217     1
  13215  13225     1
  13216  13221     1
  13216  13219     1
  13216  13223     1
  13217  13219     1
  13226  13230     1
  13226  13229     1
  13227  13230     1
  13227  13229     1
  13231  13239     1
  13231  13247     1
  13231  13252     1
  13231  13240     1
  13232  13238     1
  13232  13246     1
  13232  13249     1
  13232  13250     1
  13233  13235     1
  13233  13244     1
  13233  13234     1
  13233  13251     1
  13233  13249     1
  13233  13250     1
  13233  13237     1
  13234  13236     1
  13234  13243     1
  13234  13239     1
  13234  13247     1
  13234  13245     1
  13234  13253     1
  13235  13240     1
  13235  13248     1
  13235  13247     1
  13236  13246     1
  13237  13248     1
  13237  13239     1
  13238  13241     1
  13238  13253     1
  13238  13240     1
  13238  13248     1
  13238  13243     1
  13238  13239     1
  13239  13242     1
  13239  13246     1
  13239  13244     1
  13240  13242     1
  13249  13252     1
  13249  13253     1
  13250  13252     1
  13250  13253     1

[ angles ]
;    ai     aj     ak funct         c0         c1         c2         c3
      1      2      8     1   107.9700462 569.024000
      1      5     11     1   107.9700462 569.024000
      2      1      5     1   112.4800480 524.673600
      2      8     14     1   111.5100476 526.347200
      5     11     17     1   111.5100476 526.347200
      8     14     20     1   111.0400475 552.288000
     11     17     21     1   111.0400475 552.288000
     14     20     28     1   112.3500484 533.878400
     14     20     31     1   112.3500484 533.878400
     17     21     22     1   112.3500484 533.878400
     17     21     25     1   112.3500484 533.878400
     20     28     40     1   111.0400475 552.288000
     20     31     43     1   111.0400475 552.288000
     21     22     34     1   111.0400475 552.288000
     21     25     37     1   111.0400475 552.288000
     22     21     25     1   112.3500484 533.878400
     22     34     55     1   111.5100476 526.347200
     25     37     52     1   111.5100476 526.347200
     28     20     31     1   112.3500484 533.878400
     28     40     49     1   111.5100476 526.347200
     31     43     46     1   111.5100476 526.347200
     34     55    173     1   107.9700462 569.024000
     37     52    144     1   107.9700462 569.024000
     40     49    115     1   107.9700462 569.024000
     43     46     86     1   107.9700462 569.024000
     46     86     77     1   112.4800480 524.673600
     49    115    106     1   112.4800480 524.673600
     52    144    135     1   112.4800480 524.673600
     55    173    164     1   112.4800480 524.673600
     58     59     71     1   111.0400475 552.288000
     58     62     74     1   111.0400475 552.288000
     58     65     68     1   111.0400475 552.288000
     59     58     62     1   112.3500484 533.878400
     59     58     65     1   112.3500484 533.878400
     59     71     83     1   111.5100476 526.347200
     62     58     65     1   112.3500484 533.878400
     62     74     80     1   111.5100476 526.347200
     65     68     77     1   111.5100476 526.347200
     68     77     86     1   107.9700462 569.024000
     71     83    231     1   107.9700462 569.024000
     74     80    202     1   107.9700462 569.024000
     80    202    193     1   112.4800480 524.673600
     83    231    222     1   112.4800480 524.673600
     87     88    100     1   111.0400475 552.288000
     87     91    103     1   111.0400475 552.288000
     87     94     97     1   111.0400475 552.288000
     88     87     91     1   112.3500484 533.878400
     88     87     94     1   112.3500484 533.878400
     88    100    112     1   111.5100476 526.347200
     91     87     94     1   112.3500484 533.878400
     91    103    109     1   111.5100476 526.347200
     94     97    106     1   111.5100476 526.347200
     97    106    115     1   107.9700462 569.024000
    100    112    289     1   107.9700462 569.024000
    103    109    260     1   107.9700462 569.024000
    109    260    251     1   112.4800480 524.673600
    112    289    280     1   112.4800480 524.673600
    116    117    129     1   111.0400475 552.288000
    116    120    132     1   111.0400475 552.288000
    116    123    126     1   111.0400475 552.288000
    117    116    120     1   112.3500484 533.878400
    117    116    123     1   112.3500484 533.878400
    117    129    141     1   111.5100476 526.347200
    120    116    123     1   112.3500484 533.878400
    120    132    138     1   111.5100476 526.347200
    123    126    135     1   111.5100476 526.347200
    126    135    144     1   107.9700462 569.024000
    129    141    347     1   107.9700462 569.024000
    132    138    318     1   107.9700462 569.024000
    138    318    309     1   112.4800480 524.673600
    141    347    338     1   112.4800480 524.673600
    145    146    158     1   111.0400475 552.288000
    145    149    161     1   111.0400475 552.288000
    145    152    155     1   111.0400475 552.288000
    146    145    149     1   112.3500484 533.878400
    146    145    152     1   112.3500484 533.878400
    146    158    170     1   111.5100476 526.347200
    149    145    152     1   112.3500484 533.878400
    149    161    167     1   111.5100476 526.347200
    152    155    164     1   111.5100476 526.347200
    155    164    173     1   107.9700462 569.024000
    158    170    405     1   107.9700462 569.024000
    161    167    376     1   107.9700462 569.024000
    167    376    367     1   112.4800480 524.673600
    170    405    396     1   112.4800480 524.673600
    174    175    187     1   111.0400475 552.288000
    174    178    190     1   111.0400475 552.288000
    174    181    184     1   111.0400475 552.288000
    175    174    178     1   112.3500484 533.878400
    175    174    181     1   112.3500484 533.878400
    175    187    199     1   111.5100476 526.347200
    178    174    181     1   112.3500484 533.878400
    178    190    196     1   111.5100476 526.347200
    181    184    193     1   111.5100476 526.347200
    184    193    202     1   107.9700462 569.024000
    187    199    463     1   107.9700462 569.024000
    190    196    434     1   107.9700462 569.024000
    196    434    425     1   112.4800480 524.673600
    199    463    454     1   112.4800480 524.673600
    203    204    216     1   111.0400475 552.288000
    203    207    219     1   111.0400475 552.288000
    203    210    213     1   111.0400475 552.288000
    204    203    207     1   112.3500484 533.878400
    204    203    210     1   112.3500484 533.878400
    204    216    228     1   111.5100476 526.347200
    207    203    210     1   112.3500484 533.878400
    207    219    225     1   111.5100476 526.347200
    210    213    222     1   111.5100476 526.347200
    213    222    231     1   107.9700462 569.024000
    216    228    521     1   107.9700462 569.024000
    219    225    492     1   107.9700462 569.024000
    225    492    483     1   112.4800480 524.673600
    228    521    512     1   112.4800480 524.673600
    232    233    245     1   111.0400475 552.288000
    232    236    248     1   111.0400475 552.288000
    232    239    242     1   111.0400475 552.288000
    233    232    236     1   112.3500484 533.878400
    233    232    239     1   112.3500484 533.878400
    233    245    257     1   111.5100476 526.347200
    236    232    239     1   112.3500484 533.878400
    236    248    254     1   111.5100476 526.347200
    239    242    251     1   111.5100476 526.347200
    242    251    260     1   107.9700462 569.024000
    245    257    579     1   107.9700462 569.024000
    248    254    550     1   107.9700462 569.024000
    254    550    541     1   112.4800480 524.673600
    257    579    570     1   112.4800480 524.673600
    261    262    274     1   111.0400475 552.288000
    261    265    277     1   111.0400475 552.288000
    261    268    271     1   111.0400475 552.288000
    262    261    265     1   112.3500484 533.878400
    262    261    268     1   112.3500484 533.878400
    262    274    286     1   111.5100476 526.347200
    265    261    268     1   112.3500484 533.878400
    265    277    283     1   111.5100476 526.347200
    268    271    280     1   111.5100476 526.347200
    271    280    289     1   107.9700462 569.024000
    274    286    637     1   107.9700462 569.024000
    277    283    608     1   107.9700462 569.024000
    283    608    599     1   112.4800480 524.673600
    286    637    628     1   112.4800480 524.673600
    290    291    303     1   111.0400475 552.288000
    290    294    306     1   111.0400475 552.288000
    290    297    300     1   111.0400475 552.288000
    291    290    294     1   112.3500484 533.878400
    291    290    297     1   112.3500484 533.878400
    291    303    315     1   111.5100476 526.347200
    294    290    297     1   112.3500484 533.878400
    294    306    312     1   111.5100476 526.347200
    297    300    309     1   111.5100476 526.347200
    300    309    318     1   107.9700462 569.024000
    303    315    695     1   107.9700462 569.024000
    306    312    666     1   107.9700462 569.024000
    312    666    657     1   112.4800480 524.673600
    315    695    686     1   112.4800480 524.673600
    319    320    332     1   111.0400475 552.288000
    319    323    335     1   111.0400475 552.288000
    319    326    329     1   111.0400475 552.288000
    320    319    323     1   112.3500484 533.878400
    320    319    326     1   112.3500484 533.878400
    320    332    344     1   111.5100476 526.347200
    323    319    326     1   112.3500484 533.878400
    323    335    341     1   111.5100476 526.347200
    326    329    338     1   111.5100476 526.347200
    329    338    347     1   107.9700462 569.024000
    332    344    753     1   107.9700462 569.024000
    335    341    724     1   107.9700462 569.024000
    341    724    715     1   112.4800480 524.673600
    344    753    744     1   112.4800480 524.673600
    348    349    361     1   111.0400475 552.288000
    348    352    364     1   111.0400475 552.288000
    348    355    358     1   111.0400475 552.288000
    349    348    352     1   112.3500484 533.878400
    349    348    355     1   112.3500484 533.878400
    349    361    373     1   111.5100476 526.347200
    352    348    355     1   112.3500484 533.878400
    352    364    370     1   111.5100476 526.347200
    355    358    367     1   111.5100476 526.347200
    358    367    376     1   107.9700462 569.024000
    361    373    811     1   107.9700462 569.024000
    364    370    782     1   107.9700462 569.024000
    370    782    773     1   112.4800480 524.673600
    373    811    802     1   112.4800480 524.673600
    377    378    390     1   111.0400475 552.288000
    377    381    393     1   111.0400475 552.288000
    377    384    387     1   111.0400475 552.288000
    378    377    381     1   112.3500484 533.878400
    378    377    384     1   112.3500484 533.878400
    378    390    402     1   111.5100476 526.347200
    381    377    384     1   112.3500484 533.878400
    381    393    399     1   111.5100476 526.347200
    384    387    396     1   111.5100476 526.347200
    387    396    405     1   107.9700462 569.024000
    390    402    869     1   107.9700462 569.024000
    393    399    840     1   107.9700462 569.024000
    399    840    831     1   112.4800480 524.673600
    402    869    860     1   112.4800480 524.673600
    406    407    419     1   111.0400475 552.288000
    406    410    422     1   111.0400475 552.288000
    406    413    416     1   111.0400475 552.288000
    407    406    410     1   112.3500484 533.878400
    407    406    413     1   112.3500484 533.878400
    407    419    431     1   111.5100476 526.347200
    410    406    413     1   112.3500484 533.878400
    410    422    428     1   111.5100476 526.347200
    413    416    425     1   111.5100476 526.347200
    416    425    434     1   107.9700462 569.024000
    419    431    927     1   107.9700462 569.024000
    422    428    898     1   107.9700462 569.024000
    428    898    889     1   112.4800480 524.673600
    431    927    918     1   112.4800480 524.673600
    435    436    448     1   111.0400475 552.288000
    435    439    451     1   111.0400475 552.288000
    435    442    445     1   111.0400475 552.288000
    436    435    439     1   112.3500484 533.878400
    436    435    442     1   112.3500484 533.878400
    436    448    460     1   111.5100476 526.347200
    439    435    442     1   112.3500484 533.878400
    439    451    457     1   111.5100476 526.347200
    442    445    454     1   111.5100476 526.347200
    445    454    463     1   107.9700462 569.024000
    448    460    985     1   107.9700462 569.024000
    451    457    956     1   107.9700462 569.024000
    457    956    947     1   112.4800480 524.673600
    460    985    976     1   112.4800480 524.673600
    464    465    477     1   111.0400475 552.288000
    464    468    480     1   111.0400475 552.288000
    464    471    474     1   111.0400475 552.288000
    465    464    468     1   112.3500484 533.878400
    465    464    471     1   112.3500484 533.878400
    465    477    489     1   111.5100476 526.347200
    468    464    471     1   112.3500484 533.878400
    468    480    486     1   111.5100476 526.347200
    471    474    483     1   111.5100476 526.347200
    474    483    492     1   107.9700462 569.024000
    477    489   1043     1   107.9700462 569.024000
    480    486   1014     1   107.9700462 569.024000
    486   1014   1005     1   112.4800480 524.673600
    489   1043   1034     1   112.4800480 524.673600
    493    494    506     1   111.0400475 552.288000
    493    497    509     1   111.0400475 552.288000
    493    500    503     1   111.0400475 552.288000
    494    493    497     1   112.3500484 533.878400
    494    493    500     1   112.3500484 533.878400
    494    506    518     1   111.5100476 526.347200
    497    493    500     1   112.3500484 533.878400
    497    509    515     1   111.5100476 526.347200
    500    503    512     1   111.5100476 526.347200
    503    512    521     1   107.9700462 569.024000
    506    518   1101     1   107.9700462 569.024000
    509    515   1072     1   107.9700462 569.024000
    515   1072   1063     1   112.4800480 524.673600
    518   1101   1092     1   112.4800480 524.673600
    522    523    535     1   111.0400475 552.288000
    522    526    538     1   111.0400475 552.288000
    522    529    532     1   111.0400475 552.288000
    523    522    526     1   112.3500484 533.878400
    523    522    529     1   112.3500484 533.878400
    523    535    547     1   111.5100476 526.347200
    526    522    529     1   112.3500484 533.878400
    526    538    544     1   111.5100476 526.347200
    529    532    541     1   111.5100476 526.347200
    532    541    550     1   107.9700462 569.024000
    535    547   1159     1   107.9700462 569.024000
    538    544   1130     1   107.9700462 569.024000
    544   1130   1121     1   112.4800480 524.673600
    547   1159   1150     1   112.4800480 524.673600
    551    552    564     1   111.0400475 552.288000
    551    555    567     1   111.0400475 552.288000
    551    558    561     1   111.0400475 552.288000
    552    551    555     1   112.3500484 533.878400
    552    551    558     1   112.3500484 533.878400
    552    564    576     1   111.5100476 526.347200
    555    551    558     1   112.3500484 533.878400
    555    567    573     1   111.5100476 526.347200
    558    561    570     1   111.5100476 526.347200
    561    570    579     1   107.9700462 569.024000
    564    576   1217     1   107.9700462 569.024000
    567    573   1188     1   107.9700462 569.024000
    573   1188   1179     1   112.4800480 524.673600
    576   1217   1208     1   112.4800480 524.673600
    580    581    593     1   111.0400475 552.288000
    580    584    596     1   111.0400475 552.288000
    580    587    590     1   111.0400475 552.288000
    581    580    584     1   112.3500484 533.878400
    581    580    587     1   112.3500484 533.878400
    581    593    605     1   111.5100476 526.347200
    584    580    587     1   112.3500484 533.878400
    584    596    602     1   111.5100476 526.347200
    587    590    599     1   111.5100476 526.347200
    590    599    608     1   107.9700462 569.024000
    593    605   1275     1   107.9700462 569.024000
    596    602   1246     1   107.9700462 569.024000
    602   1246   1237     1   112.4800480 524.673600
    605   1275   1266     1   112.4800480 524.673600
    609    610    622     1   111.0400475 552.288000
    609    613    625     1   111.0400475 552.288000
    609    616    619     1   111.0400475 552.288000
    610    609    613     1   112.3500484 533.878400
    610    609    616     1   112.3500484 533.878400
    610    622    634     1   111.5100476 526.347200
    613    609    616     1   112.3500484 533.878400
    613    625    631     1   111.5100476 526.347200
    616    619    628     1   111.5100476 526.347200
    619    628    637     1   107.9700462 569.024000
    622    634   1333     1   107.9700462 569.024000
    625    631   1304     1   107.9700462 569.024000
    631   1304   1295     1   112.4800480 524.673600
    634   1333   1324     1   112.4800480 524.673600
    638    639    651     1   111.0400475 552.288000
    638    642    654     1   111.0400475 552.288000
    638    645    648     1   111.0400475 552.288000
    639    638    642     1   112.3500484 533.878400
    639    638    645     1   112.3500484 533.878400
    639    651    663     1   111.5100476 526.347200
    642    638    645     1   112.3500484 533.878400
    642    654    660     1   111.5100476 526.347200
    645    648    657     1   111.5100476 526.347200
    648    657    666     1   107.9700462 569.024000
    651    663   1391     1   107.9700462 569.024000
    654    660   1362     1   107.9700462 569.024000
    660   1362   1353     1   112.4800480 524.673600
    663   1391   1382     1   112.4800480 524.673600
    667    668    680     1   111.0400475 552.288000
    667    671    683     1   111.0400475 552.288000
    667    674    677     1   111.0400475 552.288000
    668    667    671     1   112.3500484 533.878400
    668    667    674     1   112.3500484 533.878400
    668    680    692     1   111.5100476 526.347200
    671    667    674     1   112.3500484 533.878400
    671    683    689     1   111.5100476 526.347200
    674    677    686     1   111.5100476 526.347200
    677    686    695     1   107.9700462 569.024000
    680    692   1449     1   107.9700462 569.024000
    683    689   1420     1   107.9700462 569.024000
    689   1420   1411     1   112.4800480 524.673600
    692   1449   1440     1   112.4800480 524.673600
    696    697    709     1   111.0400475 552.288000
    696    700    712     1   111.0400475 552.288000
    696    703    706     1   111.0400475 552.288000
    697    696    700     1   112.3500484 533.878400
    697    696    703     1   112.3500484 533.878400
    697    709    721     1   111.5100476 526.347200
    700    696    703     1   112.3500484 533.878400
    700    712    718     1   111.5100476 526.347200
    703    706    715     1   111.5100476 526.347200
    706    715    724     1   107.9700462 569.024000
    709    721   1507     1   107.9700462 569.024000
    712    718   1478     1   107.9700462 569.024000
    718   1478   1469     1   112.4800480 524.673600
    721   1507   1498     1   112.4800480 524.673600
    725    726    738     1   111.0400475 552.288000
    725    729    741     1   111.0400475 552.288000
    725    732    735     1   111.0400475 552.288000
    726    725    729     1   112.3500484 533.878400
    726    725    732     1   112.3500484 533.878400
    726    738    750     1   111.5100476 526.347200
    729    725    732     1   112.3500484 533.878400
    729    741    747     1   111.5100476 526.347200
    732    735    744     1   111.5100476 526.347200
    735    744    753     1   107.9700462 569.024000
    738    750   1565     1   107.9700462 569.024000
    741    747   1536     1   107.9700462 569.024000
    747   1536   1527     1   112.4800480 524.673600
    750   1565   1556     1   112.4800480 524.673600
    754    755    767     1   111.0400475 552.288000
    754    758    770     1   111.0400475 552.288000
    754    761    764     1   111.0400475 552.288000
    755    754    758     1   112.3500484 533.878400
    755    754    761     1   112.3500484 533.878400
    755    767    779     1   111.5100476 526.347200
    758    754    761     1   112.3500484 533.878400
    758    770    776     1   111.5100476 526.347200
    761    764    773     1   111.5100476 526.347200
    764    773    782     1   107.9700462 569.024000
    767    779   1623     1   107.9700462 569.024000
    770    776   1594     1   107.9700462 569.024000
    776   1594   1585     1   112.4800480 524.673600
    779   1623   1614     1   112.4800480 524.673600
    783    784    796     1   111.0400475 552.288000
    783    787    799     1   111.0400475 552.288000
    783    790    793     1   111.0400475 552.288000
    784    783    787     1   112.3500484 533.878400
    784    783    790     1   112.3500484 533.878400
    784    796    808     1   111.5100476 526.347200
    787    783    790     1   112.3500484 533.878400
    787    799    805     1   111.5100476 526.347200
    790    793    802     1   111.5100476 526.347200
    793    802    811     1   107.9700462 569.024000
    796    808   1681     1   107.9700462 569.024000
    799    805   1652     1   107.9700462 569.024000
    805   1652   1643     1   112.4800480 524.673600
    808   1681   1672     1   112.4800480 524.673600
    812    813    825     1   111.0400475 552.288000
    812    816    828     1   111.0400475 552.288000
    812    819    822     1   111.0400475 552.288000
    813    812    816     1   112.3500484 533.878400
    813    812    819     1   112.3500484 533.878400
    813    825    837     1   111.5100476 526.347200
    816    812    819     1   112.3500484 533.878400
    816    828    834     1   111.5100476 526.347200
    819    822    831     1   111.5100476 526.347200
    822    831    840     1   107.9700462 569.024000
    825    837   1739     1   107.9700462 569.024000
    828    834   1710     1   107.9700462 569.024000
    834   1710   1701     1   112.4800480 524.673600
    837   1739   1730     1   112.4800480 524.673600
    841    842    854     1   111.0400475 552.288000
    841    845    857     1   111.0400475 552.288000
    841    848    851     1   111.0400475 552.288000
    842    841    845     1   112.3500484 533.878400
    842    841    848     1   112.3500484 533.878400
    842    854    866     1   111.5100476 526.347200
    845    841    848     1   112.3500484 533.878400
    845    857    863     1   111.5100476 526.347200
    848    851    860     1   111.5100476 526.347200
    851    860    869     1   107.9700462 569.024000
    854    866   1797     1   107.9700462 569.024000
    857    863   1768     1   107.9700462 569.024000
    863   1768   1759     1   112.4800480 524.673600
    866   1797   1788     1   112.4800480 524.673600
    870    871    883     1   111.0400475 552.288000
    870    874    886     1   111.0400475 552.288000
    870    877    880     1   111.0400475 552.288000
    871    870    874     1   112.3500484 533.878400
    871    870    877     1   112.3500484 533.878400
    871    883    895     1   111.5100476 526.347200
    874    870    877     1   112.3500484 533.878400
    874    886    892     1   111.5100476 526.347200
    877    880    889     1   111.5100476 526.347200
    880    889    898     1   107.9700462 569.024000
    883    895   1855     1   107.9700462 569.024000
    886    892   1826     1   107.9700462 569.024000
    892   1826   1817     1   112.4800480 524.673600
    895   1855   1846     1   112.4800480 524.673600
    899    900    912     1   111.0400475 552.288000
    899    903    915     1   111.0400475 552.288000
    899    906    909     1   111.0400475 552.288000
    900    899    903     1   112.3500484 533.878400
    900    899    906     1   112.3500484 533.878400
    900    912    924     1   111.5100476 526.347200
    903    899    906     1   112.3500484 533.878400
    903    915    921     1   111.5100476 526.347200
    906    909    918     1   111.5100476 526.347200
    909    918    927     1   107.9700462 569.024000
    912    924   1913     1   107.9700462 569.024000
    915    921   1884     1   107.9700462 569.024000
    921   1884   1875     1   112.4800480 524.673600
    924   1913   1904     1   112.4800480 524.673600
    928    929    941     1   111.0400475 552.288000
    928    932    944     1   111.0400475 552.288000
    928    935    938     1   111.0400475 552.288000
    929    928    932     1   112.3500484 533.878400
    929    928    935     1   112.3500484 533.878400
    929    941    953     1   111.5100476 526.347200
    932    928    935     1   112.3500484 533.878400
    932    944    950     1   111.5100476 526.347200
    935    938    947     1   111.5100476 526.347200
    938    947    956     1   107.9700462 569.024000
    941    953   1971     1   107.9700462 569.024000
    944    950   1942     1   107.9700462 569.024000
    950   1942   1933     1   112.4800480 524.673600
    953   1971   1962     1   112.4800480 524.673600
    957    958    970     1   111.0400475 552.288000
    957    961    973     1   111.0400475 552.288000
    957    964    967     1   111.0400475 552.288000
    958    957    961     1   112.3500484 533.878400
    958    957    964     1   112.3500484 533.878400
    958    970    982     1   111.5100476 526.347200
    961    957    964     1   112.3500484 533.878400
    961    973    979     1   111.5100476 526.347200
    964    967    976     1   111.5100476 526.347200
    967    976    985     1   107.9700462 569.024000
    970    982   2029     1   107.9700462 569.024000
    973    979   2000     1   107.9700462 569.024000
    979   2000   1991     1   112.4800480 524.673600
    982   2029   2020     1   112.4800480 524.673600
    986    987    999     1   111.0400475 552.288000
    986    990   1002     1   111.0400475 552.288000
    986    993    996     1   111.0400475 552.288000
    987    986    990     1   112.3500484 533.878400
    987    986    993     1   112.3500484 533.878400
    987    999   1011     1   111.5100476 526.347200
    990    986    993     1   112.3500484 533.878400
    990   1002   1008     1   111.5100476 526.347200
    993    996   1005     1   111.5100476 526.347200
    996   1005   1014     1   107.9700462 569.024000
    999   1011   2087     1   107.9700462 569.024000
   1002   1008   2058     1   107.9700462 569.024000
   1008   2058   2049     1   112.4800480 524.673600
   1011   2087   2078     1   112.4800480 524.673600
   1015   1016   1028     1   111.0400475 552.288000
   1015   1019   1031     1   111.0400475 552.288000
   1015   1022   1025     1   111.0400475 552.288000
   1016   1015   1019     1   112.3500484 533.878400
   1016   1015   1022     1   112.3500484 533.878400
   1016   1028   1040     1   111.5100476 526.347200
   1019   1015   1022     1   112.3500484 533.878400
   1019   1031   1037     1   111.5100476 526.347200
   1022   1025   1034     1   111.5100476 526.347200
   1025   1034   1043     1   107.9700462 569.024000
   1028   1040   2145     1   107.9700462 569.024000
   1031   1037   2116     1   107.9700462 569.024000
   1037   2116   2107     1   112.4800480 524.673600
   1040   2145   2136     1   112.4800480 524.673600
   1044   1045   1057     1   111.0400475 552.288000
   1044   1048   1060     1   111.0400475 552.288000
   1044   1051   1054     1   111.0400475 552.288000
   1045   1044   1048     1   112.3500484 533.878400
   1045   1044   1051     1   112.3500484 533.878400
   1045   1057   1069     1   111.5100476 526.347200
   1048   1044   1051     1   112.3500484 533.878400
   1048   1060   1066     1   111.5100476 526.347200
   1051   1054   1063     1   111.5100476 526.347200
   1054   1063   1072     1   107.9700462 569.024000
   1057   1069   2203     1   107.9700462 569.024000
   1060   1066   2174     1   107.9700462 569.024000
   1066   2174   2165     1   112.4800480 524.673600
   1069   2203   2194     1   112.4800480 524.673600
   1073   1074   1086     1   111.0400475 552.288000
   1073   1077   1089     1   111.0400475 552.288000
   1073   1080   1083     1   111.0400475 552.288000
   1074   1073   1077     1   112.3500484 533.878400
   1074   1073   1080     1   112.3500484 533.878400
   1074   1086   1098     1   111.5100476 526.347200
   1077   1073   1080     1   112.3500484 533.878400
   1077   1089   1095     1   111.5100476 526.347200
   1080   1083   1092     1   111.5100476 526.347200
   1083   1092   1101     1   107.9700462 569.024000
   1086   1098   2261     1   107.9700462 569.024000
   1089   1095   2232     1   107.9700462 569.024000
   1095   2232   2223     1   112.4800480 524.673600
   1098   2261   2252     1   112.4800480 524.673600
   1102   1103   1115     1   111.0400475 552.288000
   1102   1106   1118     1   111.0400475 552.288000
   1102   1109   1112     1   111.0400475 552.288000
   1103   1102   1106     1   112.3500484 533.878400
   1103   1102   1109     1   112.3500484 533.878400
   1103   1115   1127     1   111.5100476 526.347200
   1106   1102   1109     1   112.3500484 533.878400
   1106   1118   1124     1   111.5100476 526.347200
   1109   1112   1121     1   111.5100476 526.347200
   1112   1121   1130     1   107.9700462 569.024000
   1115   1127   2319     1   107.9700462 569.024000
   1118   1124   2290     1   107.9700462 569.024000
   1124   2290   2281     1   112.4800480 524.673600
   1127   2319   2310     1   112.4800480 524.673600
   1131   1132   1144     1   111.0400475 552.288000
   1131   1135   1147     1   111.0400475 552.288000
   1131   1138   1141     1   111.0400475 552.288000
   1132   1131   1135     1   112.3500484 533.878400
   1132   1131   1138     1   112.3500484 533.878400
   1132   1144   1156     1   111.5100476 526.347200
   1135   1131   1138     1   112.3500484 533.878400
   1135   1147   1153     1   111.5100476 526.347200
   1138   1141   1150     1   111.5100476 526.347200
   1141   1150   1159     1   107.9700462 569.024000
   1144   1156   2377     1   107.9700462 569.024000
   1147   1153   2348     1   107.9700462 569.024000
   1153   2348   2339     1   112.4800480 524.673600
   1156   2377   2368     1   112.4800480 524.673600
   1160   1161   1173     1   111.0400475 552.288000
   1160   1164   1176     1   111.0400475 552.288000
   1160   1167   1170     1   111.0400475 552.288000
   1161   1160   1164     1   112.3500484 533.878400
   1161   1160   1167     1   112.3500484 533.878400
   1161   1173   1185     1   111.5100476 526.347200
   1164   1160   1167     1   112.3500484 533.878400
   1164   1176   1182     1   111.5100476 526.347200
   1167   1170   1179     1   111.5100476 526.347200
   1170   1179   1188     1   107.9700462 569.024000
   1173   1185   2435     1   107.9700462 569.024000
   1176   1182   2406     1   107.9700462 569.024000
   1182   2406   2397     1   112.4800480 524.673600
   1185   2435   2426     1   112.4800480 524.673600
   1189   1190   1202     1   111.0400475 552.288000
   1189   1193   1205     1   111.0400475 552.288000
   1189   1196   1199     1   111.0400475 552.288000
   1190   1189   1193     1   112.3500484 533.878400
   1190   1189   1196     1   112.3500484 533.878400
   1190   1202   1214     1   111.5100476 526.347200
   1193   1189   1196     1   112.3500484 533.878400
   1193   1205   1211     1   111.5100476 526.347200
   1196   1199   1208     1   111.5100476 526.347200
   1199   1208   1217     1   107.9700462 569.024000
   1202   1214   2493     1   107.9700462 569.024000
   1205   1211   2464     1   107.9700462 569.024000
   1211   2464   2455     1   112.4800480 524.673600
   1214   2493   2484     1   112.4800480 524.673600
   1218   1219   1231     1   111.0400475 552.288000
   1218   1222   1234     1   111.0400475 552.288000
   1218   1225   1228     1   111.0400475 552.288000
   1219   1218   1222     1   112.3500484 533.878400
   1219   1218   1225     1   112.3500484 533.878400
   1219   1231   1243     1   111.5100476 526.347200
   1222   1218   1225     1   112.3500484 533.878400
   1222   1234   1240     1   111.5100476 526.347200
   1225   1228   1237     1   111.5100476 526.347200
   1228   1237   1246     1   107.9700462 569.024000
   1231   1243   2551     1   107.9700462 569.024000
   1234   1240   2522     1   107.9700462 569.024000
   1240   2522   2513     1   112.4800480 524.673600
   1243   2551   2542     1   112.4800480 524.673600
   1247   1248   1260     1   111.0400475 552.288000
   1247   1251   1263     1   111.0400475 552.288000
   1247   1254   1257     1   111.0400475 552.288000
   1248   1247   1251     1   112.3500484 533.878400
   1248   1247   1254     1   112.3500484 533.878400
   1248   1260   1272     1   111.5100476 526.347200
   1251   1247   1254     1   112.3500484 533.878400
   1251   1263   1269     1   111.5100476 526.347200
   1254   1257   1266     1   111.5100476 526.347200
   1257   1266   1275     1   107.9700462 569.024000
   1260   1272   2609     1   107.9700462 569.024000
   1263   1269   2580     1   107.9700462 569.024000
   1269   2580   2571     1   112.4800480 524.673600
   1272   2609   2600     1   112.4800480 524.673600
   1276   1277   1289     1   111.0400475 552.288000
   1276   1280   1292     1   111.0400475 552.288000
   1276   1283   1286     1   111.0400475 552.288000
   1277   1276   1280     1   112.3500484 533.878400
   1277   1276   1283     1   112.3500484 533.878400
   1277   1289   1301     1   111.5100476 526.347200
   1280   1276   1283     1   112.3500484 533.878400
   1280   1292   1298     1   111.5100476 526.347200
   1283   1286   1295     1   111.5100476 526.347200
   1286   1295   1304     1   107.9700462 569.024000
   1289   1301   2667     1   107.9700462 569.024000
   1292   1298   2638     1   107.9700462 569.024000
   1298   2638   2629     1   112.4800480 524.673600
   1301   2667   2658     1   112.4800480 524.673600
   1305   1306   1318     1   111.0400475 552.288000
   1305   1309   1321     1   111.0400475 552.288000
   1305   1312   1315     1   111.0400475 552.288000
   1306   1305   1309     1   112.3500484 533.878400
   1306   1305   1312     1   112.3500484 533.878400
   1306   1318   1330     1   111.5100476 526.347200
   1309   1305   1312     1   112.3500484 533.878400
   1309   1321   1327     1   111.5100476 526.347200
   1312   1315   1324     1   111.5100476 526.347200
   1315   1324   1333     1   107.9700462 569.024000
   1318   1330   2725     1   107.9700462 569.024000
   1321   1327   2696     1   107.9700462 569.024000
   1327   2696   2687     1   112.4800480 524.673600
   1330   2725   2716     1   112.4800480 524.673600
   1334   1335   1347     1   111.0400475 552.288000
   1334   1338   1350     1   111.0400475 552.288000
   1334   1341   1344     1   111.0400475 552.288000
   1335   1334   1338     1   112.3500484 533.878400
   1335   1334   1341     1   112.3500484 533.878400
   1335   1347   1359     1   111.5100476 526.347200
   1338   1334   1341     1   112.3500484 533.878400
   1338   1350   1356     1   111.5100476 526.347200
   1341   1344   1353     1   111.5100476 526.347200
   1344   1353   1362     1   107.9700462 569.024000
   1347   1359   2783     1   107.9700462 569.024000
   1350   1356   2754     1   107.9700462 569.024000
   1356   2754   2745     1   112.4800480 524.673600
   1359   2783   2774     1   112.4800480 524.673600
   1363   1364   1376     1   111.0400475 552.288000
   1363   1367   1379     1   111.0400475 552.288000
   1363   1370   1373     1   111.0400475 552.288000
   1364   1363   1367     1   112.3500484 533.878400
   1364   1363   1370     1   112.3500484 533.878400
   1364   1376   1388     1   111.5100476 526.347200
   1367   1363   1370     1   112.3500484 533.878400
   1367   1379   1385     1   111.5100476 526.347200
   1370   1373   1382     1   111.5100476 526.347200
   1373   1382   1391     1   107.9700462 569.024000
   1376   1388   2841     1   107.9700462 569.024000
   1379   1385   2812     1   107.9700462 569.024000
   1385   2812   2803     1   112.4800480 524.673600
   1388   2841   2832     1   112.4800480 524.673600
   1392   1393   1405     1   111.0400475 552.288000
   1392   1396   1408     1   111.0400475 552.288000
   1392   1399   1402     1   111.0400475 552.288000
   1393   1392   1396     1   112.3500484 533.878400
   1393   1392   1399     1   112.3500484 533.878400
   1393   1405   1417     1   111.5100476 526.347200
   1396   1392   1399     1   112.3500484 533.878400
   1396   1408   1414     1   111.5100476 526.347200
   1399   1402   1411     1   111.5100476 526.347200
   1402   1411   1420     1   107.9700462 569.024000
   1405   1417   2899     1   107.9700462 569.024000
   1408   1414   2870     1   107.9700462 569.024000
   1414   2870   2861     1   112.4800480 524.673600
   1417   2899   2890     1   112.4800480 524.673600
   1421   1422   1434     1   111.0400475 552.288000
   1421   1425   1437     1   111.0400475 552.288000
   1421   1428   1431     1   111.0400475 552.288000
   1422   1421   1425     1   112.3500484 533.878400
   1422   1421   1428     1   112.3500484 533.878400
   1422   1434   1446     1   111.5100476 526.347200
   1425   1421   1428     1   112.3500484 533.878400
   1425   1437   1443     1   111.5100476 526.347200
   1428   1431   1440     1   111.5100476 526.347200
   1431   1440   1449     1   107.9700462 569.024000
   1434   1446   2957     1   107.9700462 569.024000
   1437   1443   2928     1   107.9700462 569.024000
   1443   2928   2919     1   112.4800480 524.673600
   1446   2957   2948     1   112.4800480 524.673600
   1450   1451   1463     1   111.0400475 552.288000
   1450   1454   1466     1   111.0400475 552.288000
   1450   1457   1460     1   111.0400475 552.288000
   1451   1450   1454     1   112.3500484 533.878400
   1451   1450   1457     1   112.3500484 533.878400
   1451   1463   1475     1   111.5100476 526.347200
   1454   1450   1457     1   112.3500484 533.878400
   1454   1466   1472     1   111.5100476 526.347200
   1457   1460   1469     1   111.5100476 526.347200
   1460   1469   1478     1   107.9700462 569.024000
   1463   1475   3015     1   107.9700462 569.024000
   1466   1472   2986     1   107.9700462 569.024000
   1472   2986   2977     1   112.4800480 524.673600
   1475   3015   3006     1   112.4800480 524.673600
   1479   1480   1492     1   111.0400475 552.288000
   1479   1483   1495     1   111.0400475 552.288000
   1479   1486   1489     1   111.0400475 552.288000
   1480   1479   1483     1   112.3500484 533.878400
   1480   1479   1486     1   112.3500484 533.878400
   1480   1492   1504     1   111.5100476 526.347200
   1483   1479   1486     1   112.3500484 533.878400
   1483   1495   1501     1   111.5100476 526.347200
   1486   1489   1498     1   111.5100476 526.347200
   1489   1498   1507     1   107.9700462 569.024000
   1492   1504   3073     1   107.9700462 569.024000
   1495   1501   3044     1   107.9700462 569.024000
   1501   3044   3035     1   112.4800480 524.673600
   1504   3073   3064     1   112.4800480 524.673600
   1508   1509   1521     1   111.0400475 552.288000
   1508   1512   1524     1   111.0400475 552.288000
   1508   1515   1518     1   111.0400475 552.288000
   1509   1508   1512     1   112.3500484 533.878400
   1509   1508   1515     1   112.3500484 533.878400
   1509   1521   1533     1   111.5100476 526.347200
   1512   1508   1515     1   112.3500484 533.878400
   1512   1524   1530     1   111.5100476 526.347200
   1515   1518   1527     1   111.5100476 526.347200
   1518   1527   1536     1   107.9700462 569.024000
   1521   1533   3131     1   107.9700462 569.024000
   1524   1530   3102     1   107.9700462 569.024000
   1530   3102   3093     1   112.4800480 524.673600
   1533   3131   3122     1   112.4800480 524.673600
   1537   1538   1550     1   111.0400475 552.288000
   1537   1541   1553     1   111.0400475 552.288000
   1537   1544   1547     1   111.0400475 552.288000
   1538   1537   1541     1   112.3500484 533.878400
   1538   1537   1544     1   112.3500484 533.878400
   1538   1550   1562     1   111.5100476 526.347200
   1541   1537   1544     1   112.3500484 533.878400
   1541   1553   1559     1   111.5100476 526.347200
   1544   1547   1556     1   111.5100476 526.347200
   1547   1556   1565     1   107.9700462 569.024000
   1550   1562   3189     1   107.9700462 569.024000
   1553   1559   3160     1   107.9700462 569.024000
   1559   3160   3151     1   112.4800480 524.673600
   1562   3189   3180     1   112.4800480 524.673600
   1566   1567   1579     1   111.0400475 552.288000
   1566   1570   1582     1   111.0400475 552.288000
   1566   1573   1576     1   111.0400475 552.288000
   1567   1566   1570     1   112.3500484 533.878400
   1567   1566   1573     1   112.3500484 533.878400
   1567   1579   1591     1   111.5100476 526.347200
   1570   1566   1573     1   112.3500484 533.878400
   1570   1582   1588     1   111.5100476 526.347200
   1573   1576   1585     1   111.5100476 526.347200
   1576   1585   1594     1   107.9700462 569.024000
   1579   1591   3247     1   107.9700462 569.024000
   1582   1588   3218     1   107.9700462 569.024000
   1588   3218   3209     1   112.4800480 524.673600
   1591   3247   3238     1   112.4800480 524.673600
   1595   1596   1608     1   111.0400475 552.288000
   1595   1599   1611     1   111.0400475 552.288000
   1595   1602   1605     1   111.0400475 552.288000
   1596   1595   1599     1   112.3500484 533.878400
   1596   1595   1602     1   112.3500484 533.878400
   1596   1608   1620     1   111.5100476 526.347200
   1599   1595   1602     1   112.3500484 533.878400
   1599   1611   1617     1   111.5100476 526.347200
   1602   1605   1614     1   111.5100476 526.347200
   1605   1614   1623     1   107.9700462 569.024000
   1608   1620   3305     1   107.9700462 569.024000
   1611   1617   3276     1   107.9700462 569.024000
   1617   3276   3267     1   112.4800480 524.673600
   1620   3305   3296     1   112.4800480 524.673600
   1624   1625   1637     1   111.0400475 552.288000
   1624   1628   1640     1   111.0400475 552.288000
   1624   1631   1634     1   111.0400475 552.288000
   1625   1624   1628     1   112.3500484 533.878400
   1625   1624   1631     1   112.3500484 533.878400
   1625   1637   1649     1   111.5100476 526.347200
   1628   1624   1631     1   112.3500484 533.878400
   1628   1640   1646     1   111.5100476 526.347200
   1631   1634   1643     1   111.5100476 526.347200
   1634   1643   1652     1   107.9700462 569.024000
   1637   1649   3363     1   107.9700462 569.024000
   1640   1646   3334     1   107.9700462 569.024000
   1646   3334   3325     1   112.4800480 524.673600
   1649   3363   3354     1   112.4800480 524.673600
   1653   1654   1666     1   111.0400475 552.288000
   1653   1657   1669     1   111.0400475 552.288000
   1653   1660   1663     1   111.0400475 552.288000
   1654   1653   1657     1   112.3500484 533.878400
   1654   1653   1660     1   112.3500484 533.878400
   1654   1666   1678     1   111.5100476 526.347200
   1657   1653   1660     1   112.3500484 533.878400
   1657   1669   1675     1   111.5100476 526.347200
   1660   1663   1672     1   111.5100476 526.347200
   1663   1672   1681     1   107.9700462 569.024000
   1666   1678   3421     1   107.9700462 569.024000
   1669   1675   3392     1   107.9700462 569.024000
   1675   3392   3383     1   112.4800480 524.673600
   1678   3421   3412     1   112.4800480 524.673600
   1682   1683   1695     1   111.0400475 552.288000
   1682   1686   1698     1   111.0400475 552.288000
   1682   1689   1692     1   111.0400475 552.288000
   1683   1682   1686     1   112.3500484 533.878400
   1683   1682   1689     1   112.3500484 533.878400
   1683   1695   1707     1   111.5100476 526.347200
   1686   1682   1689     1   112.3500484 533.878400
   1686   1698   1704     1   111.5100476 526.347200
   1689   1692   1701     1   111.5100476 526.347200
   1692   1701   1710     1   107.9700462 569.024000
   1695   1707   3479     1   107.9700462 569.024000
   1698   1704   3450     1   107.9700462 569.024000
   1704   3450   3441     1   112.4800480 524.673600
   1707   3479   3470     1   112.4800480 524.673600
   1711   1712   1724     1   111.0400475 552.288000
   1711   1715   1727     1   111.0400475 552.288000
   1711   1718   1721     1   111.0400475 552.288000
   1712   1711   1715     1   112.3500484 533.878400
   1712   1711   1718     1   112.3500484 533.878400
   1712   1724   1736     1   111.5100476 526.347200
   1715   1711   1718     1   112.3500484 533.878400
   1715   1727   1733     1   111.5100476 526.347200
   1718   1721   1730     1   111.5100476 526.347200
   1721   1730   1739     1   107.9700462 569.024000
   1724   1736   3537     1   107.9700462 569.024000
   1727   1733   3508     1   107.9700462 569.024000
   1733   3508   3499     1   112.4800480 524.673600
   1736   3537   3528     1   112.4800480 524.673600
   1740   1741   1753     1   111.0400475 552.288000
   1740   1744   1756     1   111.0400475 552.288000
   1740   1747   1750     1   111.0400475 552.288000
   1741   1740   1744     1   112.3500484 533.878400
   1741   1740   1747     1   112.3500484 533.878400
   1741   1753   1765     1   111.5100476 526.347200
   1744   1740   1747     1   112.3500484 533.878400
   1744   1756   1762     1   111.5100476 526.347200
   1747   1750   1759     1   111.5100476 526.347200
   1750   1759   1768     1   107.9700462 569.024000
   1753   1765   3595     1   107.9700462 569.024000
   1756   1762   3566     1   107.9700462 569.024000
   1762   3566   3557     1   112.4800480 524.673600
   1765   3595   3586     1   112.4800480 524.673600
   1769   1770   1782     1   111.0400475 552.288000
   1769   1773   1785     1   111.0400475 552.288000
   1769   1776   1779     1   111.0400475 552.288000
   1770   1769   1773     1   112.3500484 533.878400
   1770   1769   1776     1   112.3500484 533.878400
   1770   1782   1794     1   111.5100476 526.347200
   1773   1769   1776     1   112.3500484 533.878400
   1773   1785   1791     1   111.5100476 526.347200
   1776   1779   1788     1   111.5100476 526.347200
   1779   1788   1797     1   107.9700462 569.024000
   1782   1794   3653     1   107.9700462 569.024000
   1785   1791   3624     1   107.9700462 569.024000
   1791   3624   3615     1   112.4800480 524.673600
   1794   3653   3644     1   112.4800480 524.673600
   1798   1799   1811     1   111.0400475 552.288000
   1798   1802   1814     1   111.0400475 552.288000
   1798   1805   1808     1   111.0400475 552.288000
   1799   1798   1802     1   112.3500484 533.878400
   1799   1798   1805     1   112.3500484 533.878400
   1799   1811   1823     1   111.5100476 526.347200
   1802   1798   1805     1   112.3500484 533.878400
   1802   1814   1820     1   111.5100476 526.347200
   1805   1808   1817     1   111.5100476 526.347200
   1808   1817   1826     1   107.9700462 569.024000
   1811   1823   3711     1   107.9700462 569.024000
   1814   1820   3682     1   107.9700462 569.024000
   1820   3682   3673     1   112.4800480 524.673600
   1823   3711   3702     1   112.4800480 524.673600
   1827   1828   1840     1   111.0400475 552.288000
   1827   1831   1843     1   111.0400475 552.288000
   1827   1834   1837     1   111.0400475 552.288000
   1828   1827   1831     1   112.3500484 533.878400
   1828   1827   1834     1   112.3500484 533.878400
   1828   1840   1852     1   111.5100476 526.347200
   1831   1827   1834     1   112.3500484 533.878400
   1831   1843   1849     1   111.5100476 526.347200
   1834   1837   1846     1   111.5100476 526.347200
   1837   1846   1855     1   107.9700462 569.024000
   1840   1852   3769     1   107.9700462 569.024000
   1843   1849   3740     1   107.9700462 569.024000
   1849   3740   3731     1   112.4800480 524.673600
   1852   3769   3760     1   112.4800480 524.673600
   1856   1857   1869     1   111.0400475 552.288000
   1856   1860   1872     1   111.0400475 552.288000
   1856   1863   1866     1   111.0400475 552.288000
   1857   1856   1860     1   112.3500484 533.878400
   1857   1856   1863     1   112.3500484 533.878400
   1857   1869   1881     1   111.5100476 526.347200
   1860   1856   1863     1   112.3500484 533.878400
   1860   1872   1878     1   111.5100476 526.347200
   1863   1866   1875     1   111.5100476 526.347200
   1866   1875   1884     1   107.9700462 569.024000
   1869   1881   3827     1   107.9700462 569.024000
   1872   1878   3798     1   107.9700462 569.024000
   1878   3798   3789     1   112.4800480 524.673600
   1881   3827   3818     1   112.4800480 524.673600
   1885   1886   1898     1   111.0400475 552.288000
   1885   1889   1901     1   111.0400475 552.288000
   1885   1892   1895     1   111.0400475 552.288000
   1886   1885   1889     1   112.3500484 533.878400
   1886   1885   1892     1   112.3500484 533.878400
   1886   1898   1910     1   111.5100476 526.347200
   1889   1885   1892     1   112.3500484 533.878400
   1889   1901   1907     1   111.5100476 526.347200
   1892   1895   1904     1   111.5100476 526.347200
   1895   1904   1913     1   107.9700462 569.024000
   1898   1910   3885     1   107.9700462 569.024000
   1901   1907   3856     1   107.9700462 569.024000
   1907   3856   3847     1   112.4800480 524.673600
   1910   3885   3876     1   112.4800480 524.673600
   1914   1915   1927     1   111.0400475 552.288000
   1914   1918   1930     1   111.0400475 552.288000
   1914   1921   1924     1   111.0400475 552.288000
   1915   1914   1918     1   112.3500484 533.878400
   1915   1914   1921     1   112.3500484 533.878400
   1915   1927   1939     1   111.5100476 526.347200
   1918   1914   1921     1   112.3500484 533.878400
   1918   1930   1936     1   111.5100476 526.347200
   1921   1924   1933     1   111.5100476 526.347200
   1924   1933   1942     1   107.9700462 569.024000
   1927   1939   3943     1   107.9700462 569.024000
   1930   1936   3914     1   107.9700462 569.024000
   1936   3914   3905     1   112.4800480 524.673600
   1939   3943   3934     1   112.4800480 524.673600
   1943   1944   1956     1   111.0400475 552.288000
   1943   1947   1959     1   111.0400475 552.288000
   1943   1950   1953     1   111.0400475 552.288000
   1944   1943   1947     1   112.3500484 533.878400
   1944   1943   1950     1   112.3500484 533.878400
   1944   1956   1968     1   111.5100476 526.347200
   1947   1943   1950     1   112.3500484 533.878400
   1947   1959   1965     1   111.5100476 526.347200
   1950   1953   1962     1   111.5100476 526.347200
   1953   1962   1971     1   107.9700462 569.024000
   1956   1968   4001     1   107.9700462 569.024000
   1959   1965   3972     1   107.9700462 569.024000
   1965   3972   3963     1   112.4800480 524.673600
   1968   4001   3992     1   112.4800480 524.673600
   1972   1973   1985     1   111.0400475 552.288000
   1972   1976   1988     1   111.0400475 552.288000
   1972   1979   1982     1   111.0400475 552.288000
   1973   1972   1976     1   112.3500484 533.878400
   1973   1972   1979     1   112.3500484 533.878400
   1973   1985   1997     1   111.5100476 526.347200
   1976   1972   1979     1   112.3500484 533.878400
   1976   1988   1994     1   111.5100476 526.347200
   1979   1982   1991     1   111.5100476 526.347200
   1982   1991   2000     1   107.9700462 569.024000
   1985   1997   4059     1   107.9700462 569.024000
   1988   1994   4030     1   107.9700462 569.024000
   1994   4030   4021     1   112.4800480 524.673600
   1997   4059   4050     1   112.4800480 524.673600
   2001   2002   2014     1   111.0400475 552.288000
   2001   2005   2017     1   111.0400475 552.288000
   2001   2008   2011     1   111.0400475 552.288000
   2002   2001   2005     1   112.3500484 533.878400
   2002   2001   2008     1   112.3500484 533.878400
   2002   2014   2026     1   111.5100476 526.347200
   2005   2001   2008     1   112.3500484 533.878400
   2005   2017   2023     1   111.5100476 526.347200
   2008   2011   2020     1   111.5100476 526.347200
   2011   2020   2029     1   107.9700462 569.024000
   2014   2026   4117     1   107.9700462 569.024000
   2017   2023   4088     1   107.9700462 569.024000
   2023   4088   4079     1   112.4800480 524.673600
   2026   4117   4108     1   112.4800480 524.673600
   2030   2031   2043     1   111.0400475 552.288000
   2030   2034   2046     1   111.0400475 552.288000
   2030   2037   2040     1   111.0400475 552.288000
   2031   2030   2034     1   112.3500484 533.878400
   2031   2030   2037     1   112.3500484 533.878400
   2031   2043   2055     1   111.5100476 526.347200
   2034   2030   2037     1   112.3500484 533.878400
   2034   2046   2052     1   111.5100476 526.347200
   2037   2040   2049     1   111.5100476 526.347200
   2040   2049   2058     1   107.9700462 569.024000
   2043   2055   4175     1   107.9700462 569.024000
   2046   2052   4146     1   107.9700462 569.024000
   2052   4146   4137     1   112.4800480 524.673600
   2055   4175   4166     1   112.4800480 524.673600
   2059   2060   2072     1   111.0400475 552.288000
   2059   2063   2075     1   111.0400475 552.288000
   2059   2066   2069     1   111.0400475 552.288000
   2060   2059   2063     1   112.3500484 533.878400
   2060   2059   2066     1   112.3500484 533.878400
   2060   2072   2084     1   111.5100476 526.347200
   2063   2059   2066     1   112.3500484 533.878400
   2063   2075   2081     1   111.5100476 526.347200
   2066   2069   2078     1   111.5100476 526.347200
   2069   2078   2087     1   107.9700462 569.024000
   2072   2084   4233     1   107.9700462 569.024000
   2075   2081   4204     1   107.9700462 569.024000
   2081   4204   4195     1   112.4800480 524.673600
   2084   4233   4224     1   112.4800480 524.673600
   2088   2089   2101     1   111.0400475 552.288000
   2088   2092   2104     1   111.0400475 552.288000
   2088   2095   2098     1   111.0400475 552.288000
   2089   2088   2092     1   112.3500484 533.878400
   2089   2088   2095     1   112.3500484 533.878400
   2089   2101   2113     1   111.5100476 526.347200
   2092   2088   2095     1   112.3500484 533.878400
   2092   2104   2110     1   111.5100476 526.347200
   2095   2098   2107     1   111.5100476 526.347200
   2098   2107   2116     1   107.9700462 569.024000
   2101   2113   4291     1   107.9700462 569.024000
   2104   2110   4262     1   107.9700462 569.024000
   2110   4262   4253     1   112.4800480 524.673600
   2113   4291   4282     1   112.4800480 524.673600
   2117   2118   2130     1   111.0400475 552.288000
   2117   2121   2133     1   111.0400475 552.288000
   2117   2124   2127     1   111.0400475 552.288000
   2118   2117   2121     1   112.3500484 533.878400
   2118   2117   2124     1   112.3500484 533.878400
   2118   2130   2142     1   111.5100476 526.347200
   2121   2117   2124     1   112.3500484 533.878400
   2121   2133   2139     1   111.5100476 526.347200
   2124   2127   2136     1   111.5100476 526.347200
   2127   2136   2145     1   107.9700462 569.024000
   2130   2142   4349     1   107.9700462 569.024000
   2133   2139   4320     1   107.9700462 569.024000
   2139   4320   4311     1   112.4800480 524.673600
   2142   4349   4340     1   112.4800480 524.673600
   2146   2147   2159     1   111.0400475 552.288000
   2146   2150   2162     1   111.0400475 552.288000
   2146   2153   2156     1   111.0400475 552.288000
   2147   2146   2150     1   112.3500484 533.878400
   2147   2146   2153     1   112.3500484 533.878400
   2147   2159   2171     1   111.5100476 526.347200
   2150   2146   2153     1   112.3500484 533.878400
   2150   2162   2168     1   111.5100476 526.347200
   2153   2156   2165     1   111.5100476 526.347200
   2156   2165   2174     1   107.9700462 569.024000
   2159   2171   4407     1   107.9700462 569.024000
   2162   2168   4378     1   107.9700462 569.024000
   2168   4378   4369     1   112.4800480 524.673600
   2171   4407   4398     1   112.4800480 524.673600
   2175   2176   2188     1   111.0400475 552.288000
   2175   2179   2191     1   111.0400475 552.288000
   2175   2182   2185     1   111.0400475 552.288000
   2176   2175   2179     1   112.3500484 533.878400
   2176   2175   2182     1   112.3500484 533.878400
   2176   2188   2200     1   111.5100476 526.347200
   2179   2175   2182     1   112.3500484 533.878400
   2179   2191   2197     1   111.5100476 526.347200
   2182   2185   2194     1   111.5100476 526.347200
   2185   2194   2203     1   107.9700462 569.024000
   2188   2200   4465     1   107.9700462 569.024000
   2191   2197   4436     1   107.9700462 569.024000
   2197   4436   4427     1   112.4800480 524.673600
   2200   4465   4456     1   112.4800480 524.673600
   2204   2205   2217     1   111.0400475 552.288000
   2204   2208   2220     1   111.0400475 552.288000
   2204   2211   2214     1   111.0400475 552.288000
   2205   2204   2208     1   112.3500484 533.878400
   2205   2204   2211     1   112.3500484 533.878400
   2205   2217   2229     1   111.5100476 526.347200
   2208   2204   2211     1   112.3500484 533.878400
   2208   2220   2226     1   111.5100476 526.347200
   2211   2214   2223     1   111.5100476 526.347200
   2214   2223   2232     1   107.9700462 569.024000
   2217   2229   4523     1   107.9700462 569.024000
   2220   2226   4494     1   107.9700462 569.024000
   2226   4494   4485     1   112.4800480 524.673600
   2229   4523   4514     1   112.4800480 524.673600
   2233   2234   2246     1   111.0400475 552.288000
   2233   2237   2249     1   111.0400475 552.288000
   2233   2240   2243     1   111.0400475 552.288000
   2234   2233   2237     1   112.3500484 533.878400
   2234   2233   2240     1   112.3500484 533.878400
   2234   2246   2258     1   111.5100476 526.347200
   2237   2233   2240     1   112.3500484 533.878400
   2237   2249   2255     1   111.5100476 526.347200
   2240   2243   2252     1   111.5100476 526.347200
   2243   2252   2261     1   107.9700462 569.024000
   2246   2258   4581     1   107.9700462 569.024000
   2249   2255   4552     1   107.9700462 569.024000
   2255   4552   4543     1   112.4800480 524.673600
   2258   4581   4572     1   112.4800480 524.673600
   2262   2263   2275     1   111.0400475 552.288000
   2262   2266   2278     1   111.0400475 552.288000
   2262   2269   2272     1   111.0400475 552.288000
   2263   2262   2266     1   112.3500484 533.878400
   2263   2262   2269     1   112.3500484 533.878400
   2263   2275   2287     1   111.5100476 526.347200
   2266   2262   2269     1   112.3500484 533.878400
   2266   2278   2284     1   111.5100476 526.347200
   2269   2272   2281     1   111.5100476 526.347200
   2272   2281   2290     1   107.9700462 569.024000
   2275   2287   4639     1   107.9700462 569.024000
   2278   2284   4610     1   107.9700462 569.024000
   2284   4610   4601     1   112.4800480 524.673600
   2287   4639   4630     1   112.4800480 524.673600
   2291   2292   2304     1   111.0400475 552.288000
   2291   2295   2307     1   111.0400475 552.288000
   2291   2298   2301     1   111.0400475 552.288000
   2292   2291   2295     1   112.3500484 533.878400
   2292   2291   2298     1   112.3500484 533.878400
   2292   2304   2316     1   111.5100476 526.347200
   2295   2291   2298     1   112.3500484 533.878400
   2295   2307   2313     1   111.5100476 526.347200
   2298   2301   2310     1   111.5100476 526.347200
   2301   2310   2319     1   107.9700462 569.024000
   2304   2316   4697     1   107.9700462 569.024000
   2307   2313   4668     1   107.9700462 569.024000
   2313   4668   4659     1   112.4800480 524.673600
   2316   4697   4688     1   112.4800480 524.673600
   2320   2321   2333     1   111.0400475 552.288000
   2320   2324   2336     1   111.0400475 552.288000
   2320   2327   2330     1   111.0400475 552.288000
   2321   2320   2324     1   112.3500484 533.878400
   2321   2320   2327     1   112.3500484 533.878400
   2321   2333   2345     1   111.5100476 526.347200
   2324   2320   2327     1   112.3500484 533.878400
   2324   2336   2342     1   111.5100476 526.347200
   2327   2330   2339     1   111.5100476 526.347200
   2330   2339   2348     1   107.9700462 569.024000
   2333   2345   4755     1   107.9700462 569.024000
   2336   2342   4726     1   107.9700462 569.024000
   2342   4726   4717     1   112.4800480 524.673600
   2345   4755   4746     1   112.4800480 524.673600
   2349   2350   2362     1   111.0400475 552.288000
   2349   2353   2365     1   111.0400475 552.288000
   2349   2356   2359     1   111.0400475 552.288000
   2350   2349   2353     1   112.3500484 533.878400
   2350   2349   2356     1   112.3500484 533.878400
   2350   2362   2374     1   111.5100476 526.347200
   2353   2349   2356     1   112.3500484 533.878400
   2353   2365   2371     1   111.5100476 526.347200
   2356   2359   2368     1   111.5100476 526.347200
   2359   2368   2377     1   107.9700462 569.024000
   2362   2374   4813     1   107.9700462 569.024000
   2365   2371   4784     1   107.9700462 569.024000
   2371   4784   4775     1   112.4800480 524.673600
   2374   4813   4804     1   112.4800480 524.673600
   2378   2379   2391     1   111.0400475 552.288000
   2378   2382   2394     1   111.0400475 552.288000
   2378   2385   2388     1   111.0400475 552.288000
   2379   2378   2382     1   112.3500484 533.878400
   2379   2378   2385     1   112.3500484 533.878400
   2379   2391   2403     1   111.5100476 526.347200
   2382   2378   2385     1   112.3500484 533.878400
   2382   2394   2400     1   111.5100476 526.347200
   2385   2388   2397     1   111.5100476 526.347200
   2388   2397   2406     1   107.9700462 569.024000
   2391   2403   4871     1   107.9700462 569.024000
   2394   2400   4842     1   107.9700462 569.024000
   2400   4842   4833     1   112.4800480 524.673600
   2403   4871   4862     1   112.4800480 524.673600
   2407   2408   2420     1   111.0400475 552.288000
   2407   2411   2423     1   111.0400475 552.288000
   2407   2414   2417     1   111.0400475 552.288000
   2408   2407   2411     1   112.3500484 533.878400
   2408   2407   2414     1   112.3500484 533.878400
   2408   2420   2432     1   111.5100476 526.347200
   2411   2407   2414     1   112.3500484 533.878400
   2411   2423   2429     1   111.5100476 526.347200
   2414   2417   2426     1   111.5100476 526.347200
   2417   2426   2435     1   107.9700462 569.024000
   2420   2432   4929     1   107.9700462 569.024000
   2423   2429   4900     1   107.9700462 569.024000
   2429   4900   4891     1   112.4800480 524.673600
   2432   4929   4920     1   112.4800480 524.673600
   2436   2437   2449     1   111.0400475 552.288000
   2436   2440   2452     1   111.0400475 552.288000
   2436   2443   2446     1   111.0400475 552.288000
   2437   2436   2440     1   112.3500484 533.878400
   2437   2436   2443     1   112.3500484 533.878400
   2437   2449   2461     1   111.5100476 526.347200
   2440   2436   2443     1   112.3500484 533.878400
   2440   2452   2458     1   111.5100476 526.347200
   2443   2446   2455     1   111.5100476 526.347200
   2446   2455   2464     1   107.9700462 569.024000
   2449   2461   4987     1   107.9700462 569.024000
   2452   2458   4958     1   107.9700462 569.024000
   2458   4958   4949     1   112.4800480 524.673600
   2461   4987   4978     1   112.4800480 524.673600
   2465   2466   2478     1   111.0400475 552.288000
   2465   2469   2481     1   111.0400475 552.288000
   2465   2472   2475     1   111.0400475 552.288000
   2466   2465   2469     1   112.3500484 533.878400
   2466   2465   2472     1   112.3500484 533.878400
   2466   2478   2490     1   111.5100476 526.347200
   2469   2465   2472     1   112.3500484 533.878400
   2469   2481   2487     1   111.5100476 526.347200
   2472   2475   2484     1   111.5100476 526.347200
   2475   2484   2493     1   107.9700462 569.024000
   2478   2490   5045     1   107.9700462 569.024000
   2481   2487   5016     1   107.9700462 569.024000
   2487   5016   5007     1   112.4800480 524.673600
   2490   5045   5036     1   112.4800480 524.673600
   2494   2495   2507     1   111.0400475 552.288000
   2494   2498   2510     1   111.0400475 552.288000
   2494   2501   2504     1   111.0400475 552.288000
   2495   2494   2498     1   112.3500484 533.878400
   2495   2494   2501     1   112.3500484 533.878400
   2495   2507   2519     1   111.5100476 526.347200
   2498   2494   2501     1   112.3500484 533.878400
   2498   2510   2516     1   111.5100476 526.347200
   2501   2504   2513     1   111.5100476 526.347200
   2504   2513   2522     1   107.9700462 569.024000
   2507   2519   5103     1   107.9700462 569.024000
   2510   2516   5074     1   107.9700462 569.024000
   2516   5074   5065     1   112.4800480 524.673600
   2519   5103   5094     1   112.4800480 524.673600
   2523   2524   2536     1   111.0400475 552.288000
   2523   2527   2539     1   111.0400475 552.288000
   2523   2530   2533     1   111.0400475 552.288000
   2524   2523   2527     1   112.3500484 533.878400
   2524   2523   2530     1   112.3500484 533.878400
   2524   2536   2548     1   111.5100476 526.347200
   2527   2523   2530     1   112.3500484 533.878400
   2527   2539   2545     1   111.5100476 526.347200
   2530   2533   2542     1   111.5100476 526.347200
   2533   2542   2551     1   107.9700462 569.024000
   2536   2548   5161     1   107.9700462 569.024000
   2539   2545   5132     1   107.9700462 569.024000
   2545   5132   5123     1   112.4800480 524.673600
   2548   5161   5152     1   112.4800480 524.673600
   2552   2553   2565     1   111.0400475 552.288000
   2552   2556   2568     1   111.0400475 552.288000
   2552   2559   2562     1   111.0400475 552.288000
   2553   2552   2556     1   112.3500484 533.878400
   2553   2552   2559     1   112.3500484 533.878400
   2553   2565   2577     1   111.5100476 526.347200
   2556   2552   2559     1   112.3500484 533.878400
   2556   2568   2574     1   111.5100476 526.347200
   2559   2562   2571     1   111.5100476 526.347200
   2562   2571   2580     1   107.9700462 569.024000
   2565   2577   5219     1   107.9700462 569.024000
   2568   2574   5190     1   107.9700462 569.024000
   2574   5190   5181     1   112.4800480 524.673600
   2577   5219   5210     1   112.4800480 524.673600
   2581   2582   2594     1   111.0400475 552.288000
   2581   2585   2597     1   111.0400475 552.288000
   2581   2588   2591     1   111.0400475 552.288000
   2582   2581   2585     1   112.3500484 533.878400
   2582   2581   2588     1   112.3500484 533.878400
   2582   2594   2606     1   111.5100476 526.347200
   2585   2581   2588     1   112.3500484 533.878400
   2585   2597   2603     1   111.5100476 526.347200
   2588   2591   2600     1   111.5100476 526.347200
   2591   2600   2609     1   107.9700462 569.024000
   2594   2606   5277     1   107.9700462 569.024000
   2597   2603   5248     1   107.9700462 569.024000
   2603   5248   5239     1   112.4800480 524.673600
   2606   5277   5268     1   112.4800480 524.673600
   2610   2611   2623     1   111.0400475 552.288000
   2610   2614   2626     1   111.0400475 552.288000
   2610   2617   2620     1   111.0400475 552.288000
   2611   2610   2614     1   112.3500484 533.878400
   2611   2610   2617     1   112.3500484 533.878400
   2611   2623   2635     1   111.5100476 526.347200
   2614   2610   2617     1   112.3500484 533.878400
   2614   2626   2632     1   111.5100476 526.347200
   2617   2620   2629     1   111.5100476 526.347200
   2620   2629   2638     1   107.9700462 569.024000
   2623   2635   5335     1   107.9700462 569.024000
   2626   2632   5306     1   107.9700462 569.024000
   2632   5306   5297     1   112.4800480 524.673600
   2635   5335   5326     1   112.4800480 524.673600
   2639   2640   2652     1   111.0400475 552.288000
   2639   2643   2655     1   111.0400475 552.288000
   2639   2646   2649     1   111.0400475 552.288000
   2640   2639   2643     1   112.3500484 533.878400
   2640   2639   2646     1   112.3500484 533.878400
   2640   2652   2664     1   111.5100476 526.347200
   2643   2639   2646     1   112.3500484 533.878400
   2643   2655   2661     1   111.5100476 526.347200
   2646   2649   2658     1   111.5100476 526.347200
   2649   2658   2667     1   107.9700462 569.024000
   2652   2664   5393     1   107.9700462 569.024000
   2655   2661   5364     1   107.9700462 569.024000
   2661   5364   5355     1   112.4800480 524.673600
   2664   5393   5384     1   112.4800480 524.673600
   2668   2669   2681     1   111.0400475 552.288000
   2668   2672   2684     1   111.0400475 552.288000
   2668   2675   2678     1   111.0400475 552.288000
   2669   2668   2672     1   112.3500484 533.878400
   2669   2668   2675     1   112.3500484 533.878400
   2669   2681   2693     1   111.5100476 526.347200
   2672   2668   2675     1   112.3500484 533.878400
   2672   2684   2690     1   111.5100476 526.347200
   2675   2678   2687     1   111.5100476 526.347200
   2678   2687   2696     1   107.9700462 569.024000
   2681   2693   5451     1   107.9700462 569.024000
   2684   2690   5422     1   107.9700462 569.024000
   2690   5422   5413     1   112.4800480 524.673600
   2693   5451   5442     1   112.4800480 524.673600
   2697   2698   2710     1   111.0400475 552.288000
   2697   2701   2713     1   111.0400475 552.288000
   2697   2704   2707     1   111.0400475 552.288000
   2698   2697   2701     1   112.3500484 533.878400
   2698   2697   2704     1   112.3500484 533.878400
   2698   2710   2722     1   111.5100476 526.347200
   2701   2697   2704     1   112.3500484 533.878400
   2701   2713   2719     1   111.5100476 526.347200
   2704   2707   2716     1   111.5100476 526.347200
   2707   2716   2725     1   107.9700462 569.024000
   2710   2722   5509     1   107.9700462 569.024000
   2713   2719   5480     1   107.9700462 569.024000
   2719   5480   5471     1   112.4800480 524.673600
   2722   5509   5500     1   112.4800480 524.673600
   2726   2727   2739     1   111.0400475 552.288000
   2726   2730   2742     1   111.0400475 552.288000
   2726   2733   2736     1   111.0400475 552.288000
   2727   2726   2730     1   112.3500484 533.878400
   2727   2726   2733     1   112.3500484 533.878400
   2727   2739   2751     1   111.5100476 526.347200
   2730   2726   2733     1   112.3500484 533.878400
   2730   2742   2748     1   111.5100476 526.347200
   2733   2736   2745     1   111.5100476 526.347200
   2736   2745   2754     1   107.9700462 569.024000
   2739   2751   5567     1   107.9700462 569.024000
   2742   2748   5538     1   107.9700462 569.024000
   2748   5538   5529     1   112.4800480 524.673600
   2751   5567   5558     1   112.4800480 524.673600
   2755   2756   2768     1   111.0400475 552.288000
   2755   2759   2771     1   111.0400475 552.288000
   2755   2762   2765     1   111.0400475 552.288000
   2756   2755   2759     1   112.3500484 533.878400
   2756   2755   2762     1   112.3500484 533.878400
   2756   2768   2780     1   111.5100476 526.347200
   2759   2755   2762     1   112.3500484 533.878400
   2759   2771   2777     1   111.5100476 526.347200
   2762   2765   2774     1   111.5100476 526.347200
   2765   2774   2783     1   107.9700462 569.024000
   2768   2780   5625     1   107.9700462 569.024000
   2771   2777   5596     1   107.9700462 569.024000
   2777   5596   5587     1   112.4800480 524.673600
   2780   5625   5616     1   112.4800480 524.673600
   2784   2785   2797     1   111.0400475 552.288000
   2784   2788   2800     1   111.0400475 552.288000
   2784   2791   2794     1   111.0400475 552.288000
   2785   2784   2788     1   112.3500484 533.878400
   2785   2784   2791     1   112.3500484 533.878400
   2785   2797   2809     1   111.5100476 526.347200
   2788   2784   2791     1   112.3500484 533.878400
   2788   2800   2806     1   111.5100476 526.347200
   2791   2794   2803     1   111.5100476 526.347200
   2794   2803   2812     1   107.9700462 569.024000
   2797   2809   5683     1   107.9700462 569.024000
   2800   2806   5654     1   107.9700462 569.024000
   2806   5654   5645     1   112.4800480 524.673600
   2809   5683   5674     1   112.4800480 524.673600
   2813   2814   2826     1   111.0400475 552.288000
   2813   2817   2829     1   111.0400475 552.288000
   2813   2820   2823     1   111.0400475 552.288000
   2814   2813   2817     1   112.3500484 533.878400
   2814   2813   2820     1   112.3500484 533.878400
   2814   2826   2838     1   111.5100476 526.347200
   2817   2813   2820     1   112.3500484 533.878400
   2817   2829   2835     1   111.5100476 526.347200
   2820   2823   2832     1   111.5100476 526.347200
   2823   2832   2841     1   107.9700462 569.024000
   2826   2838   5741     1   107.9700462 569.024000
   2829   2835   5712     1   107.9700462 569.024000
   2835   5712   5703     1   112.4800480 524.673600
   2838   5741   5732     1   112.4800480 524.673600
   2842   2843   2855     1   111.0400475 552.288000
   2842   2846   2858     1   111.0400475 552.288000
   2842   2849   2852     1   111.0400475 552.288000
   2843   2842   2846     1   112.3500484 533.878400
   2843   2842   2849     1   112.3500484 533.878400
   2843   2855   2867     1   111.5100476 526.347200
   2846   2842   2849     1   112.3500484 533.878400
   2846   2858   2864     1   111.5100476 526.347200
   2849   2852   2861     1   111.5100476 526.347200
   2852   2861   2870     1   107.9700462 569.024000
   2855   2867   5799     1   107.9700462 569.024000
   2858   2864   5770     1   107.9700462 569.024000
   2864   5770   5761     1   112.4800480 524.673600
   2867   5799   5790     1   112.4800480 524.673600
   2871   2872   2884     1   111.0400475 552.288000
   2871   2875   2887     1   111.0400475 552.288000
   2871   2878   2881     1   111.0400475 552.288000
   2872   2871   2875     1   112.3500484 533.878400
   2872   2871   2878     1   112.3500484 533.878400
   2872   2884   2896     1   111.5100476 526.347200
   2875   2871   2878     1   112.3500484 533.878400
   2875   2887   2893     1   111.5100476 526.347200
   2878   2881   2890     1   111.5100476 526.347200
   2881   2890   2899     1   107.9700462 569.024000
   2884   2896   5857     1   107.9700462 569.024000
   2887   2893   5828     1   107.9700462 569.024000
   2893   5828   5819     1   112.4800480 524.673600
   2896   5857   5848     1   112.4800480 524.673600
   2900   2901   2913     1   111.0400475 552.288000
   2900   2904   2916     1   111.0400475 552.288000
   2900   2907   2910     1   111.0400475 552.288000
   2901   2900   2904     1   112.3500484 533.878400
   2901   2900   2907     1   112.3500484 533.878400
   2901   2913   2925     1   111.5100476 526.347200
   2904   2900   2907     1   112.3500484 533.878400
   2904   2916   2922     1   111.5100476 526.347200
   2907   2910   2919     1   111.5100476 526.347200
   2910   2919   2928     1   107.9700462 569.024000
   2913   2925   5915     1   107.9700462 569.024000
   2916   2922   5886     1   107.9700462 569.024000
   2922   5886   5877     1   112.4800480 524.673600
   2925   5915   5906     1   112.4800480 524.673600
   2929   2930   2942     1   111.0400475 552.288000
   2929   2933   2945     1   111.0400475 552.288000
   2929   2936   2939     1   111.0400475 552.288000
   2930   2929   2933     1   112.3500484 533.878400
   2930   2929   2936     1   112.3500484 533.878400
   2930   2942   2954     1   111.5100476 526.347200
   2933   2929   2936     1   112.3500484 533.878400
   2933   2945   2951     1   111.5100476 526.347200
   2936   2939   2948     1   111.5100476 526.347200
   2939   2948   2957     1   107.9700462 569.024000
   2942   2954   5973     1   107.9700462 569.024000
   2945   2951   5944     1   107.9700462 569.024000
   2951   5944   5935     1   112.4800480 524.673600
   2954   5973   5964     1   112.4800480 524.673600
   2958   2959   2971     1   111.0400475 552.288000
   2958   2962   2974     1   111.0400475 552.288000
   2958   2965   2968     1   111.0400475 552.288000
   2959   2958   2962     1   112.3500484 533.878400
   2959   2958   2965     1   112.3500484 533.878400
   2959   2971   2983     1   111.5100476 526.347200
   2962   2958   2965     1   112.3500484 533.878400
   2962   2974   2980     1   111.5100476 526.347200
   2965   2968   2977     1   111.5100476 526.347200
   2968   2977   2986     1   107.9700462 569.024000
   2971   2983   6031     1   107.9700462 569.024000
   2974   2980   6002     1   107.9700462 569.024000
   2980   6002   5993     1   112.4800480 524.673600
   2983   6031   6022     1   112.4800480 524.673600
   2987   2988   3000     1   111.0400475 552.288000
   2987   2991   3003     1   111.0400475 552.288000
   2987   2994   2997     1   111.0400475 552.288000
   2988   2987   2991     1   112.3500484 533.878400
   2988   2987   2994     1   112.3500484 533.878400
   2988   3000   3012     1   111.5100476 526.347200
   2991   2987   2994     1   112.3500484 533.878400
   2991   3003   3009     1   111.5100476 526.347200
   2994   2997   3006     1   111.5100476 526.347200
   2997   3006   3015     1   107.9700462 569.024000
   3000   3012   6089     1   107.9700462 569.024000
   3003   3009   6060     1   107.9700462 569.024000
   3009   6060   6051     1   112.4800480 524.673600
   3012   6089   6080     1   112.4800480 524.673600
   3016   3017   3029     1   111.0400475 552.288000
   3016   3020   3032     1   111.0400475 552.288000
   3016   3023   3026     1   111.0400475 552.288000
   3017   3016   3020     1   112.3500484 533.878400
   3017   3016   3023     1   112.3500484 533.878400
   3017   3029   3041     1   111.5100476 526.347200
   3020   3016   3023     1   112.3500484 533.878400
   3020   3032   3038     1   111.5100476 526.347200
   3023   3026   3035     1   111.5100476 526.347200
   3026   3035   3044     1   107.9700462 569.024000
   3029   3041   6147     1   107.9700462 569.024000
   3032   3038   6118     1   107.9700462 569.024000
   3038   6118   6109     1   112.4800480 524.673600
   3041   6147   6138     1   112.4800480 524.673600
   3045   3046   3058     1   111.0400475 552.288000
   3045   3049   3061     1   111.0400475 552.288000
   3045   3052   3055     1   111.0400475 552.288000
   3046   3045   3049     1   112.3500484 533.878400
   3046   3045   3052     1   112.3500484 533.878400
   3046   3058   3070     1   111.5100476 526.347200
   3049   3045   3052     1   112.3500484 533.878400
   3049   3061   3067     1   111.5100476 526.347200
   3052   3055   3064     1   111.5100476 526.347200
   3055   3064   3073     1   107.9700462 569.024000
   3058   3070   6205     1   107.9700462 569.024000
   3061   3067   6176     1   107.9700462 569.024000
   3067   6176   6167     1   112.4800480 524.673600
   3070   6205   6196     1   112.4800480 524.673600
   3074   3075   3087     1   111.0400475 552.288000
   3074   3078   3090     1   111.0400475 552.288000
   3074   3081   3084     1   111.0400475 552.288000
   3075   3074   3078     1   112.3500484 533.878400
   3075   3074   3081     1   112.3500484 533.878400
   3075   3087   3099     1   111.5100476 526.347200
   3078   3074   3081     1   112.3500484 533.878400
   3078   3090   3096     1   111.5100476 526.347200
   3081   3084   3093     1   111.5100476 526.347200
   3084   3093   3102     1   107.9700462 569.024000
   3087   3099   6263     1   107.9700462 569.024000
   3090   3096   6234     1   107.9700462 569.024000
   3096   6234   6225     1   112.4800480 524.673600
   3099   6263   6254     1   112.4800480 524.673600
   3103   3104   3116     1   111.0400475 552.288000
   3103   3107   3119     1   111.0400475 552.288000
   3103   3110   3113     1   111.0400475 552.288000
   3104   3103   3107     1   112.3500484 533.878400
   3104   3103   3110     1   112.3500484 533.878400
   3104   3116   3128     1   111.5100476 526.347200
   3107   3103   3110     1   112.3500484 533.878400
   3107   3119   3125     1   111.5100476 526.347200
   3110   3113   3122     1   111.5100476 526.347200
   3113   3122   3131     1   107.9700462 569.024000
   3116   3128   6321     1   107.9700462 569.024000
   3119   3125   6292     1   107.9700462 569.024000
   3125   6292   6283     1   112.4800480 524.673600
   3128   6321   6312     1   112.4800480 524.673600
   3132   3133   3145     1   111.0400475 552.288000
   3132   3136   3148     1   111.0400475 552.288000
   3132   3139   3142     1   111.0400475 552.288000
   3133   3132   3136     1   112.3500484 533.878400
   3133   3132   3139     1   112.3500484 533.878400
   3133   3145   3157     1   111.5100476 526.347200
   3136   3132   3139     1   112.3500484 533.878400
   3136   3148   3154     1   111.5100476 526.347200
   3139   3142   3151     1   111.5100476 526.347200
   3142   3151   3160     1   107.9700462 569.024000
   3145   3157   6379     1   107.9700462 569.024000
   3148   3154   6350     1   107.9700462 569.024000
   3154   6350   6341     1   112.4800480 524.673600
   3157   6379   6370     1   112.4800480 524.673600
   3161   3162   3174     1   111.0400475 552.288000
   3161   3165   3177     1   111.0400475 552.288000
   3161   3168   3171     1   111.0400475 552.288000
   3162   3161   3165     1   112.3500484 533.878400
   3162   3161   3168     1   112.3500484 533.878400
   3162   3174   3186     1   111.5100476 526.347200
   3165   3161   3168     1   112.3500484 533.878400
   3165   3177   3183     1   111.5100476 526.347200
   3168   3171   3180     1   111.5100476 526.347200
   3171   3180   3189     1   107.9700462 569.024000
   3174   3186   6437     1   107.9700462 569.024000
   3177   3183   6408     1   107.9700462 569.024000
   3183   6408   6399     1   112.4800480 524.673600
   3186   6437   6428     1   112.4800480 524.673600
   3190   3191   3203     1   111.0400475 552.288000
   3190   3194   3206     1   111.0400475 552.288000
   3190   3197   3200     1   111.0400475 552.288000
   3191   3190   3194     1   112.3500484 533.878400
   3191   3190   3197     1   112.3500484 533.878400
   3191   3203   3215     1   111.5100476 526.347200
   3194   3190   3197     1   112.3500484 533.878400
   3194   3206   3212     1   111.5100476 526.347200
   3197   3200   3209     1   111.5100476 526.347200
   3200   3209   3218     1   107.9700462 569.024000
   3203   3215   6495     1   107.9700462 569.024000
   3206   3212   6466     1   107.9700462 569.024000
   3212   6466   6457     1   112.4800480 524.673600
   3215   6495   6486     1   112.4800480 524.673600
   3219   3220   3232     1   111.0400475 552.288000
   3219   3223   3235     1   111.0400475 552.288000
   3219   3226   3229     1   111.0400475 552.288000
   3220   3219   3223     1   112.3500484 533.878400
   3220   3219   3226     1   112.3500484 533.878400
   3220   3232   3244     1   111.5100476 526.347200
   3223   3219   3226     1   112.3500484 533.878400
   3223   3235   3241     1   111.5100476 526.347200
   3226   3229   3238     1   111.5100476 526.347200
   3229   3238   3247     1   107.9700462 569.024000
   3232   3244   6553     1   107.9700462 569.024000
   3235   3241   6524     1   107.9700462 569.024000
   3241   6524   6515     1   112.4800480 524.673600
   3244   6553   6544     1   112.4800480 524.673600
   3248   3249   3261     1   111.0400475 552.288000
   3248   3252   3264     1   111.0400475 552.288000
   3248   3255   3258     1   111.0400475 552.288000
   3249   3248   3252     1   112.3500484 533.878400
   3249   3248   3255     1   112.3500484 533.878400
   3249   3261   3273     1   111.5100476 526.347200
   3252   3248   3255     1   112.3500484 533.878400
   3252   3264   3270     1   111.5100476 526.347200
   3255   3258   3267     1   111.5100476 526.347200
   3258   3267   3276     1   107.9700462 569.024000
   3261   3273   6611     1   107.9700462 569.024000
   3264   3270   6582     1   107.9700462 569.024000
   3270   6582   6573     1   112.4800480 524.673600
   3273   6611   6602     1   112.4800480 524.673600
   3277   3278   3290     1   111.0400475 552.288000
   3277   3281   3293     1   111.0400475 552.288000
   3277   3284   3287     1   111.0400475 552.288000
   3278   3277   3281     1   112.3500484 533.878400
   3278   3277   3284     1   112.3500484 533.878400
   3278   3290   3302     1   111.5100476 526.347200
   3281   3277   3284     1   112.3500484 533.878400
   3281   3293   3299     1   111.5100476 526.347200
   3284   3287   3296     1   111.5100476 526.347200
   3287   3296   3305     1   107.9700462 569.024000
   3290   3302   6669     1   107.9700462 569.024000
   3293   3299   6640     1   107.9700462 569.024000
   3299   6640   6631     1   112.4800480 524.673600
   3302   6669   6660     1   112.4800480 524.673600
   3306   3307   3319     1   111.0400475 552.288000
   3306   3310   3322     1   111.0400475 552.288000
   3306   3313   3316     1   111.0400475 552.288000
   3307   3306   3310     1   112.3500484 533.878400
   3307   3306   3313     1   112.3500484 533.878400
   3307   3319   3331     1   111.5100476 526.347200
   3310   3306   3313     1   112.3500484 533.878400
   3310   3322   3328     1   111.5100476 526.347200
   3313   3316   3325     1   111.5100476 526.347200
   3316   3325   3334     1   107.9700462 569.024000
   3319   3331   6727     1   107.9700462 569.024000
   3322   3328   6698     1   107.9700462 569.024000
   3328   6698   6689     1   112.4800480 524.673600
   3331   6727   6718     1   112.4800480 524.673600
   3335   3336   3348     1   111.0400475 552.288000
   3335   3339   3351     1   111.0400475 552.288000
   3335   3342   3345     1   111.0400475 552.288000
   3336   3335   3339     1   112.3500484 533.878400
   3336   3335   3342     1   112.3500484 533.878400
   3336   3348   3360     1   111.5100476 526.347200
   3339   3335   3342     1   112.3500484 533.878400
   3339   3351   3357     1   111.5100476 526.347200
   3342   3345   3354     1   111.5100476 526.347200
   3345   3354   3363     1   107.9700462 569.024000
   3348   3360   6785     1   107.9700462 569.024000
   3351   3357   6756     1   107.9700462 569.024000
   3357   6756   6747     1   112.4800480 524.673600
   3360   6785   6776     1   112.4800480 524.673600
   3364   3365   3377     1   111.0400475 552.288000
   3364   3368   3380     1   111.0400475 552.288000
   3364   3371   3374     1   111.0400475 552.288000
   3365   3364   3368     1   112.3500484 533.878400
   3365   3364   3371     1   112.3500484 533.878400
   3365   3377   3389     1   111.5100476 526.347200
   3368   3364   3371     1   112.3500484 533.878400
   3368   3380   3386     1   111.5100476 526.347200
   3371   3374   3383     1   111.5100476 526.347200
   3374   3383   3392     1   107.9700462 569.024000
   3377   3389   6843     1   107.9700462 569.024000
   3380   3386   6814     1   107.9700462 569.024000
   3386   6814   6805     1   112.4800480 524.673600
   3389   6843   6834     1   112.4800480 524.673600
   3393   3394   3406     1   111.0400475 552.288000
   3393   3397   3409     1   111.0400475 552.288000
   3393   3400   3403     1   111.0400475 552.288000
   3394   3393   3397     1   112.3500484 533.878400
   3394   3393   3400     1   112.3500484 533.878400
   3394   3406   3418     1   111.5100476 526.347200
   3397   3393   3400     1   112.3500484 533.878400
   3397   3409   3415     1   111.5100476 526.347200
   3400   3403   3412     1   111.5100476 526.347200
   3403   3412   3421     1   107.9700462 569.024000
   3406   3418   6901     1   107.9700462 569.024000
   3409   3415   6872     1   107.9700462 569.024000
   3415   6872   6863     1   112.4800480 524.673600
   3418   6901   6892     1   112.4800480 524.673600
   3422   3423   3435     1   111.0400475 552.288000
   3422   3426   3438     1   111.0400475 552.288000
   3422   3429   3432     1   111.0400475 552.288000
   3423   3422   3426     1   112.3500484 533.878400
   3423   3422   3429     1   112.3500484 533.878400
   3423   3435   3447     1   111.5100476 526.347200
   3426   3422   3429     1   112.3500484 533.878400
   3426   3438   3444     1   111.5100476 526.347200
   3429   3432   3441     1   111.5100476 526.347200
   3432   3441   3450     1   107.9700462 569.024000
   3435   3447   6959     1   107.9700462 569.024000
   3438   3444   6930     1   107.9700462 569.024000
   3444   6930   6921     1   112.4800480 524.673600
   3447   6959   6950     1   112.4800480 524.673600
   3451   3452   3464     1   111.0400475 552.288000
   3451   3455   3467     1   111.0400475 552.288000
   3451   3458   3461     1   111.0400475 552.288000
   3452   3451   3455     1   112.3500484 533.878400
   3452   3451   3458     1   112.3500484 533.878400
   3452   3464   3476     1   111.5100476 526.347200
   3455   3451   3458     1   112.3500484 533.878400
   3455   3467   3473     1   111.5100476 526.347200
   3458   3461   3470     1   111.5100476 526.347200
   3461   3470   3479     1   107.9700462 569.024000
   3464   3476   7017     1   107.9700462 569.024000
   3467   3473   6988     1   107.9700462 569.024000
   3473   6988   6979     1   112.4800480 524.673600
   3476   7017   7008     1   112.4800480 524.673600
   3480   3481   3493     1   111.0400475 552.288000
   3480   3484   3496     1   111.0400475 552.288000
   3480   3487   3490     1   111.0400475 552.288000
   3481   3480   3484     1   112.3500484 533.878400
   3481   3480   3487     1   112.3500484 533.878400
   3481   3493   3505     1   111.5100476 526.347200
   3484   3480   3487     1   112.3500484 533.878400
   3484   3496   3502     1   111.5100476 526.347200
   3487   3490   3499     1   111.5100476 526.347200
   3490   3499   3508     1   107.9700462 569.024000
   3493   3505   7075     1   107.9700462 569.024000
   3496   3502   7046     1   107.9700462 569.024000
   3502   7046   7037     1   112.4800480 524.673600
   3505   7075   7066     1   112.4800480 524.673600
   3509   3510   3522     1   111.0400475 552.288000
   3509   3513   3525     1   111.0400475 552.288000
   3509   3516   3519     1   111.0400475 552.288000
   3510   3509   3513     1   112.3500484 533.878400
   3510   3509   3516     1   112.3500484 533.878400
   3510   3522   3534     1   111.5100476 526.347200
   3513   3509   3516     1   112.3500484 533.878400
   3513   3525   3531     1   111.5100476 526.347200
   3516   3519   3528     1   111.5100476 526.347200
   3519   3528   3537     1   107.9700462 569.024000
   3522   3534   7133     1   107.9700462 569.024000
   3525   3531   7104     1   107.9700462 569.024000
   3531   7104   7095     1   112.4800480 524.673600
   3534   7133   7124     1   112.4800480 524.673600
   3538   3539   3551     1   111.0400475 552.288000
   3538   3542   3554     1   111.0400475 552.288000
   3538   3545   3548     1   111.0400475 552.288000
   3539   3538   3542     1   112.3500484 533.878400
   3539   3538   3545     1   112.3500484 533.878400
   3539   3551   3563     1   111.5100476 526.347200
   3542   3538   3545     1   112.3500484 533.878400
   3542   3554   3560     1   111.5100476 526.347200
   3545   3548   3557     1   111.5100476 526.347200
   3548   3557   3566     1   107.9700462 569.024000
   3551   3563   7191     1   107.9700462 569.024000
   3554   3560   7162     1   107.9700462 569.024000
   3560   7162   7153     1   112.4800480 524.673600
   3563   7191   7182     1   112.4800480 524.673600
   3567   3568   3580     1   111.0400475 552.288000
   3567   3571   3583     1   111.0400475 552.288000
   3567   3574   3577     1   111.0400475 552.288000
   3568   3567   3571     1   112.3500484 533.878400
   3568   3567   3574     1   112.3500484 533.878400
   3568   3580   3592     1   111.5100476 526.347200
   3571   3567   3574     1   112.3500484 533.878400
   3571   3583   3589     1   111.5100476 526.347200
   3574   3577   3586     1   111.5100476 526.347200
   3577   3586   3595     1   107.9700462 569.024000
   3580   3592   7249     1   107.9700462 569.024000
   3583   3589   7220     1   107.9700462 569.024000
   3589   7220   7211     1   112.4800480 524.673600
   3592   7249   7240     1   112.4800480 524.673600
   3596   3597   3609     1   111.0400475 552.288000
   3596   3600   3612     1   111.0400475 552.288000
   3596   3603   3606     1   111.0400475 552.288000
   3597   3596   3600     1   112.3500484 533.878400
   3597   3596   3603     1   112.3500484 533.878400
   3597   3609   3621     1   111.5100476 526.347200
   3600   3596   3603     1   112.3500484 533.878400
   3600   3612   3618     1   111.5100476 526.347200
   3603   3606   3615     1   111.5100476 526.347200
   3606   3615   3624     1   107.9700462 569.024000
   3609   3621   7307     1   107.9700462 569.024000
   3612   3618   7278     1   107.9700462 569.024000
   3618   7278   7269     1   112.4800480 524.673600
   3621   7307   7298     1   112.4800480 524.673600
   3625   3626   3638     1   111.0400475 552.288000
   3625   3629   3641     1   111.0400475 552.288000
   3625   3632   3635     1   111.0400475 552.288000
   3626   3625   3629     1   112.3500484 533.878400
   3626   3625   3632     1   112.3500484 533.878400
   3626   3638   3650     1   111.5100476 526.347200
   3629   3625   3632     1   112.3500484 533.878400
   3629   3641   3647     1   111.5100476 526.347200
   3632   3635   3644     1   111.5100476 526.347200
   3635   3644   3653     1   107.9700462 569.024000
   3638   3650   7365     1   107.9700462 569.024000
   3641   3647   7336     1   107.9700462 569.024000
   3647   7336   7327     1   112.4800480 524.673600
   3650   7365   7356     1   112.4800480 524.673600
   3654   3655   3667     1   111.0400475 552.288000
   3654   3658   3670     1   111.0400475 552.288000
   3654   3661   3664     1   111.0400475 552.288000
   3655   3654   3658     1   112.3500484 533.878400
   3655   3654   3661     1   112.3500484 533.878400
   3655   3667   3679     1   111.5100476 526.347200
   3658   3654   3661     1   112.3500484 533.878400
   3658   3670   3676     1   111.5100476 526.347200
   3661   3664   3673     1   111.5100476 526.347200
   3664   3673   3682     1   107.9700462 569.024000
   3667   3679   7399     1   107.9700462 569.024000
   3670   3676   7376     1   107.9700462 569.024000
   3676   7376   7372     1   112.4800480 524.673600
   3679   7399   7395     1   112.4800480 524.673600
   3683   3684   3696     1   111.0400475 552.288000
   3683   3687   3699     1   111.0400475 552.288000
   3683   3690   3693     1   111.0400475 552.288000
   3684   3683   3687     1   112.3500484 533.878400
   3684   3683   3690     1   112.3500484 533.878400
   3684   3696   3708     1   111.5100476 526.347200
   3687   3683   3690     1   112.3500484 533.878400
   3687   3699   3705     1   111.5100476 526.347200
   3690   3693   3702     1   111.5100476 526.347200
   3693   3702   3711     1   107.9700462 569.024000
   3696   3708   7445     1   107.9700462 569.024000
   3699   3705   7422     1   107.9700462 569.024000
   3705   7422   7418     1   112.4800480 524.673600
   3708   7445   7441     1   112.4800480 524.673600
   3712   3713   3725     1   111.0400475 552.288000
   3712   3716   3728     1   111.0400475 552.288000
   3712   3719   3722     1   111.0400475 552.288000
   3713   3712   3716     1   112.3500484 533.878400
   3713   3712   3719     1   112.3500484 533.878400
   3713   3725   3737     1   111.5100476 526.347200
   3716   3712   3719     1   112.3500484 533.878400
   3716   3728   3734     1   111.5100476 526.347200
   3719   3722   3731     1   111.5100476 526.347200
   3722   3731   3740     1   107.9700462 569.024000
   3725   3737   7491     1   107.9700462 569.024000
   3728   3734   7468     1   107.9700462 569.024000
   3734   7468   7464     1   112.4800480 524.673600
   3737   7491   7487     1   112.4800480 524.673600
   3741   3742   3754     1   111.0400475 552.288000
   3741   3745   3757     1   111.0400475 552.288000
   3741   3748   3751     1   111.0400475 552.288000
   3742   3741   3745     1   112.3500484 533.878400
   3742   3741   3748     1   112.3500484 533.878400
   3742   3754   3766     1   111.5100476 526.347200
   3745   3741   3748     1   112.3500484 533.878400
   3745   3757   3763     1   111.5100476 526.347200
   3748   3751   3760     1   111.5100476 526.347200
   3751   3760   3769     1   107.9700462 569.024000
   3754   3766   7537     1   107.9700462 569.024000
   3757   3763   7514     1   107.9700462 569.024000
   3763   7514   7510     1   112.4800480 524.673600
   3766   7537   7533     1   112.4800480 524.673600
   3770   3771   3783     1   111.0400475 552.288000
   3770   3774   3786     1   111.0400475 552.288000
   3770   3777   3780     1   111.0400475 552.288000
   3771   3770   3774     1   112.3500484 533.878400
   3771   3770   3777     1   112.3500484 533.878400
   3771   3783   3795     1   111.5100476 526.347200
   3774   3770   3777     1   112.3500484 533.878400
   3774   3786   3792     1   111.5100476 526.347200
   3777   3780   3789     1   111.5100476 526.347200
   3780   3789   3798     1   107.9700462 569.024000
   3783   3795   7583     1   107.9700462 569.024000
   3786   3792   7560     1   107.9700462 569.024000
   3792   7560   7556     1   112.4800480 524.673600
   3795   7583   7579     1   112.4800480 524.673600
   3799   3800   3812     1   111.0400475 552.288000
   3799   3803   3815     1   111.0400475 552.288000
   3799   3806   3809     1   111.0400475 552.288000
   3800   3799   3803     1   112.3500484 533.878400
   3800   3799   3806     1   112.3500484 533.878400
   3800   3812   3824     1   111.5100476 526.347200
   3803   3799   3806     1   112.3500484 533.878400
   3803   3815   3821     1   111.5100476 526.347200
   3806   3809   3818     1   111.5100476 526.347200
   3809   3818   3827     1   107.9700462 569.024000
   3812   3824   7629     1   107.9700462 569.024000
   3815   3821   7606     1   107.9700462 569.024000
   3821   7606   7602     1   112.4800480 524.673600
   3824   7629   7625     1   112.4800480 524.673600
   3828   3829   3841     1   111.0400475 552.288000
   3828   3832   3844     1   111.0400475 552.288000
   3828   3835   3838     1   111.0400475 552.288000
   3829   3828   3832     1   112.3500484 533.878400
   3829   3828   3835     1   112.3500484 533.878400
   3829   3841   3853     1   111.5100476 526.347200
   3832   3828   3835     1   112.3500484 533.878400
   3832   3844   3850     1   111.5100476 526.347200
   3835   3838   3847     1   111.5100476 526.347200
   3838   3847   3856     1   107.9700462 569.024000
   3841   3853   7675     1   107.9700462 569.024000
   3844   3850   7652     1   107.9700462 569.024000
   3850   7652   7648     1   112.4800480 524.673600
   3853   7675   7671     1   112.4800480 524.673600
   3857   3858   3870     1   111.0400475 552.288000
   3857   3861   3873     1   111.0400475 552.288000
   3857   3864   3867     1   111.0400475 552.288000
   3858   3857   3861     1   112.3500484 533.878400
   3858   3857   3864     1   112.3500484 533.878400
   3858   3870   3882     1   111.5100476 526.347200
   3861   3857   3864     1   112.3500484 533.878400
   3861   3873   3879     1   111.5100476 526.347200
   3864   3867   3876     1   111.5100476 526.347200
   3867   3876   3885     1   107.9700462 569.024000
   3870   3882   7721     1   107.9700462 569.024000
   3873   3879   7698     1   107.9700462 569.024000
   3879   7698   7694     1   112.4800480 524.673600
   3882   7721   7717     1   112.4800480 524.673600
   3886   3887   3899     1   111.0400475 552.288000
   3886   3890   3902     1   111.0400475 552.288000
   3886   3893   3896     1   111.0400475 552.288000
   3887   3886   3890     1   112.3500484 533.878400
   3887   3886   3893     1   112.3500484 533.878400
   3887   3899   3911     1   111.5100476 526.347200
   3890   3886   3893     1   112.3500484 533.878400
   3890   3902   3908     1   111.5100476 526.347200
   3893   3896   3905     1   111.5100476 526.347200
   3896   3905   3914     1   107.9700462 569.024000
   3899   3911   7767     1   107.9700462 569.024000
   3902   3908   7744     1   107.9700462 569.024000
   3908   7744   7740     1   112.4800480 524.673600
   3911   7767   7763     1   112.4800480 524.673600
   3915   3916   3928     1   111.0400475 552.288000
   3915   3919   3931     1   111.0400475 552.288000
   3915   3922   3925     1   111.0400475 552.288000
   3916   3915   3919     1   112.3500484 533.878400
   3916   3915   3922     1   112.3500484 533.878400
   3916   3928   3940     1   111.5100476 526.347200
   3919   3915   3922     1   112.3500484 533.878400
   3919   3931   3937     1   111.5100476 526.347200
   3922   3925   3934     1   111.5100476 526.347200
   3925   3934   3943     1   107.9700462 569.024000
   3928   3940   7813     1   107.9700462 569.024000
   3931   3937   7790     1   107.9700462 569.024000
   3937   7790   7786     1   112.4800480 524.673600
   3940   7813   7809     1   112.4800480 524.673600
   3944   3945   3957     1   111.0400475 552.288000
   3944   3948   3960     1   111.0400475 552.288000
   3944   3951   3954     1   111.0400475 552.288000
   3945   3944   3948     1   112.3500484 533.878400
   3945   3944   3951     1   112.3500484 533.878400
   3945   3957   3969     1   111.5100476 526.347200
   3948   3944   3951     1   112.3500484 533.878400
   3948   3960   3966     1   111.5100476 526.347200
   3951   3954   3963     1   111.5100476 526.347200
   3954   3963   3972     1   107.9700462 569.024000
   3957   3969   7859     1   107.9700462 569.024000
   3960   3966   7836     1   107.9700462 569.024000
   3966   7836   7832     1   112.4800480 524.673600
   3969   7859   7855     1   112.4800480 524.673600
   3973   3974   3986     1   111.0400475 552.288000
   3973   3977   3989     1   111.0400475 552.288000
   3973   3980   3983     1   111.0400475 552.288000
   3974   3973   3977     1   112.3500484 533.878400
   3974   3973   3980     1   112.3500484 533.878400
   3974   3986   3998     1   111.5100476 526.347200
   3977   3973   3980     1   112.3500484 533.878400
   3977   3989   3995     1   111.5100476 526.347200
   3980   3983   3992     1   111.5100476 526.347200
   3983   3992   4001     1   107.9700462 569.024000
   3986   3998   7905     1   107.9700462 569.024000
   3989   3995   7882     1   107.9700462 569.024000
   3995   7882   7878     1   112.4800480 524.673600
   3998   7905   7901     1   112.4800480 524.673600
   4002   4003   4015     1   111.0400475 552.288000
   4002   4006   4018     1   111.0400475 552.288000
   4002   4009   4012     1   111.0400475 552.288000
   4003   4002   4006     1   112.3500484 533.878400
   4003   4002   4009     1   112.3500484 533.878400
   4003   4015   4027     1   111.5100476 526.347200
   4006   4002   4009     1   112.3500484 533.878400
   4006   4018   4024     1   111.5100476 526.347200
   4009   4012   4021     1   111.5100476 526.347200
   4012   4021   4030     1   107.9700462 569.024000
   4015   4027   7951     1   107.9700462 569.024000
   4018   4024   7928     1   107.9700462 569.024000
   4024   7928   7924     1   112.4800480 524.673600
   4027   7951   7947     1   112.4800480 524.673600
   4031   4032   4044     1   111.0400475 552.288000
   4031   4035   4047     1   111.0400475 552.288000
   4031   4038   4041     1   111.0400475 552.288000
   4032   4031   4035     1   112.3500484 533.878400
   4032   4031   4038     1   112.3500484 533.878400
   4032   4044   4056     1   111.5100476 526.347200
   4035   4031   4038     1   112.3500484 533.878400
   4035   4047   4053     1   111.5100476 526.347200
   4038   4041   4050     1   111.5100476 526.347200
   4041   4050   4059     1   107.9700462 569.024000
   4044   4056   7997     1   107.9700462 569.024000
   4047   4053   7974     1   107.9700462 569.024000
   4053   7974   7970     1   112.4800480 524.673600
   4056   7997   7993     1   112.4800480 524.673600
   4060   4061   4073     1   111.0400475 552.288000
   4060   4064   4076     1   111.0400475 552.288000
   4060   4067   4070     1   111.0400475 552.288000
   4061   4060   4064     1   112.3500484 533.878400
   4061   4060   4067     1   112.3500484 533.878400
   4061   4073   4085     1   111.5100476 526.347200
   4064   4060   4067     1   112.3500484 533.878400
   4064   4076   4082     1   111.5100476 526.347200
   4067   4070   4079     1   111.5100476 526.347200
   4070   4079   4088     1   107.9700462 569.024000
   4073   4085   8043     1   107.9700462 569.024000
   4076   4082   8020     1   107.9700462 569.024000
   4082   8020   8016     1   112.4800480 524.673600
   4085   8043   8039     1   112.4800480 524.673600
   4089   4090   4102     1   111.0400475 552.288000
   4089   4093   4105     1   111.0400475 552.288000
   4089   4096   4099     1   111.0400475 552.288000
   4090   4089   4093     1   112.3500484 533.878400
   4090   4089   4096     1   112.3500484 533.878400
   4090   4102   4114     1   111.5100476 526.347200
   4093   4089   4096     1   112.3500484 533.878400
   4093   4105   4111     1   111.5100476 526.347200
   4096   4099   4108     1   111.5100476 526.347200
   4099   4108   4117     1   107.9700462 569.024000
   4102   4114   8089     1   107.9700462 569.024000
   4105   4111   8066     1   107.9700462 569.024000
   4111   8066   8062     1   112.4800480 524.673600
   4114   8089   8085     1   112.4800480 524.673600
   4118   4119   4131     1   111.0400475 552.288000
   4118   4122   4134     1   111.0400475 552.288000
   4118   4125   4128     1   111.0400475 552.288000
   4119   4118   4122     1   112.3500484 533.878400
   4119   4118   4125     1   112.3500484 533.878400
   4119   4131   4143     1   111.5100476 526.347200
   4122   4118   4125     1   112.3500484 533.878400
   4122   4134   4140     1   111.5100476 526.347200
   4125   4128   4137     1   111.5100476 526.347200
   4128   4137   4146     1   107.9700462 569.024000
   4131   4143   8135     1   107.9700462 569.024000
   4134   4140   8112     1   107.9700462 569.024000
   4140   8112   8108     1   112.4800480 524.673600
   4143   8135   8131     1   112.4800480 524.673600
   4147   4148   4160     1   111.0400475 552.288000
   4147   4151   4163     1   111.0400475 552.288000
   4147   4154   4157     1   111.0400475 552.288000
   4148   4147   4151     1   112.3500484 533.878400
   4148   4147   4154     1   112.3500484 533.878400
   4148   4160   4172     1   111.5100476 526.347200
   4151   4147   4154     1   112.3500484 533.878400
   4151   4163   4169     1   111.5100476 526.347200
   4154   4157   4166     1   111.5100476 526.347200
   4157   4166   4175     1   107.9700462 569.024000
   4160   4172   8181     1   107.9700462 569.024000
   4163   4169   8158     1   107.9700462 569.024000
   4169   8158   8154     1   112.4800480 524.673600
   4172   8181   8177     1   112.4800480 524.673600
   4176   4177   4189     1   111.0400475 552.288000
   4176   4180   4192     1   111.0400475 552.288000
   4176   4183   4186     1   111.0400475 552.288000
   4177   4176   4180     1   112.3500484 533.878400
   4177   4176   4183     1   112.3500484 533.878400
   4177   4189   4201     1   111.5100476 526.347200
   4180   4176   4183     1   112.3500484 533.878400
   4180   4192   4198     1   111.5100476 526.347200
   4183   4186   4195     1   111.5100476 526.347200
   4186   4195   4204     1   107.9700462 569.024000
   4189   4201   8227     1   107.9700462 569.024000
   4192   4198   8204     1   107.9700462 569.024000
   4198   8204   8200     1   112.4800480 524.673600
   4201   8227   8223     1   112.4800480 524.673600
   4205   4206   4218     1   111.0400475 552.288000
   4205   4209   4221     1   111.0400475 552.288000
   4205   4212   4215     1   111.0400475 552.288000
   4206   4205   4209     1   112.3500484 533.878400
   4206   4205   4212     1   112.3500484 533.878400
   4206   4218   4230     1   111.5100476 526.347200
   4209   4205   4212     1   112.3500484 533.878400
   4209   4221   4227     1   111.5100476 526.347200
   4212   4215   4224     1   111.5100476 526.347200
   4215   4224   4233     1   107.9700462 569.024000
   4218   4230   8273     1   107.9700462 569.024000
   4221   4227   8250     1   107.9700462 569.024000
   4227   8250   8246     1   112.4800480 524.673600
   4230   8273   8269     1   112.4800480 524.673600
   4234   4235   4247     1   111.0400475 552.288000
   4234   4238   4250     1   111.0400475 552.288000
   4234   4241   4244     1   111.0400475 552.288000
   4235   4234   4238     1   112.3500484 533.878400
   4235   4234   4241     1   112.3500484 533.878400
   4235   4247   4259     1   111.5100476 526.347200
   4238   4234   4241     1   112.3500484 533.878400
   4238   4250   4256     1   111.5100476 526.347200
   4241   4244   4253     1   111.5100476 526.347200
   4244   4253   4262     1   107.9700462 569.024000
   4247   4259   8319     1   107.9700462 569.024000
   4250   4256   8296     1   107.9700462 569.024000
   4256   8296   8292     1   112.4800480 524.673600
   4259   8319   8315     1   112.4800480 524.673600
   4263   4264   4276     1   111.0400475 552.288000
   4263   4267   4279     1   111.0400475 552.288000
   4263   4270   4273     1   111.0400475 552.288000
   4264   4263   4267     1   112.3500484 533.878400
   4264   4263   4270     1   112.3500484 533.878400
   4264   4276   4288     1   111.5100476 526.347200
   4267   4263   4270     1   112.3500484 533.878400
   4267   4279   4285     1   111.5100476 526.347200
   4270   4273   4282     1   111.5100476 526.347200
   4273   4282   4291     1   107.9700462 569.024000
   4276   4288   8365     1   107.9700462 569.024000
   4279   4285   8342     1   107.9700462 569.024000
   4285   8342   8338     1   112.4800480 524.673600
   4288   8365   8361     1   112.4800480 524.673600
   4292   4293   4305     1   111.0400475 552.288000
   4292   4296   4308     1   111.0400475 552.288000
   4292   4299   4302     1   111.0400475 552.288000
   4293   4292   4296     1   112.3500484 533.878400
   4293   4292   4299     1   112.3500484 533.878400
   4293   4305   4317     1   111.5100476 526.347200
   4296   4292   4299     1   112.3500484 533.878400
   4296   4308   4314     1   111.5100476 526.347200
   4299   4302   4311     1   111.5100476 526.347200
   4302   4311   4320     1   107.9700462 569.024000
   4305   4317   8411     1   107.9700462 569.024000
   4308   4314   8388     1   107.9700462 569.024000
   4314   8388   8384     1   112.4800480 524.673600
   4317   8411   8407     1   112.4800480 524.673600
   4321   4322   4334     1   111.0400475 552.288000
   4321   4325   4337     1   111.0400475 552.288000
   4321   4328   4331     1   111.0400475 552.288000
   4322   4321   4325     1   112.3500484 533.878400
   4322   4321   4328     1   112.3500484 533.878400
   4322   4334   4346     1   111.5100476 526.347200
   4325   4321   4328     1   112.3500484 533.878400
   4325   4337   4343     1   111.5100476 526.347200
   4328   4331   4340     1   111.5100476 526.347200
   4331   4340   4349     1   107.9700462 569.024000
   4334   4346   8457     1   107.9700462 569.024000
   4337   4343   8434     1   107.9700462 569.024000
   4343   8434   8430     1   112.4800480 524.673600
   4346   8457   8453     1   112.4800480 524.673600
   4350   4351   4363     1   111.0400475 552.288000
   4350   4354   4366     1   111.0400475 552.288000
   4350   4357   4360     1   111.0400475 552.288000
   4351   4350   4354     1   112.3500484 533.878400
   4351   4350   4357     1   112.3500484 533.878400
   4351   4363   4375     1   111.5100476 526.347200
   4354   4350   4357     1   112.3500484 533.878400
   4354   4366   4372     1   111.5100476 526.347200
   4357   4360   4369     1   111.5100476 526.347200
   4360   4369   4378     1   107.9700462 569.024000
   4363   4375   8503     1   107.9700462 569.024000
   4366   4372   8480     1   107.9700462 569.024000
   4372   8480   8476     1   112.4800480 524.673600
   4375   8503   8499     1   112.4800480 524.673600
   4379   4380   4392     1   111.0400475 552.288000
   4379   4383   4395     1   111.0400475 552.288000
   4379   4386   4389     1   111.0400475 552.288000
   4380   4379   4383     1   112.3500484 533.878400
   4380   4379   4386     1   112.3500484 533.878400
   4380   4392   4404     1   111.5100476 526.347200
   4383   4379   4386     1   112.3500484 533.878400
   4383   4395   4401     1   111.5100476 526.347200
   4386   4389   4398     1   111.5100476 526.347200
   4389   4398   4407     1   107.9700462 569.024000
   4392   4404   8549     1   107.9700462 569.024000
   4395   4401   8526     1   107.9700462 569.024000
   4401   8526   8522     1   112.4800480 524.673600
   4404   8549   8545     1   112.4800480 524.673600
   4408   4409   4421     1   111.0400475 552.288000
   4408   4412   4424     1   111.0400475 552.288000
   4408   4415   4418     1   111.0400475 552.288000
   4409   4408   4412     1   112.3500484 533.878400
   4409   4408   4415     1   112.3500484 533.878400
   4409   4421   4433     1   111.5100476 526.347200
   4412   4408   4415     1   112.3500484 533.878400
   4412   4424   4430     1   111.5100476 526.347200
   4415   4418   4427     1   111.5100476 526.347200
   4418   4427   4436     1   107.9700462 569.024000
   4421   4433   8595     1   107.9700462 569.024000
   4424   4430   8572     1   107.9700462 569.024000
   4430   8572   8568     1   112.4800480 524.673600
   4433   8595   8591     1   112.4800480 524.673600
   4437   4438   4450     1   111.0400475 552.288000
   4437   4441   4453     1   111.0400475 552.288000
   4437   4444   4447     1   111.0400475 552.288000
   4438   4437   4441     1   112.3500484 533.878400
   4438   4437   4444     1   112.3500484 533.878400
   4438   4450   4462     1   111.5100476 526.347200
   4441   4437   4444     1   112.3500484 533.878400
   4441   4453   4459     1   111.5100476 526.347200
   4444   4447   4456     1   111.5100476 526.347200
   4447   4456   4465     1   107.9700462 569.024000
   4450   4462   8641     1   107.9700462 569.024000
   4453   4459   8618     1   107.9700462 569.024000
   4459   8618   8614     1   112.4800480 524.673600
   4462   8641   8637     1   112.4800480 524.673600
   4466   4467   4479     1   111.0400475 552.288000
   4466   4470   4482     1   111.0400475 552.288000
   4466   4473   4476     1   111.0400475 552.288000
   4467   4466   4470     1   112.3500484 533.878400
   4467   4466   4473     1   112.3500484 533.878400
   4467   4479   4491     1   111.5100476 526.347200
   4470   4466   4473     1   112.3500484 533.878400
   4470   4482   4488     1   111.5100476 526.347200
   4473   4476   4485     1   111.5100476 526.347200
   4476   4485   4494     1   107.9700462 569.024000
   4479   4491   8687     1   107.9700462 569.024000
   4482   4488   8664     1   107.9700462 569.024000
   4488   8664   8660     1   112.4800480 524.673600
   4491   8687   8683     1   112.4800480 524.673600
   4495   4496   4508     1   111.0400475 552.288000
   4495   4499   4511     1   111.0400475 552.288000
   4495   4502   4505     1   111.0400475 552.288000
   4496   4495   4499     1   112.3500484 533.878400
   4496   4495   4502     1   112.3500484 533.878400
   4496   4508   4520     1   111.5100476 526.347200
   4499   4495   4502     1   112.3500484 533.878400
   4499   4511   4517     1   111.5100476 526.347200
   4502   4505   4514     1   111.5100476 526.347200
   4505   4514   4523     1   107.9700462 569.024000
   4508   4520   8733     1   107.9700462 569.024000
   4511   4517   8710     1   107.9700462 569.024000
   4517   8710   8706     1   112.4800480 524.673600
   4520   8733   8729     1   112.4800480 524.673600
   4524   4525   4537     1   111.0400475 552.288000
   4524   4528   4540     1   111.0400475 552.288000
   4524   4531   4534     1   111.0400475 552.288000
   4525   4524   4528     1   112.3500484 533.878400
   4525   4524   4531     1   112.3500484 533.878400
   4525   4537   4549     1   111.5100476 526.347200
   4528   4524   4531     1   112.3500484 533.878400
   4528   4540   4546     1   111.5100476 526.347200
   4531   4534   4543     1   111.5100476 526.347200
   4534   4543   4552     1   107.9700462 569.024000
   4537   4549   8779     1   107.9700462 569.024000
   4540   4546   8756     1   107.9700462 569.024000
   4546   8756   8752     1   112.4800480 524.673600
   4549   8779   8775     1   112.4800480 524.673600
   4553   4554   4566     1   111.0400475 552.288000
   4553   4557   4569     1   111.0400475 552.288000
   4553   4560   4563     1   111.0400475 552.288000
   4554   4553   4557     1   112.3500484 533.878400
   4554   4553   4560     1   112.3500484 533.878400
   4554   4566   4578     1   111.5100476 526.347200
   4557   4553   4560     1   112.3500484 533.878400
   4557   4569   4575     1   111.5100476 526.347200
   4560   4563   4572     1   111.5100476 526.347200
   4563   4572   4581     1   107.9700462 569.024000
   4566   4578   8825     1   107.9700462 569.024000
   4569   4575   8802     1   107.9700462 569.024000
   4575   8802   8798     1   112.4800480 524.673600
   4578   8825   8821     1   112.4800480 524.673600
   4582   4583   4595     1   111.0400475 552.288000
   4582   4586   4598     1   111.0400475 552.288000
   4582   4589   4592     1   111.0400475 552.288000
   4583   4582   4586     1   112.3500484 533.878400
   4583   4582   4589     1   112.3500484 533.878400
   4583   4595   4607     1   111.5100476 526.347200
   4586   4582   4589     1   112.3500484 533.878400
   4586   4598   4604     1   111.5100476 526.347200
   4589   4592   4601     1   111.5100476 526.347200
   4592   4601   4610     1   107.9700462 569.024000
   4595   4607   8871     1   107.9700462 569.024000
   4598   4604   8848     1   107.9700462 569.024000
   4604   8848   8844     1   112.4800480 524.673600
   4607   8871   8867     1   112.4800480 524.673600
   4611   4612   4624     1   111.0400475 552.288000
   4611   4615   4627     1   111.0400475 552.288000
   4611   4618   4621     1   111.0400475 552.288000
   4612   4611   4615     1   112.3500484 533.878400
   4612   4611   4618     1   112.3500484 533.878400
   4612   4624   4636     1   111.5100476 526.347200
   4615   4611   4618     1   112.3500484 533.878400
   4615   4627   4633     1   111.5100476 526.347200
   4618   4621   4630     1   111.5100476 526.347200
   4621   4630   4639     1   107.9700462 569.024000
   4624   4636   8917     1   107.9700462 569.024000
   4627   4633   8894     1   107.9700462 569.024000
   4633   8894   8890     1   112.4800480 524.673600
   4636   8917   8913     1   112.4800480 524.673600
   4640   4641   4653     1   111.0400475 552.288000
   4640   4644   4656     1   111.0400475 552.288000
   4640   4647   4650     1   111.0400475 552.288000
   4641   4640   4644     1   112.3500484 533.878400
   4641   4640   4647     1   112.3500484 533.878400
   4641   4653   4665     1   111.5100476 526.347200
   4644   4640   4647     1   112.3500484 533.878400
   4644   4656   4662     1   111.5100476 526.347200
   4647   4650   4659     1   111.5100476 526.347200
   4650   4659   4668     1   107.9700462 569.024000
   4653   4665   8963     1   107.9700462 569.024000
   4656   4662   8940     1   107.9700462 569.024000
   4662   8940   8936     1   112.4800480 524.673600
   4665   8963   8959     1   112.4800480 524.673600
   4669   4670   4682     1   111.0400475 552.288000
   4669   4673   4685     1   111.0400475 552.288000
   4669   4676   4679     1   111.0400475 552.288000
   4670   4669   4673     1   112.3500484 533.878400
   4670   4669   4676     1   112.3500484 533.878400
   4670   4682   4694     1   111.5100476 526.347200
   4673   4669   4676     1   112.3500484 533.878400
   4673   4685   4691     1   111.5100476 526.347200
   4676   4679   4688     1   111.5100476 526.347200
   4679   4688   4697     1   107.9700462 569.024000
   4682   4694   9009     1   107.9700462 569.024000
   4685   4691   8986     1   107.9700462 569.024000
   4691   8986   8982     1   112.4800480 524.673600
   4694   9009   9005     1   112.4800480 524.673600
   4698   4699   4711     1   111.0400475 552.288000
   4698   4702   4714     1   111.0400475 552.288000
   4698   4705   4708     1   111.0400475 552.288000
   4699   4698   4702     1   112.3500484 533.878400
   4699   4698   4705     1   112.3500484 533.878400
   4699   4711   4723     1   111.5100476 526.347200
   4702   4698   4705     1   112.3500484 533.878400
   4702   4714   4720     1   111.5100476 526.347200
   4705   4708   4717     1   111.5100476 526.347200
   4708   4717   4726     1   107.9700462 569.024000
   4711   4723   9055     1   107.9700462 569.024000
   4714   4720   9032     1   107.9700462 569.024000
   4720   9032   9028     1   112.4800480 524.673600
   4723   9055   9051     1   112.4800480 524.673600
   4727   4728   4740     1   111.0400475 552.288000
   4727   4731   4743     1   111.0400475 552.288000
   4727   4734   4737     1   111.0400475 552.288000
   4728   4727   4731     1   112.3500484 533.878400
   4728   4727   4734     1   112.3500484 533.878400
   4728   4740   4752     1   111.5100476 526.347200
   4731   4727   4734     1   112.3500484 533.878400
   4731   4743   4749     1   111.5100476 526.347200
   4734   4737   4746     1   111.5100476 526.347200
   4737   4746   4755     1   107.9700462 569.024000
   4740   4752   9101     1   107.9700462 569.024000
   4743   4749   9078     1   107.9700462 569.024000
   4749   9078   9074     1   112.4800480 524.673600
   4752   9101   9097     1   112.4800480 524.673600
   4756   4757   4769     1   111.0400475 552.288000
   4756   4760   4772     1   111.0400475 552.288000
   4756   4763   4766     1   111.0400475 552.288000
   4757   4756   4760     1   112.3500484 533.878400
   4757   4756   4763     1   112.3500484 533.878400
   4757   4769   4781     1   111.5100476 526.347200
   4760   4756   4763     1   112.3500484 533.878400
   4760   4772   4778     1   111.5100476 526.347200
   4763   4766   4775     1   111.5100476 526.347200
   4766   4775   4784     1   107.9700462 569.024000
   4769   4781   9147     1   107.9700462 569.024000
   4772   4778   9124     1   107.9700462 569.024000
   4778   9124   9120     1   112.4800480 524.673600
   4781   9147   9143     1   112.4800480 524.673600
   4785   4786   4798     1   111.0400475 552.288000
   4785   4789   4801     1   111.0400475 552.288000
   4785   4792   4795     1   111.0400475 552.288000
   4786   4785   4789     1   112.3500484 533.878400
   4786   4785   4792     1   112.3500484 533.878400
   4786   4798   4810     1   111.5100476 526.347200
   4789   4785   4792     1   112.3500484 533.878400
   4789   4801   4807     1   111.5100476 526.347200
   4792   4795   4804     1   111.5100476 526.347200
   4795   4804   4813     1   107.9700462 569.024000
   4798   4810   9193     1   107.9700462 569.024000
   4801   4807   9170     1   107.9700462 569.024000
   4807   9170   9166     1   112.4800480 524.673600
   4810   9193   9189     1   112.4800480 524.673600
   4814   4815   4827     1   111.0400475 552.288000
   4814   4818   4830     1   111.0400475 552.288000
   4814   4821   4824     1   111.0400475 552.288000
   4815   4814   4818     1   112.3500484 533.878400
   4815   4814   4821     1   112.3500484 533.878400
   4815   4827   4839     1   111.5100476 526.347200
   4818   4814   4821     1   112.3500484 533.878400
   4818   4830   4836     1   111.5100476 526.347200
   4821   4824   4833     1   111.5100476 526.347200
   4824   4833   4842     1   107.9700462 569.024000
   4827   4839   9239     1   107.9700462 569.024000
   4830   4836   9216     1   107.9700462 569.024000
   4836   9216   9212     1   112.4800480 524.673600
   4839   9239   9235     1   112.4800480 524.673600
   4843   4844   4856     1   111.0400475 552.288000
   4843   4847   4859     1   111.0400475 552.288000
   4843   4850   4853     1   111.0400475 552.288000
   4844   4843   4847     1   112.3500484 533.878400
   4844   4843   4850     1   112.3500484 533.878400
   4844   4856   4868     1   111.5100476 526.347200
   4847   4843   4850     1   112.3500484 533.878400
   4847   4859   4865     1   111.5100476 526.347200
   4850   4853   4862     1   111.5100476 526.347200
   4853   4862   4871     1   107.9700462 569.024000
   4856   4868   9285     1   107.9700462 569.024000
   4859   4865   9262     1   107.9700462 569.024000
   4865   9262   9258     1   112.4800480 524.673600
   4868   9285   9281     1   112.4800480 524.673600
   4872   4873   4885     1   111.0400475 552.288000
   4872   4876   4888     1   111.0400475 552.288000
   4872   4879   4882     1   111.0400475 552.288000
   4873   4872   4876     1   112.3500484 533.878400
   4873   4872   4879     1   112.3500484 533.878400
   4873   4885   4897     1   111.5100476 526.347200
   4876   4872   4879     1   112.3500484 533.878400
   4876   4888   4894     1   111.5100476 526.347200
   4879   4882   4891     1   111.5100476 526.347200
   4882   4891   4900     1   107.9700462 569.024000
   4885   4897   9331     1   107.9700462 569.024000
   4888   4894   9308     1   107.9700462 569.024000
   4894   9308   9304     1   112.4800480 524.673600
   4897   9331   9327     1   112.4800480 524.673600
   4901   4902   4914     1   111.0400475 552.288000
   4901   4905   4917     1   111.0400475 552.288000
   4901   4908   4911     1   111.0400475 552.288000
   4902   4901   4905     1   112.3500484 533.878400
   4902   4901   4908     1   112.3500484 533.878400
   4902   4914   4926     1   111.5100476 526.347200
   4905   4901   4908     1   112.3500484 533.878400
   4905   4917   4923     1   111.5100476 526.347200
   4908   4911   4920     1   111.5100476 526.347200
   4911   4920   4929     1   107.9700462 569.024000
   4914   4926   9377     1   107.9700462 569.024000
   4917   4923   9354     1   107.9700462 569.024000
   4923   9354   9350     1   112.4800480 524.673600
   4926   9377   9373     1   112.4800480 524.673600
   4930   4931   4943     1   111.0400475 552.288000
   4930   4934   4946     1   111.0400475 552.288000
   4930   4937   4940     1   111.0400475 552.288000
   4931   4930   4934     1   112.3500484 533.878400
   4931   4930   4937     1   112.3500484 533.878400
   4931   4943   4955     1   111.5100476 526.347200
   4934   4930   4937     1   112.3500484 533.878400
   4934   4946   4952     1   111.5100476 526.347200
   4937   4940   4949     1   111.5100476 526.347200
   4940   4949   4958     1   107.9700462 569.024000
   4943   4955   9423     1   107.9700462 569.024000
   4946   4952   9400     1   107.9700462 569.024000
   4952   9400   9396     1   112.4800480 524.673600
   4955   9423   9419     1   112.4800480 524.673600
   4959   4960   4972     1   111.0400475 552.288000
   4959   4963   4975     1   111.0400475 552.288000
   4959   4966   4969     1   111.0400475 552.288000
   4960   4959   4963     1   112.3500484 533.878400
   4960   4959   4966     1   112.3500484 533.878400
   4960   4972   4984     1   111.5100476 526.347200
   4963   4959   4966     1   112.3500484 533.878400
   4963   4975   4981     1   111.5100476 526.347200
   4966   4969   4978     1   111.5100476 526.347200
   4969   4978   4987     1   107.9700462 569.024000
   4972   4984   9469     1   107.9700462 569.024000
   4975   4981   9446     1   107.9700462 569.024000
   4981   9446   9442     1   112.4800480 524.673600
   4984   9469   9465     1   112.4800480 524.673600
   4988   4989   5001     1   111.0400475 552.288000
   4988   4992   5004     1   111.0400475 552.288000
   4988   4995   4998     1   111.0400475 552.288000
   4989   4988   4992     1   112.3500484 533.878400
   4989   4988   4995     1   112.3500484 533.878400
   4989   5001   5013     1   111.5100476 526.347200
   4992   4988   4995     1   112.3500484 533.878400
   4992   5004   5010     1   111.5100476 526.347200
   4995   4998   5007     1   111.5100476 526.347200
   4998   5007   5016     1   107.9700462 569.024000
   5001   5013   9515     1   107.9700462 569.024000
   5004   5010   9492     1   107.9700462 569.024000
   5010   9492   9488     1   112.4800480 524.673600
   5013   9515   9511     1   112.4800480 524.673600
   5017   5018   5030     1   111.0400475 552.288000
   5017   5021   5033     1   111.0400475 552.288000
   5017   5024   5027     1   111.0400475 552.288000
   5018   5017   5021     1   112.3500484 533.878400
   5018   5017   5024     1   112.3500484 533.878400
   5018   5030   5042     1   111.5100476 526.347200
   5021   5017   5024     1   112.3500484 533.878400
   5021   5033   5039     1   111.5100476 526.347200
   5024   5027   5036     1   111.5100476 526.347200
   5027   5036   5045     1   107.9700462 569.024000
   5030   5042   9561     1   107.9700462 569.024000
   5033   5039   9538     1   107.9700462 569.024000
   5039   9538   9534     1   112.4800480 524.673600
   5042   9561   9557     1   112.4800480 524.673600
   5046   5047   5059     1   111.0400475 552.288000
   5046   5050   5062     1   111.0400475 552.288000
   5046   5053   5056     1   111.0400475 552.288000
   5047   5046   5050     1   112.3500484 533.878400
   5047   5046   5053     1   112.3500484 533.878400
   5047   5059   5071     1   111.5100476 526.347200
   5050   5046   5053     1   112.3500484 533.878400
   5050   5062   5068     1   111.5100476 526.347200
   5053   5056   5065     1   111.5100476 526.347200
   5056   5065   5074     1   107.9700462 569.024000
   5059   5071   9607     1   107.9700462 569.024000
   5062   5068   9584     1   107.9700462 569.024000
   5068   9584   9580     1   112.4800480 524.673600
   5071   9607   9603     1   112.4800480 524.673600
   5075   5076   5088     1   111.0400475 552.288000
   5075   5079   5091     1   111.0400475 552.288000
   5075   5082   5085     1   111.0400475 552.288000
   5076   5075   5079     1   112.3500484 533.878400
   5076   5075   5082     1   112.3500484 533.878400
   5076   5088   5100     1   111.5100476 526.347200
   5079   5075   5082     1   112.3500484 533.878400
   5079   5091   5097     1   111.5100476 526.347200
   5082   5085   5094     1   111.5100476 526.347200
   5085   5094   5103     1   107.9700462 569.024000
   5088   5100   9653     1   107.9700462 569.024000
   5091   5097   9630     1   107.9700462 569.024000
   5097   9630   9626     1   112.4800480 524.673600
   5100   9653   9649     1   112.4800480 524.673600
   5104   5105   5117     1   111.0400475 552.288000
   5104   5108   5120     1   111.0400475 552.288000
   5104   5111   5114     1   111.0400475 552.288000
   5105   5104   5108     1   112.3500484 533.878400
   5105   5104   5111     1   112.3500484 533.878400
   5105   5117   5129     1   111.5100476 526.347200
   5108   5104   5111     1   112.3500484 533.878400
   5108   5120   5126     1   111.5100476 526.347200
   5111   5114   5123     1   111.5100476 526.347200
   5114   5123   5132     1   107.9700462 569.024000
   5117   5129   9699     1   107.9700462 569.024000
   5120   5126   9676     1   107.9700462 569.024000
   5126   9676   9672     1   112.4800480 524.673600
   5129   9699   9695     1   112.4800480 524.673600
   5133   5134   5146     1   111.0400475 552.288000
   5133   5137   5149     1   111.0400475 552.288000
   5133   5140   5143     1   111.0400475 552.288000
   5134   5133   5137     1   112.3500484 533.878400
   5134   5133   5140     1   112.3500484 533.878400
   5134   5146   5158     1   111.5100476 526.347200
   5137   5133   5140     1   112.3500484 533.878400
   5137   5149   5155     1   111.5100476 526.347200
   5140   5143   5152     1   111.5100476 526.347200
   5143   5152   5161     1   107.9700462 569.024000
   5146   5158   9745     1   107.9700462 569.024000
   5149   5155   9722     1   107.9700462 569.024000
   5155   9722   9718     1   112.4800480 524.673600
   5158   9745   9741     1   112.4800480 524.673600
   5162   5163   5175     1   111.0400475 552.288000
   5162   5166   5178     1   111.0400475 552.288000
   5162   5169   5172     1   111.0400475 552.288000
   5163   5162   5166     1   112.3500484 533.878400
   5163   5162   5169     1   112.3500484 533.878400
   5163   5175   5187     1   111.5100476 526.347200
   5166   5162   5169     1   112.3500484 533.878400
   5166   5178   5184     1   111.5100476 526.347200
   5169   5172   5181     1   111.5100476 526.347200
   5172   5181   5190     1   107.9700462 569.024000
   5175   5187   9791     1   107.9700462 569.024000
   5178   5184   9768     1   107.9700462 569.024000
   5184   9768   9764     1   112.4800480 524.673600
   5187   9791   9787     1   112.4800480 524.673600
   5191   5192   5204     1   111.0400475 552.288000
   5191   5195   5207     1   111.0400475 552.288000
   5191   5198   5201     1   111.0400475 552.288000
   5192   5191   5195     1   112.3500484 533.878400
   5192   5191   5198     1   112.3500484 533.878400
   5192   5204   5216     1   111.5100476 526.347200
   5195   5191   5198     1   112.3500484 533.878400
   5195   5207   5213     1   111.5100476 526.347200
   5198   5201   5210     1   111.5100476 526.347200
   5201   5210   5219     1   107.9700462 569.024000
   5204   5216   9837     1   107.9700462 569.024000
   5207   5213   9814     1   107.9700462 569.024000
   5213   9814   9810     1   112.4800480 524.673600
   5216   9837   9833     1   112.4800480 524.673600
   5220   5221   5233     1   111.0400475 552.288000
   5220   5224   5236     1   111.0400475 552.288000
   5220   5227   5230     1   111.0400475 552.288000
   5221   5220   5224     1   112.3500484 533.878400
   5221   5220   5227     1   112.3500484 533.878400
   5221   5233   5245     1   111.5100476 526.347200
   5224   5220   5227     1   112.3500484 533.878400
   5224   5236   5242     1   111.5100476 526.347200
   5227   5230   5239     1   111.5100476 526.347200
   5230   5239   5248     1   107.9700462 569.024000
   5233   5245   9883     1   107.9700462 569.024000
   5236   5242   9860     1   107.9700462 569.024000
   5242   9860   9856     1   112.4800480 524.673600
   5245   9883   9879     1   112.4800480 524.673600
   5249   5250   5262     1   111.0400475 552.288000
   5249   5253   5265     1   111.0400475 552.288000
   5249   5256   5259     1   111.0400475 552.288000
   5250   5249   5253     1   112.3500484 533.878400
   5250   5249   5256     1   112.3500484 533.878400
   5250   5262   5274     1   111.5100476 526.347200
   5253   5249   5256     1   112.3500484 533.878400
   5253   5265   5271     1   111.5100476 526.347200
   5256   5259   5268     1   111.5100476 526.347200
   5259   5268   5277     1   107.9700462 569.024000
   5262   5274   9929     1   107.9700462 569.024000
   5265   5271   9906     1   107.9700462 569.024000
   5271   9906   9902     1   112.4800480 524.673600
   5274   9929   9925     1   112.4800480 524.673600
   5278   5279   5291     1   111.0400475 552.288000
   5278   5282   5294     1   111.0400475 552.288000
   5278   5285   5288     1   111.0400475 552.288000
   5279   5278   5282     1   112.3500484 533.878400
   5279   5278   5285     1   112.3500484 533.878400
   5279   5291   5303     1   111.5100476 526.347200
   5282   5278   5285     1   112.3500484 533.878400
   5282   5294   5300     1   111.5100476 526.347200
   5285   5288   5297     1   111.5100476 526.347200
   5288   5297   5306     1   107.9700462 569.024000
   5291   5303   9975     1   107.9700462 569.024000
   5294   5300   9952     1   107.9700462 569.024000
   5300   9952   9948     1   112.4800480 524.673600
   5303   9975   9971     1   112.4800480 524.673600
   5307   5308   5320     1   111.0400475 552.288000
   5307   5311   5323     1   111.0400475 552.288000
   5307   5314   5317     1   111.0400475 552.288000
   5308   5307   5311     1   112.3500484 533.878400
   5308   5307   5314     1   112.3500484 533.878400
   5308   5320   5332     1   111.5100476 526.347200
   5311   5307   5314     1   112.3500484 533.878400
   5311   5323   5329     1   111.5100476 526.347200
   5314   5317   5326     1   111.5100476 526.347200
   5317   5326   5335     1   107.9700462 569.024000
   5320   5332  10021     1   107.9700462 569.024000
   5323   5329   9998     1   107.9700462 569.024000
   5329   9998   9994     1   112.4800480 524.673600
   5332  10021  10017     1   112.4800480 524.673600
   5336   5337   5349     1   111.0400475 552.288000
   5336   5340   5352     1   111.0400475 552.288000
   5336   5343   5346     1   111.0400475 552.288000
   5337   5336   5340     1   112.3500484 533.878400
   5337   5336   5343     1   112.3500484 533.878400
   5337   5349   5361     1   111.5100476 526.347200
   5340   5336   5343     1   112.3500484 533.878400
   5340   5352   5358     1   111.5100476 526.347200
   5343   5346   5355     1   111.5100476 526.347200
   5346   5355   5364     1   107.9700462 569.024000
   5349   5361  10067     1   107.9700462 569.024000
   5352   5358  10044     1   107.9700462 569.024000
   5358  10044  10040     1   112.4800480 524.673600
   5361  10067  10063     1   112.4800480 524.673600
   5365   5366   5378     1   111.0400475 552.288000
   5365   5369   5381     1   111.0400475 552.288000
   5365   5372   5375     1   111.0400475 552.288000
   5366   5365   5369     1   112.3500484 533.878400
   5366   5365   5372     1   112.3500484 533.878400
   5366   5378   5390     1   111.5100476 526.347200
   5369   5365   5372     1   112.3500484 533.878400
   5369   5381   5387     1   111.5100476 526.347200
   5372   5375   5384     1   111.5100476 526.347200
   5375   5384   5393     1   107.9700462 569.024000
   5378   5390  10113     1   107.9700462 569.024000
   5381   5387  10090     1   107.9700462 569.024000
   5387  10090  10086     1   112.4800480 524.673600
   5390  10113  10109     1   112.4800480 524.673600
   5394   5395   5407     1   111.0400475 552.288000
   5394   5398   5410     1   111.0400475 552.288000
   5394   5401   5404     1   111.0400475 552.288000
   5395   5394   5398     1   112.3500484 533.878400
   5395   5394   5401     1   112.3500484 533.878400
   5395   5407   5419     1   111.5100476 526.347200
   5398   5394   5401     1   112.3500484 533.878400
   5398   5410   5416     1   111.5100476 526.347200
   5401   5404   5413     1   111.5100476 526.347200
   5404   5413   5422     1   107.9700462 569.024000
   5407   5419  10159     1   107.9700462 569.024000
   5410   5416  10136     1   107.9700462 569.024000
   5416  10136  10132     1   112.4800480 524.673600
   5419  10159  10155     1   112.4800480 524.673600
   5423   5424   5436     1   111.0400475 552.288000
   5423   5427   5439     1   111.0400475 552.288000
   5423   5430   5433     1   111.0400475 552.288000
   5424   5423   5427     1   112.3500484 533.878400
   5424   5423   5430     1   112.3500484 533.878400
   5424   5436   5448     1   111.5100476 526.347200
   5427   5423   5430     1   112.3500484 533.878400
   5427   5439   5445     1   111.5100476 526.347200
   5430   5433   5442     1   111.5100476 526.347200
   5433   5442   5451     1   107.9700462 569.024000
   5436   5448  10205     1   107.9700462 569.024000
   5439   5445  10182     1   107.9700462 569.024000
   5445  10182  10178     1   112.4800480 524.673600
   5448  10205  10201     1   112.4800480 524.673600
   5452   5453   5465     1   111.0400475 552.288000
   5452   5456   5468     1   111.0400475 552.288000
   5452   5459   5462     1   111.0400475 552.288000
   5453   5452   5456     1   112.3500484 533.878400
   5453   5452   5459     1   112.3500484 533.878400
   5453   5465   5477     1   111.5100476 526.347200
   5456   5452   5459     1   112.3500484 533.878400
   5456   5468   5474     1   111.5100476 526.347200
   5459   5462   5471     1   111.5100476 526.347200
   5462   5471   5480     1   107.9700462 569.024000
   5465   5477  10251     1   107.9700462 569.024000
   5468   5474  10228     1   107.9700462 569.024000
   5474  10228  10224     1   112.4800480 524.673600
   5477  10251  10247     1   112.4800480 524.673600
   5481   5482   5494     1   111.0400475 552.288000
   5481   5485   5497     1   111.0400475 552.288000
   5481   5488   5491     1   111.0400475 552.288000
   5482   5481   5485     1   112.3500484 533.878400
   5482   5481   5488     1   112.3500484 533.878400
   5482   5494   5506     1   111.5100476 526.347200
   5485   5481   5488     1   112.3500484 533.878400
   5485   5497   5503     1   111.5100476 526.347200
   5488   5491   5500     1   111.5100476 526.347200
   5491   5500   5509     1   107.9700462 569.024000
   5494   5506  10297     1   107.9700462 569.024000
   5497   5503  10274     1   107.9700462 569.024000
   5503  10274  10270     1   112.4800480 524.673600
   5506  10297  10293     1   112.4800480 524.673600
   5510   5511   5523     1   111.0400475 552.288000
   5510   5514   5526     1   111.0400475 552.288000
   5510   5517   5520     1   111.0400475 552.288000
   5511   5510   5514     1   112.3500484 533.878400
   5511   5510   5517     1   112.3500484 533.878400
   5511   5523   5535     1   111.5100476 526.347200
   5514   5510   5517     1   112.3500484 533.878400
   5514   5526   5532     1   111.5100476 526.347200
   5517   5520   5529     1   111.5100476 526.347200
   5520   5529   5538     1   107.9700462 569.024000
   5523   5535  10343     1   107.9700462 569.024000
   5526   5532  10320     1   107.9700462 569.024000
   5532  10320  10316     1   112.4800480 524.673600
   5535  10343  10339     1   112.4800480 524.673600
   5539   5540   5552     1   111.0400475 552.288000
   5539   5543   5555     1   111.0400475 552.288000
   5539   5546   5549     1   111.0400475 552.288000
   5540   5539   5543     1   112.3500484 533.878400
   5540   5539   5546     1   112.3500484 533.878400
   5540   5552   5564     1   111.5100476 526.347200
   5543   5539   5546     1   112.3500484 533.878400
   5543   5555   5561     1   111.5100476 526.347200
   5546   5549   5558     1   111.5100476 526.347200
   5549   5558   5567     1   107.9700462 569.024000
   5552   5564  10389     1   107.9700462 569.024000
   5555   5561  10366     1   107.9700462 569.024000
   5561  10366  10362     1   112.4800480 524.673600
   5564  10389  10385     1   112.4800480 524.673600
   5568   5569   5581     1   111.0400475 552.288000
   5568   5572   5584     1   111.0400475 552.288000
   5568   5575   5578     1   111.0400475 552.288000
   5569   5568   5572     1   112.3500484 533.878400
   5569   5568   5575     1   112.3500484 533.878400
   5569   5581   5593     1   111.5100476 526.347200
   5572   5568   5575     1   112.3500484 533.878400
   5572   5584   5590     1   111.5100476 526.347200
   5575   5578   5587     1   111.5100476 526.347200
   5578   5587   5596     1   107.9700462 569.024000
   5581   5593  10435     1   107.9700462 569.024000
   5584   5590  10412     1   107.9700462 569.024000
   5590  10412  10408     1   112.4800480 524.673600
   5593  10435  10431     1   112.4800480 524.673600
   5597   5598   5610     1   111.0400475 552.288000
   5597   5601   5613     1   111.0400475 552.288000
   5597   5604   5607     1   111.0400475 552.288000
   5598   5597   5601     1   112.3500484 533.878400
   5598   5597   5604     1   112.3500484 533.878400
   5598   5610   5622     1   111.5100476 526.347200
   5601   5597   5604     1   112.3500484 533.878400
   5601   5613   5619     1   111.5100476 526.347200
   5604   5607   5616     1   111.5100476 526.347200
   5607   5616   5625     1   107.9700462 569.024000
   5610   5622  10481     1   107.9700462 569.024000
   5613   5619  10458     1   107.9700462 569.024000
   5619  10458  10454     1   112.4800480 524.673600
   5622  10481  10477     1   112.4800480 524.673600
   5626   5627   5639     1   111.0400475 552.288000
   5626   5630   5642     1   111.0400475 552.288000
   5626   5633   5636     1   111.0400475 552.288000
   5627   5626   5630     1   112.3500484 533.878400
   5627   5626   5633     1   112.3500484 533.878400
   5627   5639   5651     1   111.5100476 526.347200
   5630   5626   5633     1   112.3500484 533.878400
   5630   5642   5648     1   111.5100476 526.347200
   5633   5636   5645     1   111.5100476 526.347200
   5636   5645   5654     1   107.9700462 569.024000
   5639   5651  10527     1   107.9700462 569.024000
   5642   5648  10504     1   107.9700462 569.024000
   5648  10504  10500     1   112.4800480 524.673600
   5651  10527  10523     1   112.4800480 524.673600
   5655   5656   5668     1   111.0400475 552.288000
   5655   5659   5671     1   111.0400475 552.288000
   5655   5662   5665     1   111.0400475 552.288000
   5656   5655   5659     1   112.3500484 533.878400
   5656   5655   5662     1   112.3500484 533.878400
   5656   5668   5680     1   111.5100476 526.347200
   5659   5655   5662     1   112.3500484 533.878400
   5659   5671   5677     1   111.5100476 526.347200
   5662   5665   5674     1   111.5100476 526.347200
   5665   5674   5683     1   107.9700462 569.024000
   5668   5680  10573     1   107.9700462 569.024000
   5671   5677  10550     1   107.9700462 569.024000
   5677  10550  10546     1   112.4800480 524.673600
   5680  10573  10569     1   112.4800480 524.673600
   5684   5685   5697     1   111.0400475 552.288000
   5684   5688   5700     1   111.0400475 552.288000
   5684   5691   5694     1   111.0400475 552.288000
   5685   5684   5688     1   112.3500484 533.878400
   5685   5684   5691     1   112.3500484 533.878400
   5685   5697   5709     1   111.5100476 526.347200
   5688   5684   5691     1   112.3500484 533.878400
   5688   5700   5706     1   111.5100476 526.347200
   5691   5694   5703     1   111.5100476 526.347200
   5694   5703   5712     1   107.9700462 569.024000
   5697   5709  10619     1   107.9700462 569.024000
   5700   5706  10596     1   107.9700462 569.024000
   5706  10596  10592     1   112.4800480 524.673600
   5709  10619  10615     1   112.4800480 524.673600
   5713   5714   5726     1   111.0400475 552.288000
   5713   5717   5729     1   111.0400475 552.288000
   5713   5720   5723     1   111.0400475 552.288000
   5714   5713   5717     1   112.3500484 533.878400
   5714   5713   5720     1   112.3500484 533.878400
   5714   5726   5738     1   111.5100476 526.347200
   5717   5713   5720     1   112.3500484 533.878400
   5717   5729   5735     1   111.5100476 526.347200
   5720   5723   5732     1   111.5100476 526.347200
   5723   5732   5741     1   107.9700462 569.024000
   5726   5738  10665     1   107.9700462 569.024000
   5729   5735  10642     1   107.9700462 569.024000
   5735  10642  10638     1   112.4800480 524.673600
   5738  10665  10661     1   112.4800480 524.673600
   5742   5743   5755     1   111.0400475 552.288000
   5742   5746   5758     1   111.0400475 552.288000
   5742   5749   5752     1   111.0400475 552.288000
   5743   5742   5746     1   112.3500484 533.878400
   5743   5742   5749     1   112.3500484 533.878400
   5743   5755   5767     1   111.5100476 526.347200
   5746   5742   5749     1   112.3500484 533.878400
   5746   5758   5764     1   111.5100476 526.347200
   5749   5752   5761     1   111.5100476 526.347200
   5752   5761   5770     1   107.9700462 569.024000
   5755   5767  10711     1   107.9700462 569.024000
   5758   5764  10688     1   107.9700462 569.024000
   5764  10688  10684     1   112.4800480 524.673600
   5767  10711  10707     1   112.4800480 524.673600
   5771   5772   5784     1   111.0400475 552.288000
   5771   5775   5787     1   111.0400475 552.288000
   5771   5778   5781     1   111.0400475 552.288000
   5772   5771   5775     1   112.3500484 533.878400
   5772   5771   5778     1   112.3500484 533.878400
   5772   5784   5796     1   111.5100476 526.347200
   5775   5771   5778     1   112.3500484 533.878400
   5775   5787   5793     1   111.5100476 526.347200
   5778   5781   5790     1   111.5100476 526.347200
   5781   5790   5799     1   107.9700462 569.024000
   5784   5796  10757     1   107.9700462 569.024000
   5787   5793  10734     1   107.9700462 569.024000
   5793  10734  10730     1   112.4800480 524.673600
   5796  10757  10753     1   112.4800480 524.673600
   5800   5801   5813     1   111.0400475 552.288000
   5800   5804   5816     1   111.0400475 552.288000
   5800   5807   5810     1   111.0400475 552.288000
   5801   5800   5804     1   112.3500484 533.878400
   5801   5800   5807     1   112.3500484 533.878400
   5801   5813   5825     1   111.5100476 526.347200
   5804   5800   5807     1   112.3500484 533.878400
   5804   5816   5822     1   111.5100476 526.347200
   5807   5810   5819     1   111.5100476 526.347200
   5810   5819   5828     1   107.9700462 569.024000
   5813   5825  10803     1   107.9700462 569.024000
   5816   5822  10780     1   107.9700462 569.024000
   5822  10780  10776     1   112.4800480 524.673600
   5825  10803  10799     1   112.4800480 524.673600
   5829   5830   5842     1   111.0400475 552.288000
   5829   5833   5845     1   111.0400475 552.288000
   5829   5836   5839     1   111.0400475 552.288000
   5830   5829   5833     1   112.3500484 533.878400
   5830   5829   5836     1   112.3500484 533.878400
   5830   5842   5854     1   111.5100476 526.347200
   5833   5829   5836     1   112.3500484 533.878400
   5833   5845   5851     1   111.5100476 526.347200
   5836   5839   5848     1   111.5100476 526.347200
   5839   5848   5857     1   107.9700462 569.024000
   5842   5854  10849     1   107.9700462 569.024000
   5845   5851  10826     1   107.9700462 569.024000
   5851  10826  10822     1   112.4800480 524.673600
   5854  10849  10845     1   112.4800480 524.673600
   5858   5859   5871     1   111.0400475 552.288000
   5858   5862   5874     1   111.0400475 552.288000
   5858   5865   5868     1   111.0400475 552.288000
   5859   5858   5862     1   112.3500484 533.878400
   5859   5858   5865     1   112.3500484 533.878400
   5859   5871   5883     1   111.5100476 526.347200
   5862   5858   5865     1   112.3500484 533.878400
   5862   5874   5880     1   111.5100476 526.347200
   5865   5868   5877     1   111.5100476 526.347200
   5868   5877   5886     1   107.9700462 569.024000
   5871   5883  10895     1   107.9700462 569.024000
   5874   5880  10872     1   107.9700462 569.024000
   5880  10872  10868     1   112.4800480 524.673600
   5883  10895  10891     1   112.4800480 524.673600
   5887   5888   5900     1   111.0400475 552.288000
   5887   5891   5903     1   111.0400475 552.288000
   5887   5894   5897     1   111.0400475 552.288000
   5888   5887   5891     1   112.3500484 533.878400
   5888   5887   5894     1   112.3500484 533.878400
   5888   5900   5912     1   111.5100476 526.347200
   5891   5887   5894     1   112.3500484 533.878400
   5891   5903   5909     1   111.5100476 526.347200
   5894   5897   5906     1   111.5100476 526.347200
   5897   5906   5915     1   107.9700462 569.024000
   5900   5912  10941     1   107.9700462 569.024000
   5903   5909  10918     1   107.9700462 569.024000
   5909  10918  10914     1   112.4800480 524.673600
   5912  10941  10937     1   112.4800480 524.673600
   5916   5917   5929     1   111.0400475 552.288000
   5916   5920   5932     1   111.0400475 552.288000
   5916   5923   5926     1   111.0400475 552.288000
   5917   5916   5920     1   112.3500484 533.878400
   5917   5916   5923     1   112.3500484 533.878400
   5917   5929   5941     1   111.5100476 526.347200
   5920   5916   5923     1   112.3500484 533.878400
   5920   5932   5938     1   111.5100476 526.347200
   5923   5926   5935     1   111.5100476 526.347200
   5926   5935   5944     1   107.9700462 569.024000
   5929   5941  10987     1   107.9700462 569.024000
   5932   5938  10964     1   107.9700462 569.024000
   5938  10964  10960     1   112.4800480 524.673600
   5941  10987  10983     1   112.4800480 524.673600
   5945   5946   5958     1   111.0400475 552.288000
   5945   5949   5961     1   111.0400475 552.288000
   5945   5952   5955     1   111.0400475 552.288000
   5946   5945   5949     1   112.3500484 533.878400
   5946   5945   5952     1   112.3500484 533.878400
   5946   5958   5970     1   111.5100476 526.347200
   5949   5945   5952     1   112.3500484 533.878400
   5949   5961   5967     1   111.5100476 526.347200
   5952   5955   5964     1   111.5100476 526.347200
   5955   5964   5973     1   107.9700462 569.024000
   5958   5970  11033     1   107.9700462 569.024000
   5961   5967  11010     1   107.9700462 569.024000
   5967  11010  11006     1   112.4800480 524.673600
   5970  11033  11029     1   112.4800480 524.673600
   5974   5975   5987     1   111.0400475 552.288000
   5974   5978   5990     1   111.0400475 552.288000
   5974   5981   5984     1   111.0400475 552.288000
   5975   5974   5978     1   112.3500484 533.878400
   5975   5974   5981     1   112.3500484 533.878400
   5975   5987   5999     1   111.5100476 526.347200
   5978   5974   5981     1   112.3500484 533.878400
   5978   5990   5996     1   111.5100476 526.347200
   5981   5984   5993     1   111.5100476 526.347200
   5984   5993   6002     1   107.9700462 569.024000
   5987   5999  11079     1   107.9700462 569.024000
   5990   5996  11056     1   107.9700462 569.024000
   5996  11056  11052     1   112.4800480 524.673600
   5999  11079  11075     1   112.4800480 524.673600
   6003   6004   6016     1   111.0400475 552.288000
   6003   6007   6019     1   111.0400475 552.288000
   6003   6010   6013     1   111.0400475 552.288000
   6004   6003   6007     1   112.3500484 533.878400
   6004   6003   6010     1   112.3500484 533.878400
   6004   6016   6028     1   111.5100476 526.347200
   6007   6003   6010     1   112.3500484 533.878400
   6007   6019   6025     1   111.5100476 526.347200
   6010   6013   6022     1   111.5100476 526.347200
   6013   6022   6031     1   107.9700462 569.024000
   6016   6028  11125     1   107.9700462 569.024000
   6019   6025  11102     1   107.9700462 569.024000
   6025  11102  11098     1   112.4800480 524.673600
   6028  11125  11121     1   112.4800480 524.673600
   6032   6033   6045     1   111.0400475 552.288000
   6032   6036   6048     1   111.0400475 552.288000
   6032   6039   6042     1   111.0400475 552.288000
   6033   6032   6036     1   112.3500484 533.878400
   6033   6032   6039     1   112.3500484 533.878400
   6033   6045   6057     1   111.5100476 526.347200
   6036   6032   6039     1   112.3500484 533.878400
   6036   6048   6054     1   111.5100476 526.347200
   6039   6042   6051     1   111.5100476 526.347200
   6042   6051   6060     1   107.9700462 569.024000
   6045   6057  11171     1   107.9700462 569.024000
   6048   6054  11148     1   107.9700462 569.024000
   6054  11148  11144     1   112.4800480 524.673600
   6057  11171  11167     1   112.4800480 524.673600
   6061   6062   6074     1   111.0400475 552.288000
   6061   6065   6077     1   111.0400475 552.288000
   6061   6068   6071     1   111.0400475 552.288000
   6062   6061   6065     1   112.3500484 533.878400
   6062   6061   6068     1   112.3500484 533.878400
   6062   6074   6086     1   111.5100476 526.347200
   6065   6061   6068     1   112.3500484 533.878400
   6065   6077   6083     1   111.5100476 526.347200
   6068   6071   6080     1   111.5100476 526.347200
   6071   6080   6089     1   107.9700462 569.024000
   6074   6086  11217     1   107.9700462 569.024000
   6077   6083  11194     1   107.9700462 569.024000
   6083  11194  11190     1   112.4800480 524.673600
   6086  11217  11213     1   112.4800480 524.673600
   6090   6091   6103     1   111.0400475 552.288000
   6090   6094   6106     1   111.0400475 552.288000
   6090   6097   6100     1   111.0400475 552.288000
   6091   6090   6094     1   112.3500484 533.878400
   6091   6090   6097     1   112.3500484 533.878400
   6091   6103   6115     1   111.5100476 526.347200
   6094   6090   6097     1   112.3500484 533.878400
   6094   6106   6112     1   111.5100476 526.347200
   6097   6100   6109     1   111.5100476 526.347200
   6100   6109   6118     1   107.9700462 569.024000
   6103   6115  11263     1   107.9700462 569.024000
   6106   6112  11240     1   107.9700462 569.024000
   6112  11240  11236     1   112.4800480 524.673600
   6115  11263  11259     1   112.4800480 524.673600
   6119   6120   6132     1   111.0400475 552.288000
   6119   6123   6135     1   111.0400475 552.288000
   6119   6126   6129     1   111.0400475 552.288000
   6120   6119   6123     1   112.3500484 533.878400
   6120   6119   6126     1   112.3500484 533.878400
   6120   6132   6144     1   111.5100476 526.347200
   6123   6119   6126     1   112.3500484 533.878400
   6123   6135   6141     1   111.5100476 526.347200
   6126   6129   6138     1   111.5100476 526.347200
   6129   6138   6147     1   107.9700462 569.024000
   6132   6144  11309     1   107.9700462 569.024000
   6135   6141  11286     1   107.9700462 569.024000
   6141  11286  11282     1   112.4800480 524.673600
   6144  11309  11305     1   112.4800480 524.673600
   6148   6149   6161     1   111.0400475 552.288000
   6148   6152   6164     1   111.0400475 552.288000
   6148   6155   6158     1   111.0400475 552.288000
   6149   6148   6152     1   112.3500484 533.878400
   6149   6148   6155     1   112.3500484 533.878400
   6149   6161   6173     1   111.5100476 526.347200
   6152   6148   6155     1   112.3500484 533.878400
   6152   6164   6170     1   111.5100476 526.347200
   6155   6158   6167     1   111.5100476 526.347200
   6158   6167   6176     1   107.9700462 569.024000
   6161   6173  11355     1   107.9700462 569.024000
   6164   6170  11332     1   107.9700462 569.024000
   6170  11332  11328     1   112.4800480 524.673600
   6173  11355  11351     1   112.4800480 524.673600
   6177   6178   6190     1   111.0400475 552.288000
   6177   6181   6193     1   111.0400475 552.288000
   6177   6184   6187     1   111.0400475 552.288000
   6178   6177   6181     1   112.3500484 533.878400
   6178   6177   6184     1   112.3500484 533.878400
   6178   6190   6202     1   111.5100476 526.347200
   6181   6177   6184     1   112.3500484 533.878400
   6181   6193   6199     1   111.5100476 526.347200
   6184   6187   6196     1   111.5100476 526.347200
   6187   6196   6205     1   107.9700462 569.024000
   6190   6202  11401     1   107.9700462 569.024000
   6193   6199  11378     1   107.9700462 569.024000
   6199  11378  11374     1   112.4800480 524.673600
   6202  11401  11397     1   112.4800480 524.673600
   6206   6207   6219     1   111.0400475 552.288000
   6206   6210   6222     1   111.0400475 552.288000
   6206   6213   6216     1   111.0400475 552.288000
   6207   6206   6210     1   112.3500484 533.878400
   6207   6206   6213     1   112.3500484 533.878400
   6207   6219   6231     1   111.5100476 526.347200
   6210   6206   6213     1   112.3500484 533.878400
   6210   6222   6228     1   111.5100476 526.347200
   6213   6216   6225     1   111.5100476 526.347200
   6216   6225   6234     1   107.9700462 569.024000
   6219   6231  11447     1   107.9700462 569.024000
   6222   6228  11424     1   107.9700462 569.024000
   6228  11424  11420     1   112.4800480 524.673600
   6231  11447  11443     1   112.4800480 524.673600
   6235   6236   6248     1   111.0400475 552.288000
   6235   6239   6251     1   111.0400475 552.288000
   6235   6242   6245     1   111.0400475 552.288000
   6236   6235   6239     1   112.3500484 533.878400
   6236   6235   6242     1   112.3500484 533.878400
   6236   6248   6260     1   111.5100476 526.347200
   6239   6235   6242     1   112.3500484 533.878400
   6239   6251   6257     1   111.5100476 526.347200
   6242   6245   6254     1   111.5100476 526.347200
   6245   6254   6263     1   107.9700462 569.024000
   6248   6260  11493     1   107.9700462 569.024000
   6251   6257  11470     1   107.9700462 569.024000
   6257  11470  11466     1   112.4800480 524.673600
   6260  11493  11489     1   112.4800480 524.673600
   6264   6265   6277     1   111.0400475 552.288000
   6264   6268   6280     1   111.0400475 552.288000
   6264   6271   6274     1   111.0400475 552.288000
   6265   6264   6268     1   112.3500484 533.878400
   6265   6264   6271     1   112.3500484 533.878400
   6265   6277   6289     1   111.5100476 526.347200
   6268   6264   6271     1   112.3500484 533.878400
   6268   6280   6286     1   111.5100476 526.347200
   6271   6274   6283     1   111.5100476 526.347200
   6274   6283   6292     1   107.9700462 569.024000
   6277   6289  11539     1   107.9700462 569.024000
   6280   6286  11516     1   107.9700462 569.024000
   6286  11516  11512     1   112.4800480 524.673600
   6289  11539  11535     1   112.4800480 524.673600
   6293   6294   6306     1   111.0400475 552.288000
   6293   6297   6309     1   111.0400475 552.288000
   6293   6300   6303     1   111.0400475 552.288000
   6294   6293   6297     1   112.3500484 533.878400
   6294   6293   6300     1   112.3500484 533.878400
   6294   6306   6318     1   111.5100476 526.347200
   6297   6293   6300     1   112.3500484 533.878400
   6297   6309   6315     1   111.5100476 526.347200
   6300   6303   6312     1   111.5100476 526.347200
   6303   6312   6321     1   107.9700462 569.024000
   6306   6318  11585     1   107.9700462 569.024000
   6309   6315  11562     1   107.9700462 569.024000
   6315  11562  11558     1   112.4800480 524.673600
   6318  11585  11581     1   112.4800480 524.673600
   6322   6323   6335     1   111.0400475 552.288000
   6322   6326   6338     1   111.0400475 552.288000
   6322   6329   6332     1   111.0400475 552.288000
   6323   6322   6326     1   112.3500484 533.878400
   6323   6322   6329     1   112.3500484 533.878400
   6323   6335   6347     1   111.5100476 526.347200
   6326   6322   6329     1   112.3500484 533.878400
   6326   6338   6344     1   111.5100476 526.347200
   6329   6332   6341     1   111.5100476 526.347200
   6332   6341   6350     1   107.9700462 569.024000
   6335   6347  11631     1   107.9700462 569.024000
   6338   6344  11608     1   107.9700462 569.024000
   6344  11608  11604     1   112.4800480 524.673600
   6347  11631  11627     1   112.4800480 524.673600
   6351   6352   6364     1   111.0400475 552.288000
   6351   6355   6367     1   111.0400475 552.288000
   6351   6358   6361     1   111.0400475 552.288000
   6352   6351   6355     1   112.3500484 533.878400
   6352   6351   6358     1   112.3500484 533.878400
   6352   6364   6376     1   111.5100476 526.347200
   6355   6351   6358     1   112.3500484 533.878400
   6355   6367   6373     1   111.5100476 526.347200
   6358   6361   6370     1   111.5100476 526.347200
   6361   6370   6379     1   107.9700462 569.024000
   6364   6376  11677     1   107.9700462 569.024000
   6367   6373  11654     1   107.9700462 569.024000
   6373  11654  11650     1   112.4800480 524.673600
   6376  11677  11673     1   112.4800480 524.673600
   6380   6381   6393     1   111.0400475 552.288000
   6380   6384   6396     1   111.0400475 552.288000
   6380   6387   6390     1   111.0400475 552.288000
   6381   6380   6384     1   112.3500484 533.878400
   6381   6380   6387     1   112.3500484 533.878400
   6381   6393   6405     1   111.5100476 526.347200
   6384   6380   6387     1   112.3500484 533.878400
   6384   6396   6402     1   111.5100476 526.347200
   6387   6390   6399     1   111.5100476 526.347200
   6390   6399   6408     1   107.9700462 569.024000
   6393   6405  11723     1   107.9700462 569.024000
   6396   6402  11700     1   107.9700462 569.024000
   6402  11700  11696     1   112.4800480 524.673600
   6405  11723  11719     1   112.4800480 524.673600
   6409   6410   6422     1   111.0400475 552.288000
   6409   6413   6425     1   111.0400475 552.288000
   6409   6416   6419     1   111.0400475 552.288000
   6410   6409   6413     1   112.3500484 533.878400
   6410   6409   6416     1   112.3500484 533.878400
   6410   6422   6434     1   111.5100476 526.347200
   6413   6409   6416     1   112.3500484 533.878400
   6413   6425   6431     1   111.5100476 526.347200
   6416   6419   6428     1   111.5100476 526.347200
   6419   6428   6437     1   107.9700462 569.024000
   6422   6434  11769     1   107.9700462 569.024000
   6425   6431  11746     1   107.9700462 569.024000
   6431  11746  11742     1   112.4800480 524.673600
   6434  11769  11765     1   112.4800480 524.673600
   6438   6439   6451     1   111.0400475 552.288000
   6438   6442   6454     1   111.0400475 552.288000
   6438   6445   6448     1   111.0400475 552.288000
   6439   6438   6442     1   112.3500484 533.878400
   6439   6438   6445     1   112.3500484 533.878400
   6439   6451   6463     1   111.5100476 526.347200
   6442   6438   6445     1   112.3500484 533.878400
   6442   6454   6460     1   111.5100476 526.347200
   6445   6448   6457     1   111.5100476 526.347200
   6448   6457   6466     1   107.9700462 569.024000
   6451   6463  11815     1   107.9700462 569.024000
   6454   6460  11792     1   107.9700462 569.024000
   6460  11792  11788     1   112.4800480 524.673600
   6463  11815  11811     1   112.4800480 524.673600
   6467   6468   6480     1   111.0400475 552.288000
   6467   6471   6483     1   111.0400475 552.288000
   6467   6474   6477     1   111.0400475 552.288000
   6468   6467   6471     1   112.3500484 533.878400
   6468   6467   6474     1   112.3500484 533.878400
   6468   6480   6492     1   111.5100476 526.347200
   6471   6467   6474     1   112.3500484 533.878400
   6471   6483   6489     1   111.5100476 526.347200
   6474   6477   6486     1   111.5100476 526.347200
   6477   6486   6495     1   107.9700462 569.024000
   6480   6492  11861     1   107.9700462 569.024000
   6483   6489  11838     1   107.9700462 569.024000
   6489  11838  11834     1   112.4800480 524.673600
   6492  11861  11857     1   112.4800480 524.673600
   6496   6497   6509     1   111.0400475 552.288000
   6496   6500   6512     1   111.0400475 552.288000
   6496   6503   6506     1   111.0400475 552.288000
   6497   6496   6500     1   112.3500484 533.878400
   6497   6496   6503     1   112.3500484 533.878400
   6497   6509   6521     1   111.5100476 526.347200
   6500   6496   6503     1   112.3500484 533.878400
   6500   6512   6518     1   111.5100476 526.347200
   6503   6506   6515     1   111.5100476 526.347200
   6506   6515   6524     1   107.9700462 569.024000
   6509   6521  11907     1   107.9700462 569.024000
   6512   6518  11884     1   107.9700462 569.024000
   6518  11884  11880     1   112.4800480 524.673600
   6521  11907  11903     1   112.4800480 524.673600
   6525   6526   6538     1   111.0400475 552.288000
   6525   6529   6541     1   111.0400475 552.288000
   6525   6532   6535     1   111.0400475 552.288000
   6526   6525   6529     1   112.3500484 533.878400
   6526   6525   6532     1   112.3500484 533.878400
   6526   6538   6550     1   111.5100476 526.347200
   6529   6525   6532     1   112.3500484 533.878400
   6529   6541   6547     1   111.5100476 526.347200
   6532   6535   6544     1   111.5100476 526.347200
   6535   6544   6553     1   107.9700462 569.024000
   6538   6550  11953     1   107.9700462 569.024000
   6541   6547  11930     1   107.9700462 569.024000
   6547  11930  11926     1   112.4800480 524.673600
   6550  11953  11949     1   112.4800480 524.673600
   6554   6555   6567     1   111.0400475 552.288000
   6554   6558   6570     1   111.0400475 552.288000
   6554   6561   6564     1   111.0400475 552.288000
   6555   6554   6558     1   112.3500484 533.878400
   6555   6554   6561     1   112.3500484 533.878400
   6555   6567   6579     1   111.5100476 526.347200
   6558   6554   6561     1   112.3500484 533.878400
   6558   6570   6576     1   111.5100476 526.347200
   6561   6564   6573     1   111.5100476 526.347200
   6564   6573   6582     1   107.9700462 569.024000
   6567   6579  11999     1   107.9700462 569.024000
   6570   6576  11976     1   107.9700462 569.024000
   6576  11976  11972     1   112.4800480 524.673600
   6579  11999  11995     1   112.4800480 524.673600
   6583   6584   6596     1   111.0400475 552.288000
   6583   6587   6599     1   111.0400475 552.288000
   6583   6590   6593     1   111.0400475 552.288000
   6584   6583   6587     1   112.3500484 533.878400
   6584   6583   6590     1   112.3500484 533.878400
   6584   6596   6608     1   111.5100476 526.347200
   6587   6583   6590     1   112.3500484 533.878400
   6587   6599   6605     1   111.5100476 526.347200
   6590   6593   6602     1   111.5100476 526.347200
   6593   6602   6611     1   107.9700462 569.024000
   6596   6608  12045     1   107.9700462 569.024000
   6599   6605  12022     1   107.9700462 569.024000
   6605  12022  12018     1   112.4800480 524.673600
   6608  12045  12041     1   112.4800480 524.673600
   6612   6613   6625     1   111.0400475 552.288000
   6612   6616   6628     1   111.0400475 552.288000
   6612   6619   6622     1   111.0400475 552.288000
   6613   6612   6616     1   112.3500484 533.878400
   6613   6612   6619     1   112.3500484 533.878400
   6613   6625   6637     1   111.5100476 526.347200
   6616   6612   6619     1   112.3500484 533.878400
   6616   6628   6634     1   111.5100476 526.347200
   6619   6622   6631     1   111.5100476 526.347200
   6622   6631   6640     1   107.9700462 569.024000
   6625   6637  12091     1   107.9700462 569.024000
   6628   6634  12068     1   107.9700462 569.024000
   6634  12068  12064     1   112.4800480 524.673600
   6637  12091  12087     1   112.4800480 524.673600
   6641   6642   6654     1   111.0400475 552.288000
   6641   6645   6657     1   111.0400475 552.288000
   6641   6648   6651     1   111.0400475 552.288000
   6642   6641   6645     1   112.3500484 533.878400
   6642   6641   6648     1   112.3500484 533.878400
   6642   6654   6666     1   111.5100476 526.347200
   6645   6641   6648     1   112.3500484 533.878400
   6645   6657   6663     1   111.5100476 526.347200
   6648   6651   6660     1   111.5100476 526.347200
   6651   6660   6669     1   107.9700462 569.024000
   6654   6666  12137     1   107.9700462 569.024000
   6657   6663  12114     1   107.9700462 569.024000
   6663  12114  12110     1   112.4800480 524.673600
   6666  12137  12133     1   112.4800480 524.673600
   6670   6671   6683     1   111.0400475 552.288000
   6670   6674   6686     1   111.0400475 552.288000
   6670   6677   6680     1   111.0400475 552.288000
   6671   6670   6674     1   112.3500484 533.878400
   6671   6670   6677     1   112.3500484 533.878400
   6671   6683   6695     1   111.5100476 526.347200
   6674   6670   6677     1   112.3500484 533.878400
   6674   6686   6692     1   111.5100476 526.347200
   6677   6680   6689     1   111.5100476 526.347200
   6680   6689   6698     1   107.9700462 569.024000
   6683   6695  12183     1   107.9700462 569.024000
   6686   6692  12160     1   107.9700462 569.024000
   6692  12160  12156     1   112.4800480 524.673600
   6695  12183  12179     1   112.4800480 524.673600
   6699   6700   6712     1   111.0400475 552.288000
   6699   6703   6715     1   111.0400475 552.288000
   6699   6706   6709     1   111.0400475 552.288000
   6700   6699   6703     1   112.3500484 533.878400
   6700   6699   6706     1   112.3500484 533.878400
   6700   6712   6724     1   111.5100476 526.347200
   6703   6699   6706     1   112.3500484 533.878400
   6703   6715   6721     1   111.5100476 526.347200
   6706   6709   6718     1   111.5100476 526.347200
   6709   6718   6727     1   107.9700462 569.024000
   6712   6724  12229     1   107.9700462 569.024000
   6715   6721  12206     1   107.9700462 569.024000
   6721  12206  12202     1   112.4800480 524.673600
   6724  12229  12225     1   112.4800480 524.673600
   6728   6729   6741     1   111.0400475 552.288000
   6728   6732   6744     1   111.0400475 552.288000
   6728   6735   6738     1   111.0400475 552.288000
   6729   6728   6732     1   112.3500484 533.878400
   6729   6728   6735     1   112.3500484 533.878400
   6729   6741   6753     1   111.5100476 526.347200
   6732   6728   6735     1   112.3500484 533.878400
   6732   6744   6750     1   111.5100476 526.347200
   6735   6738   6747     1   111.5100476 526.347200
   6738   6747   6756     1   107.9700462 569.024000
   6741   6753  12275     1   107.9700462 569.024000
   6744   6750  12252     1   107.9700462 569.024000
   6750  12252  12248     1   112.4800480 524.673600
   6753  12275  12271     1   112.4800480 524.673600
   6757   6758   6770     1   111.0400475 552.288000
   6757   6761   6773     1   111.0400475 552.288000
   6757   6764   6767     1   111.0400475 552.288000
   6758   6757   6761     1   112.3500484 533.878400
   6758   6757   6764     1   112.3500484 533.878400
   6758   6770   6782     1   111.5100476 526.347200
   6761   6757   6764     1   112.3500484 533.878400
   6761   6773   6779     1   111.5100476 526.347200
   6764   6767   6776     1   111.5100476 526.347200
   6767   6776   6785     1   107.9700462 569.024000
   6770   6782  12321     1   107.9700462 569.024000
   6773   6779  12298     1   107.9700462 569.024000
   6779  12298  12294     1   112.4800480 524.673600
   6782  12321  12317     1   112.4800480 524.673600
   6786   6787   6799     1   111.0400475 552.288000
   6786   6790   6802     1   111.0400475 552.288000
   6786   6793   6796     1   111.0400475 552.288000
   6787   6786   6790     1   112.3500484 533.878400
   6787   6786   6793     1   112.3500484 533.878400
   6787   6799   6811     1   111.5100476 526.347200
   6790   6786   6793     1   112.3500484 533.878400
   6790   6802   6808     1   111.5100476 526.347200
   6793   6796   6805     1   111.5100476 526.347200
   6796   6805   6814     1   107.9700462 569.024000
   6799   6811  12367     1   107.9700462 569.024000
   6802   6808  12344     1   107.9700462 569.024000
   6808  12344  12340     1   112.4800480 524.673600
   6811  12367  12363     1   112.4800480 524.673600
   6815   6816   6828     1   111.0400475 552.288000
   6815   6819   6831     1   111.0400475 552.288000
   6815   6822   6825     1   111.0400475 552.288000
   6816   6815   6819     1   112.3500484 533.878400
   6816   6815   6822     1   112.3500484 533.878400
   6816   6828   6840     1   111.5100476 526.347200
   6819   6815   6822     1   112.3500484 533.878400
   6819   6831   6837     1   111.5100476 526.347200
   6822   6825   6834     1   111.5100476 526.347200
   6825   6834   6843     1   107.9700462 569.024000
   6828   6840  12413     1   107.9700462 569.024000
   6831   6837  12390     1   107.9700462 569.024000
   6837  12390  12386     1   112.4800480 524.673600
   6840  12413  12409     1   112.4800480 524.673600
   6844   6845   6857     1   111.0400475 552.288000
   6844   6848   6860     1   111.0400475 552.288000
   6844   6851   6854     1   111.0400475 552.288000
   6845   6844   6848     1   112.3500484 533.878400
   6845   6844   6851     1   112.3500484 533.878400
   6845   6857   6869     1   111.5100476 526.347200
   6848   6844   6851     1   112.3500484 533.878400
   6848   6860   6866     1   111.5100476 526.347200
   6851   6854   6863     1   111.5100476 526.347200
   6854   6863   6872     1   107.9700462 569.024000
   6857   6869  12459     1   107.9700462 569.024000
   6860   6866  12436     1   107.9700462 569.024000
   6866  12436  12432     1   112.4800480 524.673600
   6869  12459  12455     1   112.4800480 524.673600
   6873   6874   6886     1   111.0400475 552.288000
   6873   6877   6889     1   111.0400475 552.288000
   6873   6880   6883     1   111.0400475 552.288000
   6874   6873   6877     1   112.3500484 533.878400
   6874   6873   6880     1   112.3500484 533.878400
   6874   6886   6898     1   111.5100476 526.347200
   6877   6873   6880     1   112.3500484 533.878400
   6877   6889   6895     1   111.5100476 526.347200
   6880   6883   6892     1   111.5100476 526.347200
   6883   6892   6901     1   107.9700462 569.024000
   6886   6898  12505     1   107.9700462 569.024000
   6889   6895  12482     1   107.9700462 569.024000
   6895  12482  12478     1   112.4800480 524.673600
   6898  12505  12501     1   112.4800480 524.673600
   6902   6903   6915     1   111.0400475 552.288000
   6902   6906   6918     1   111.0400475 552.288000
   6902   6909   6912     1   111.0400475 552.288000
   6903   6902   6906     1   112.3500484 533.878400
   6903   6902   6909     1   112.3500484 533.878400
   6903   6915   6927     1   111.5100476 526.347200
   6906   6902   6909     1   112.3500484 533.878400
   6906   6918   6924     1   111.5100476 526.347200
   6909   6912   6921     1   111.5100476 526.347200
   6912   6921   6930     1   107.9700462 569.024000
   6915   6927  12551     1   107.9700462 569.024000
   6918   6924  12528     1   107.9700462 569.024000
   6924  12528  12524     1   112.4800480 524.673600
   6927  12551  12547     1   112.4800480 524.673600
   6931   6932   6944     1   111.0400475 552.288000
   6931   6935   6947     1   111.0400475 552.288000
   6931   6938   6941     1   111.0400475 552.288000
   6932   6931   6935     1   112.3500484 533.878400
   6932   6931   6938     1   112.3500484 533.878400
   6932   6944   6956     1   111.5100476 526.347200
   6935   6931   6938     1   112.3500484 533.878400
   6935   6947   6953     1   111.5100476 526.347200
   6938   6941   6950     1   111.5100476 526.347200
   6941   6950   6959     1   107.9700462 569.024000
   6944   6956  12597     1   107.9700462 569.024000
   6947   6953  12574     1   107.9700462 569.024000
   6953  12574  12570     1   112.4800480 524.673600
   6956  12597  12593     1   112.4800480 524.673600
   6960   6961   6973     1   111.0400475 552.288000
   6960   6964   6976     1   111.0400475 552.288000
   6960   6967   6970     1   111.0400475 552.288000
   6961   6960   6964     1   112.3500484 533.878400
   6961   6960   6967     1   112.3500484 533.878400
   6961   6973   6985     1   111.5100476 526.347200
   6964   6960   6967     1   112.3500484 533.878400
   6964   6976   6982     1   111.5100476 526.347200
   6967   6970   6979     1   111.5100476 526.347200
   6970   6979   6988     1   107.9700462 569.024000
   6973   6985  12643     1   107.9700462 569.024000
   6976   6982  12620     1   107.9700462 569.024000
   6982  12620  12616     1   112.4800480 524.673600
   6985  12643  12639     1   112.4800480 524.673600
   6989   6990   7002     1   111.0400475 552.288000
   6989   6993   7005     1   111.0400475 552.288000
   6989   6996   6999     1   111.0400475 552.288000
   6990   6989   6993     1   112.3500484 533.878400
   6990   6989   6996     1   112.3500484 533.878400
   6990   7002   7014     1   111.5100476 526.347200
   6993   6989   6996     1   112.3500484 533.878400
   6993   7005   7011     1   111.5100476 526.347200
   6996   6999   7008     1   111.5100476 526.347200
   6999   7008   7017     1   107.9700462 569.024000
   7002   7014  12689     1   107.9700462 569.024000
   7005   7011  12666     1   107.9700462 569.024000
   7011  12666  12662     1   112.4800480 524.673600
   7014  12689  12685     1   112.4800480 524.673600
   7018   7019   7031     1   111.0400475 552.288000
   7018   7022   7034     1   111.0400475 552.288000
   7018   7025   7028     1   111.0400475 552.288000
   7019   7018   7022     1   112.3500484 533.878400
   7019   7018   7025     1   112.3500484 533.878400
   7019   7031   7043     1   111.5100476 526.347200
   7022   7018   7025     1   112.3500484 533.878400
   7022   7034   7040     1   111.5100476 526.347200
   7025   7028   7037     1   111.5100476 526.347200
   7028   7037   7046     1   107.9700462 569.024000
   7031   7043  12735     1   107.9700462 569.024000
   7034   7040  12712     1   107.9700462 569.024000
   7040  12712  12708     1   112.4800480 524.673600
   7043  12735  12731     1   112.4800480 524.673600
   7047   7048   7060     1   111.0400475 552.288000
   7047   7051   7063     1   111.0400475 552.288000
   7047   7054   7057     1   111.0400475 552.288000
   7048   7047   7051     1   112.3500484 533.878400
   7048   7047   7054     1   112.3500484 533.878400
   7048   7060   7072     1   111.5100476 526.347200
   7051   7047   7054     1   112.3500484 533.878400
   7051   7063   7069     1   111.5100476 526.347200
   7054   7057   7066     1   111.5100476 526.347200
   7057   7066   7075     1   107.9700462 569.024000
   7060   7072  12781     1   107.9700462 569.024000
   7063   7069  12758     1   107.9700462 569.024000
   7069  12758  12754     1   112.4800480 524.673600
   7072  12781  12777     1   112.4800480 524.673600
   7076   7077   7089     1   111.0400475 552.288000
   7076   7080   7092     1   111.0400475 552.288000
   7076   7083   7086     1   111.0400475 552.288000
   7077   7076   7080     1   112.3500484 533.878400
   7077   7076   7083     1   112.3500484 533.878400
   7077   7089   7101     1   111.5100476 526.347200
   7080   7076   7083     1   112.3500484 533.878400
   7080   7092   7098     1   111.5100476 526.347200
   7083   7086   7095     1   111.5100476 526.347200
   7086   7095   7104     1   107.9700462 569.024000
   7089   7101  12827     1   107.9700462 569.024000
   7092   7098  12804     1   107.9700462 569.024000
   7098  12804  12800     1   112.4800480 524.673600
   7101  12827  12823     1   112.4800480 524.673600
   7105   7106   7118     1   111.0400475 552.288000
   7105   7109   7121     1   111.0400475 552.288000
   7105   7112   7115     1   111.0400475 552.288000
   7106   7105   7109     1   112.3500484 533.878400
   7106   7105   7112     1   112.3500484 533.878400
   7106   7118   7130     1   111.5100476 526.347200
   7109   7105   7112     1   112.3500484 533.878400
   7109   7121   7127     1   111.5100476 526.347200
   7112   7115   7124     1   111.5100476 526.347200
   7115   7124   7133     1   107.9700462 569.024000
   7118   7130  12873     1   107.9700462 569.024000
   7121   7127  12850     1   107.9700462 569.024000
   7127  12850  12846     1   112.4800480 524.673600
   7130  12873  12869     1   112.4800480 524.673600
   7134   7135   7147     1   111.0400475 552.288000
   7134   7138   7150     1   111.0400475 552.288000
   7134   7141   7144     1   111.0400475 552.288000
   7135   7134   7138     1   112.3500484 533.878400
   7135   7134   7141     1   112.3500484 533.878400
   7135   7147   7159     1   111.5100476 526.347200
   7138   7134   7141     1   112.3500484 533.878400
   7138   7150   7156     1   111.5100476 526.347200
   7141   7144   7153     1   111.5100476 526.347200
   7144   7153   7162     1   107.9700462 569.024000
   7147   7159  12919     1   107.9700462 569.024000
   7150   7156  12896     1   107.9700462 569.024000
   7156  12896  12892     1   112.4800480 524.673600
   7159  12919  12915     1   112.4800480 524.673600
   7163   7164   7176     1   111.0400475 552.288000
   7163   7167   7179     1   111.0400475 552.288000
   7163   7170   7173     1   111.0400475 552.288000
   7164   7163   7167     1   112.3500484 533.878400
   7164   7163   7170     1   112.3500484 533.878400
   7164   7176   7188     1   111.5100476 526.347200
   7167   7163   7170     1   112.3500484 533.878400
   7167   7179   7185     1   111.5100476 526.347200
   7170   7173   7182     1   111.5100476 526.347200
   7173   7182   7191     1   107.9700462 569.024000
   7176   7188  12965     1   107.9700462 569.024000
   7179   7185  12942     1   107.9700462 569.024000
   7185  12942  12938     1   112.4800480 524.673600
   7188  12965  12961     1   112.4800480 524.673600
   7192   7193   7205     1   111.0400475 552.288000
   7192   7196   7208     1   111.0400475 552.288000
   7192   7199   7202     1   111.0400475 552.288000
   7193   7192   7196     1   112.3500484 533.878400
   7193   7192   7199     1   112.3500484 533.878400
   7193   7205   7217     1   111.5100476 526.347200
   7196   7192   7199     1   112.3500484 533.878400
   7196   7208   7214     1   111.5100476 526.347200
   7199   7202   7211     1   111.5100476 526.347200
   7202   7211   7220     1   107.9700462 569.024000
   7205   7217  13011     1   107.9700462 569.024000
   7208   7214  12988     1   107.9700462 569.024000
   7214  12988  12984     1   112.4800480 524.673600
   7217  13011  13007     1   112.4800480 524.673600
   7221   7222   7234     1   111.0400475 552.288000
   7221   7225   7237     1   111.0400475 552.288000
   7221   7228   7231     1   111.0400475 552.288000
   7222   7221   7225     1   112.3500484 533.878400
   7222   7221   7228     1   112.3500484 533.878400
   7222   7234   7246     1   111.5100476 526.347200
   7225   7221   7228     1   112.3500484 533.878400
   7225   7237   7243     1   111.5100476 526.347200
   7228   7231   7240     1   111.5100476 526.347200
   7231   7240   7249     1   107.9700462 569.024000
   7234   7246  13057     1   107.9700462 569.024000
   7237   7243  13034     1   107.9700462 569.024000
   7243  13034  13030     1   112.4800480 524.673600
   7246  13057  13053     1   112.4800480 524.673600
   7250   7251   7263     1   111.0400475 552.288000
   7250   7254   7266     1   111.0400475 552.288000
   7250   7257   7260     1   111.0400475 552.288000
   7251   7250   7254     1   112.3500484 533.878400
   7251   7250   7257     1   112.3500484 533.878400
   7251   7263   7275     1   111.5100476 526.347200
   7254   7250   7257     1   112.3500484 533.878400
   7254   7266   7272     1   111.5100476 526.347200
   7257   7260   7269     1   111.5100476 526.347200
   7260   7269   7278     1   107.9700462 569.024000
   7263   7275  13103     1   107.9700462 569.024000
   7266   7272  13080     1   107.9700462 569.024000
   7272  13080  13076     1   112.4800480 524.673600
   7275  13103  13099     1   112.4800480 524.673600
   7279   7280   7292     1   111.0400475 552.288000
   7279   7283   7295     1   111.0400475 552.288000
   7279   7286   7289     1   111.0400475 552.288000
   7280   7279   7283     1   112.3500484 533.878400
   7280   7279   7286     1   112.3500484 533.878400
   7280   7292   7304     1   111.5100476 526.347200
   7283   7279   7286     1   112.3500484 533.878400
   7283   7295   7301     1   111.5100476 526.347200
   7286   7289   7298     1   111.5100476 526.347200
   7289   7298   7307     1   107.9700462 569.024000
   7292   7304  13149     1   107.9700462 569.024000
   7295   7301  13126     1   107.9700462 569.024000
   7301  13126  13122     1   112.4800480 524.673600
   7304  13149  13145     1   112.4800480 524.673600
   7308   7309   7321     1   111.0400475 552.288000
   7308   7312   7324     1   111.0400475 552.288000
   7308   7315   7318     1   111.0400475 552.288000
   7309   7308   7312     1   112.3500484 533.878400
   7309   7308   7315     1   112.3500484 533.878400
   7309   7321   7333     1   111.5100476 526.347200
   7312   7308   7315     1   112.3500484 533.878400
   7312   7324   7330     1   111.5100476 526.347200
   7315   7318   7327     1   111.5100476 526.347200
   7318   7327   7336     1   107.9700462 569.024000
   7321   7333  13195     1   107.9700462 569.024000
   7324   7330  13172     1   107.9700462 569.024000
   7330  13172  13168     1   112.4800480 524.673600
   7333  13195  13191     1   112.4800480 524.673600
   7337   7338   7350     1   111.0400475 552.288000
   7337   7341   7353     1   111.0400475 552.288000
   7337   7344   7347     1   111.0400475 552.288000
   7338   7337   7341     1   112.3500484 533.878400
   7338   7337   7344     1   112.3500484 533.878400
   7338   7350   7362     1   111.5100476 526.347200
   7341   7337   7344     1   112.3500484 533.878400
   7341   7353   7359     1   111.5100476 526.347200
   7344   7347   7356     1   111.5100476 526.347200
   7347   7356   7365     1   107.9700462 569.024000
   7350   7362  13241     1   107.9700462 569.024000
   7353   7359  13218     1   107.9700462 569.024000
   7359  13218  13214     1   112.4800480 524.673600
   7362  13241  13237     1   112.4800480 524.673600
   7366   7367   7370     1   111.5100476 526.347200
   7366   7367   7379     1   110.1900474 564.840000
   7366   7380   7386     1   110.1900474 564.840000
   7366   7388   7372     1   112.4800480 524.673600
   7367   7366   7380     1   111.5100476 526.347200
   7367   7366   7388     1   107.9700462 569.024000
   7367   7370   7371     1   111.5100476 526.347200
   7367   7370   7378     1   110.1900474 564.840000
   7370   7367   7379     1   110.1900474 564.840000
   7370   7371   7372     1   111.5100476 526.347200
   7370   7371   7377     1   110.1900474 564.840000
   7371   7370   7378     1   110.1900474 564.840000
   7371   7372   7376     1   107.9700462 569.024000
   7371   7372   7388     1   107.9700462 569.024000
   7372   7371   7377     1   110.1900474 564.840000
   7376   7372   7388     1   108.2900466 608.353600
   7380   7366   7388     1   107.9700462 569.024000
   7389   7390   7393     1   111.5100476 526.347200
   7389   7390   7402     1   110.1900474 564.840000
   7389   7403   7409     1   110.1900474 564.840000
   7389   7411   7395     1   112.4800480 524.673600
   7390   7393   7394     1   111.5100476 526.347200
   7390   7393   7401     1   110.1900474 564.840000
   7390   7389   7403     1   111.5100476 526.347200
   7390   7389   7411     1   107.9700462 569.024000
   7393   7394   7395     1   111.5100476 526.347200
   7393   7394   7400     1   110.1900474 564.840000
   7393   7390   7402     1   110.1900474 564.840000
   7394   7395   7399     1   107.9700462 569.024000
   7394   7395   7411     1   107.9700462 569.024000
   7394   7393   7401     1   110.1900474 564.840000
   7395   7394   7400     1   110.1900474 564.840000
   7399   7395   7411     1   108.2900466 608.353600
   7403   7389   7411     1   107.9700462 569.024000
   7412   7413   7416     1   111.5100476 526.347200
   7412   7413   7425     1   110.1900474 564.840000
   7412   7426   7432     1   110.1900474 564.840000
   7412   7434   7418     1   112.4800480 524.673600
   7413   7412   7426     1   111.5100476 526.347200
   7413   7412   7434     1   107.9700462 569.024000
   7413   7416   7417     1   111.5100476 526.347200
   7413   7416   7424     1   110.1900474 564.840000
   7416   7413   7425     1   110.1900474 564.840000
   7416   7417   7418     1   111.5100476 526.347200
   7416   7417   7423     1   110.1900474 564.840000
   7417   7416   7424     1   110.1900474 564.840000
   7417   7418   7422     1   107.9700462 569.024000
   7417   7418   7434     1   107.9700462 569.024000
   7418   7417   7423     1   110.1900474 564.840000
   7422   7418   7434     1   108.2900466 608.353600
   7426   7412   7434     1   107.9700462 569.024000
   7435   7436   7439     1   111.5100476 526.347200
   7435   7436   7448     1   110.1900474 564.840000
   7435   7449   7455     1   110.1900474 564.840000
   7435   7457   7441     1   112.4800480 524.673600
   7436   7439   7440     1   111.5100476 526.347200
   7436   7439   7447     1   110.1900474 564.840000
   7436   7435   7449     1   111.5100476 526.347200
   7436   7435   7457     1   107.9700462 569.024000
   7439   7440   7441     1   111.5100476 526.347200
   7439   7440   7446     1   110.1900474 564.840000
   7439   7436   7448     1   110.1900474 564.840000
   7440   7441   7445     1   107.9700462 569.024000
   7440   7441   7457     1   107.9700462 569.024000
   7440   7439   7447     1   110.1900474 564.840000
   7441   7440   7446     1   110.1900474 564.840000
   7445   7441   7457     1   108.2900466 608.353600
   7449   7435   7457     1   107.9700462 569.024000
   7458   7459   7462     1   111.5100476 526.347200
   7458   7459   7471     1   110.1900474 564.840000
   7458   7472   7478     1   110.1900474 564.840000
   7458   7480   7464     1   112.4800480 524.673600
   7459   7458   7472     1   111.5100476 526.347200
   7459   7458   7480     1   107.9700462 569.024000
   7459   7462   7463     1   111.5100476 526.347200
   7459   7462   7470     1   110.1900474 564.840000
   7462   7459   7471     1   110.1900474 564.840000
   7462   7463   7464     1   111.5100476 526.347200
   7462   7463   7469     1   110.1900474 564.840000
   7463   7462   7470     1   110.1900474 564.840000
   7463   7464   7468     1   107.9700462 569.024000
   7463   7464   7480     1   107.9700462 569.024000
   7464   7463   7469     1   110.1900474 564.840000
   7468   7464   7480     1   108.2900466 608.353600
   7472   7458   7480     1   107.9700462 569.024000
   7481   7482   7485     1   111.5100476 526.347200
   7481   7482   7494     1   110.1900474 564.840000
   7481   7495   7501     1   110.1900474 564.840000
   7481   7503   7487     1   112.4800480 524.673600
   7482   7485   7486     1   111.5100476 526.347200
   7482   7485   7493     1   110.1900474 564.840000
   7482   7481   7495     1   111.5100476 526.347200
   7482   7481   7503     1   107.9700462 569.024000
   7485   7486   7487     1   111.5100476 526.347200
   7485   7486   7492     1   110.1900474 564.840000
   7485   7482   7494     1   110.1900474 564.840000
   7486   7487   7491     1   107.9700462 569.024000
   7486   7487   7503     1   107.9700462 569.024000
   7486   7485   7493     1   110.1900474 564.840000
   7487   7486   7492     1   110.1900474 564.840000
   7491   7487   7503     1   108.2900466 608.353600
   7495   7481   7503     1   107.9700462 569.024000
   7504   7505   7508     1   111.5100476 526.347200
   7504   7505   7517     1   110.1900474 564.840000
   7504   7518   7524     1   110.1900474 564.840000
   7504   7526   7510     1   112.4800480 524.673600
   7505   7504   7518     1   111.5100476 526.347200
   7505   7504   7526     1   107.9700462 569.024000
   7505   7508   7509     1   111.5100476 526.347200
   7505   7508   7516     1   110.1900474 564.840000
   7508   7505   7517     1   110.1900474 564.840000
   7508   7509   7510     1   111.5100476 526.347200
   7508   7509   7515     1   110.1900474 564.840000
   7509   7508   7516     1   110.1900474 564.840000
   7509   7510   7514     1   107.9700462 569.024000
   7509   7510   7526     1   107.9700462 569.024000
   7510   7509   7515     1   110.1900474 564.840000
   7514   7510   7526     1   108.2900466 608.353600
   7518   7504   7526     1   107.9700462 569.024000
   7527   7528   7531     1   111.5100476 526.347200
   7527   7528   7540     1   110.1900474 564.840000
   7527   7541   7547     1   110.1900474 564.840000
   7527   7549   7533     1   112.4800480 524.673600
   7528   7531   7532     1   111.5100476 526.347200
   7528   7531   7539     1   110.1900474 564.840000
   7528   7527   7541     1   111.5100476 526.347200
   7528   7527   7549     1   107.9700462 569.024000
   7531   7532   7533     1   111.5100476 526.347200
   7531   7532   7538     1   110.1900474 564.840000
   7531   7528   7540     1   110.1900474 564.840000
   7532   7533   7537     1   107.9700462 569.024000
   7532   7533   7549     1   107.9700462 569.024000
   7532   7531   7539     1   110.1900474 564.840000
   7533   7532   7538     1   110.1900474 564.840000
   7537   7533   7549     1   108.2900466 608.353600
   7541   7527   7549     1   107.9700462 569.024000
   7550   7551   7554     1   111.5100476 526.347200
   7550   7551   7563     1   110.1900474 564.840000
   7550   7564   7570     1   110.1900474 564.840000
   7550   7572   7556     1   112.4800480 524.673600
   7551   7550   7564     1   111.5100476 526.347200
   7551   7550   7572     1   107.9700462 569.024000
   7551   7554   7555     1   111.5100476 526.347200
   7551   7554   7562     1   110.1900474 564.840000
   7554   7551   7563     1   110.1900474 564.840000
   7554   7555   7556     1   111.5100476 526.347200
   7554   7555   7561     1   110.1900474 564.840000
   7555   7554   7562     1   110.1900474 564.840000
   7555   7556   7560     1   107.9700462 569.024000
   7555   7556   7572     1   107.9700462 569.024000
   7556   7555   7561     1   110.1900474 564.840000
   7560   7556   7572     1   108.2900466 608.353600
   7564   7550   7572     1   107.9700462 569.024000
   7573   7574   7577     1   111.5100476 526.347200
   7573   7574   7586     1   110.1900474 564.840000
   7573   7587   7593     1   110.1900474 564.840000
   7573   7595   7579     1   112.4800480 524.673600
   7574   7577   7578     1   111.5100476 526.347200
   7574   7577   7585     1   110.1900474 564.840000
   7574   7573   7587     1   111.5100476 526.347200
   7574   7573   7595     1   107.9700462 569.024000
   7577   7578   7579     1   111.5100476 526.347200
   7577   7578   7584     1   110.1900474 564.840000
   7577   7574   7586     1   110.1900474 564.840000
   7578   7579   7583     1   107.9700462 569.024000
   7578   7579   7595     1   107.9700462 569.024000
   7578   7577   7585     1   110.1900474 564.840000
   7579   7578   7584     1   110.1900474 564.840000
   7583   7579   7595     1   108.2900466 608.353600
   7587   7573   7595     1   107.9700462 569.024000
   7596   7597   7600     1   111.5100476 526.347200
   7596   7597   7609     1   110.1900474 564.840000
   7596   7610   7616     1   110.1900474 564.840000
   7596   7618   7602     1   112.4800480 524.673600
   7597   7596   7610     1   111.5100476 526.347200
   7597   7596   7618     1   107.9700462 569.024000
   7597   7600   7601     1   111.5100476 526.347200
   7597   7600   7608     1   110.1900474 564.840000
   7600   7597   7609     1   110.1900474 564.840000
   7600   7601   7602     1   111.5100476 526.347200
   7600   7601   7607     1   110.1900474 564.840000
   7601   7600   7608     1   110.1900474 564.840000
   7601   7602   7606     1   107.9700462 569.024000
   7601   7602   7618     1   107.9700462 569.024000
   7602   7601   7607     1   110.1900474 564.840000
   7606   7602   7618     1   108.2900466 608.353600
   7610   7596   7618     1   107.9700462 569.024000
   7619   7620   7623     1   111.5100476 526.347200
   7619   7620   7632     1   110.1900474 564.840000
   7619   7633   7639     1   110.1900474 564.840000
   7619   7641   7625     1   112.4800480 524.673600
   7620   7623   7624     1   111.5100476 526.347200
   7620   7623   7631     1   110.1900474 564.840000
   7620   7619   7633     1   111.5100476 526.347200
   7620   7619   7641     1   107.9700462 569.024000
   7623   7624   7625     1   111.5100476 526.347200
   7623   7624   7630     1   110.1900474 564.840000
   7623   7620   7632     1   110.1900474 564.840000
   7624   7625   7629     1   107.9700462 569.024000
   7624   7625   7641     1   107.9700462 569.024000
   7624   7623   7631     1   110.1900474 564.840000
   7625   7624   7630     1   110.1900474 564.840000
   7629   7625   7641     1   108.2900466 608.353600
   7633   7619   7641     1   107.9700462 569.024000
   7642   7643   7646     1   111.5100476 526.347200
   7642   7643   7655     1   110.1900474 564.840000
   7642   7656   7662     1   110.1900474 564.840000
   7642   7664   7648     1   112.4800480 524.673600
   7643   7642   7656     1   111.5100476 526.347200
   7643   7642   7664     1   107.9700462 569.024000
   7643   7646   7647     1   111.5100476 526.347200
   7643   7646   7654     1   110.1900474 564.840000
   7646   7643   7655     1   110.1900474 564.840000
   7646   7647   7648     1   111.5100476 526.347200
   7646   7647   7653     1   110.1900474 564.840000
   7647   7646   7654     1   110.1900474 564.840000
   7647   7648   7652     1   107.9700462 569.024000
   7647   7648   7664     1   107.9700462 569.024000
   7648   7647   7653     1   110.1900474 564.840000
   7652   7648   7664     1   108.2900466 608.353600
   7656   7642   7664     1   107.9700462 569.024000
   7665   7666   7669     1   111.5100476 526.347200
   7665   7666   7678     1   110.1900474 564.840000
   7665   7679   7685     1   110.1900474 564.840000
   7665   7687   7671     1   112.4800480 524.673600
   7666   7669   7670     1   111.5100476 526.347200
   7666   7669   7677     1   110.1900474 564.840000
   7666   7665   7679     1   111.5100476 526.347200
   7666   7665   7687     1   107.9700462 569.024000
   7669   7670   7671     1   111.5100476 526.347200
   7669   7670   7676     1   110.1900474 564.840000
   7669   7666   7678     1   110.1900474 564.840000
   7670   7671   7675     1   107.9700462 569.024000
   7670   7671   7687     1   107.9700462 569.024000
   7670   7669   7677     1   110.1900474 564.840000
   7671   7670   7676     1   110.1900474 564.840000
   7675   7671   7687     1   108.2900466 608.353600
   7679   7665   7687     1   107.9700462 569.024000
   7688   7689   7692     1   111.5100476 526.347200
   7688   7689   7701     1   110.1900474 564.840000
   7688   7702   7708     1   110.1900474 564.840000
   7688   7710   7694     1   112.4800480 524.673600
   7689   7688   7702     1   111.5100476 526.347200
   7689   7688   7710     1   107.9700462 569.024000
   7689   7692   7693     1   111.5100476 526.347200
   7689   7692   7700     1   110.1900474 564.840000
   7692   7689   7701     1   110.1900474 564.840000
   7692   7693   7694     1   111.5100476 526.347200
   7692   7693   7699     1   110.1900474 564.840000
   7693   7692   7700     1   110.1900474 564.840000
   7693   7694   7698     1   107.9700462 569.024000
   7693   7694   7710     1   107.9700462 569.024000
   7694   7693   7699     1   110.1900474 564.840000
   7698   7694   7710     1   108.2900466 608.353600
   7702   7688   7710     1   107.9700462 569.024000
   7711   7712   7715     1   111.5100476 526.347200
   7711   7712   7724     1   110.1900474 564.840000
   7711   7725   7731     1   110.1900474 564.840000
   7711   7733   7717     1   112.4800480 524.673600
   7712   7715   7716     1   111.5100476 526.347200
   7712   7715   7723     1   110.1900474 564.840000
   7712   7711   7725     1   111.5100476 526.347200
   7712   7711   7733     1   107.9700462 569.024000
   7715   7716   7717     1   111.5100476 526.347200
   7715   7716   7722     1   110.1900474 564.840000
   7715   7712   7724     1   110.1900474 564.840000
   7716   7717   7721     1   107.9700462 569.024000
   7716   7717   7733     1   107.9700462 569.024000
   7716   7715   7723     1   110.1900474 564.840000
   7717   7716   7722     1   110.1900474 564.840000
   7721   7717   7733     1   108.2900466 608.353600
   7725   7711   7733     1   107.9700462 569.024000
   7734   7735   7738     1   111.5100476 526.347200
   7734   7735   7747     1   110.1900474 564.840000
   7734   7748   7754     1   110.1900474 564.840000
   7734   7756   7740     1   112.4800480 524.673600
   7735   7734   7748     1   111.5100476 526.347200
   7735   7734   7756     1   107.9700462 569.024000
   7735   7738   7739     1   111.5100476 526.347200
   7735   7738   7746     1   110.1900474 564.840000
   7738   7735   7747     1   110.1900474 564.840000
   7738   7739   7740     1   111.5100476 526.347200
   7738   7739   7745     1   110.1900474 564.840000
   7739   7738   7746     1   110.1900474 564.840000
   7739   7740   7744     1   107.9700462 569.024000
   7739   7740   7756     1   107.9700462 569.024000
   7740   7739   7745     1   110.1900474 564.840000
   7744   7740   7756     1   108.2900466 608.353600
   7748   7734   7756     1   107.9700462 569.024000
   7757   7758   7761     1   111.5100476 526.347200
   7757   7758   7770     1   110.1900474 564.840000
   7757   7771   7777     1   110.1900474 564.840000
   7757   7779   7763     1   112.4800480 524.673600
   7758   7761   7762     1   111.5100476 526.347200
   7758   7761   7769     1   110.1900474 564.840000
   7758   7757   7771     1   111.5100476 526.347200
   7758   7757   7779     1   107.9700462 569.024000
   7761   7762   7763     1   111.5100476 526.347200
   7761   7762   7768     1   110.1900474 564.840000
   7761   7758   7770     1   110.1900474 564.840000
   7762   7763   7767     1   107.9700462 569.024000
   7762   7763   7779     1   107.9700462 569.024000
   7762   7761   7769     1   110.1900474 564.840000
   7763   7762   7768     1   110.1900474 564.840000
   7767   7763   7779     1   108.2900466 608.353600
   7771   7757   7779     1   107.9700462 569.024000
   7780   7781   7784     1   111.5100476 526.347200
   7780   7781   7793     1   110.1900474 564.840000
   7780   7794   7800     1   110.1900474 564.840000
   7780   7802   7786     1   112.4800480 524.673600
   7781   7780   7794     1   111.5100476 526.347200
   7781   7780   7802     1   107.9700462 569.024000
   7781   7784   7785     1   111.5100476 526.347200
   7781   7784   7792     1   110.1900474 564.840000
   7784   7781   7793     1   110.1900474 564.840000
   7784   7785   7786     1   111.5100476 526.347200
   7784   7785   7791     1   110.1900474 564.840000
   7785   7784   7792     1   110.1900474 564.840000
   7785   7786   7790     1   107.9700462 569.024000
   7785   7786   7802     1   107.9700462 569.024000
   7786   7785   7791     1   110.1900474 564.840000
   7790   7786   7802     1   108.2900466 608.353600
   7794   7780   7802     1   107.9700462 569.024000
   7803   7804   7807     1   111.5100476 526.347200
   7803   7804   7816     1   110.1900474 564.840000
   7803   7817   7823     1   110.1900474 564.840000
   7803   7825   7809     1   112.4800480 524.673600
   7804   7807   7808     1   111.5100476 526.347200
   7804   7807   7815     1   110.1900474 564.840000
   7804   7803   7817     1   111.5100476 526.347200
   7804   7803   7825     1   107.9700462 569.024000
   7807   7808   7809     1   111.5100476 526.347200
   7807   7808   7814     1   110.1900474 564.840000
   7807   7804   7816     1   110.1900474 564.840000
   7808   7809   7813     1   107.9700462 569.024000
   7808   7809   7825     1   107.9700462 569.024000
   7808   7807   7815     1   110.1900474 564.840000
   7809   7808   7814     1   110.1900474 564.840000
   7813   7809   7825     1   108.2900466 608.353600
   7817   7803   7825     1   107.9700462 569.024000
   7826   7827   7830     1   111.5100476 526.347200
   7826   7827   7839     1   110.1900474 564.840000
   7826   7840   7846     1   110.1900474 564.840000
   7826   7848   7832     1   112.4800480 524.673600
   7827   7826   7840     1   111.5100476 526.347200
   7827   7826   7848     1   107.9700462 569.024000
   7827   7830   7831     1   111.5100476 526.347200
   7827   7830   7838     1   110.1900474 564.840000
   7830   7827   7839     1   110.1900474 564.840000
   7830   7831   7832     1   111.5100476 526.347200
   7830   7831   7837     1   110.1900474 564.840000
   7831   7830   7838     1   110.1900474 564.840000
   7831   7832   7836     1   107.9700462 569.024000
   7831   7832   7848     1   107.9700462 569.024000
   7832   7831   7837     1   110.1900474 564.840000
   7836   7832   7848     1   108.2900466 608.353600
   7840   7826   7848     1   107.9700462 569.024000
   7849   7850   7853     1   111.5100476 526.347200
   7849   7850   7862     1   110.1900474 564.840000
   7849   7863   7869     1   110.1900474 564.840000
   7849   7871   7855     1   112.4800480 524.673600
   7850   7853   7854     1   111.5100476 526.347200
   7850   7853   7861     1   110.1900474 564.840000
   7850   7849   7863     1   111.5100476 526.347200
   7850   7849   7871     1   107.9700462 569.024000
   7853   7854   7855     1   111.5100476 526.347200
   7853   7854   7860     1   110.1900474 564.840000
   7853   7850   7862     1   110.1900474 564.840000
   7854   7855   7859     1   107.9700462 569.024000
   7854   7855   7871     1   107.9700462 569.024000
   7854   7853   7861     1   110.1900474 564.840000
   7855   7854   7860     1   110.1900474 564.840000
   7859   7855   7871     1   108.2900466 608.353600
   7863   7849   7871     1   107.9700462 569.024000
   7872   7873   7876     1   111.5100476 526.347200
   7872   7873   7885     1   110.1900474 564.840000
   7872   7886   7892     1   110.1900474 564.840000
   7872   7894   7878     1   112.4800480 524.673600
   7873   7872   7886     1   111.5100476 526.347200
   7873   7872   7894     1   107.9700462 569.024000
   7873   7876   7877     1   111.5100476 526.347200
   7873   7876   7884     1   110.1900474 564.840000
   7876   7873   7885     1   110.1900474 564.840000
   7876   7877   7878     1   111.5100476 526.347200
   7876   7877   7883     1   110.1900474 564.840000
   7877   7876   7884     1   110.1900474 564.840000
   7877   7878   7882     1   107.9700462 569.024000
   7877   7878   7894     1   107.9700462 569.024000
   7878   7877   7883     1   110.1900474 564.840000
   7882   7878   7894     1   108.2900466 608.353600
   7886   7872   7894     1   107.9700462 569.024000
   7895   7896   7899     1   111.5100476 526.347200
   7895   7896   7908     1   110.1900474 564.840000
   7895   7909   7915     1   110.1900474 564.840000
   7895   7917   7901     1   112.4800480 524.673600
   7896   7899   7900     1   111.5100476 526.347200
   7896   7899   7907     1   110.1900474 564.840000
   7896   7895   7909     1   111.5100476 526.347200
   7896   7895   7917     1   107.9700462 569.024000
   7899   7900   7901     1   111.5100476 526.347200
   7899   7900   7906     1   110.1900474 564.840000
   7899   7896   7908     1   110.1900474 564.840000
   7900   7901   7905     1   107.9700462 569.024000
   7900   7901   7917     1   107.9700462 569.024000
   7900   7899   7907     1   110.1900474 564.840000
   7901   7900   7906     1   110.1900474 564.840000
   7905   7901   7917     1   108.2900466 608.353600
   7909   7895   7917     1   107.9700462 569.024000
   7918   7919   7922     1   111.5100476 526.347200
   7918   7919   7931     1   110.1900474 564.840000
   7918   7932   7938     1   110.1900474 564.840000
   7918   7940   7924     1   112.4800480 524.673600
   7919   7918   7932     1   111.5100476 526.347200
   7919   7918   7940     1   107.9700462 569.024000
   7919   7922   7923     1   111.5100476 526.347200
   7919   7922   7930     1   110.1900474 564.840000
   7922   7919   7931     1   110.1900474 564.840000
   7922   7923   7924     1   111.5100476 526.347200
   7922   7923   7929     1   110.1900474 564.840000
   7923   7922   7930     1   110.1900474 564.840000
   7923   7924   7928     1   107.9700462 569.024000
   7923   7924   7940     1   107.9700462 569.024000
   7924   7923   7929     1   110.1900474 564.840000
   7928   7924   7940     1   108.2900466 608.353600
   7932   7918   7940     1   107.9700462 569.024000
   7941   7942   7945     1   111.5100476 526.347200
   7941   7942   7954     1   110.1900474 564.840000
   7941   7955   7961     1   110.1900474 564.840000
   7941   7963   7947     1   112.4800480 524.673600
   7942   7945   7946     1   111.5100476 526.347200
   7942   7945   7953     1   110.1900474 564.840000
   7942   7941   7955     1   111.5100476 526.347200
   7942   7941   7963     1   107.9700462 569.024000
   7945   7946   7947     1   111.5100476 526.347200
   7945   7946   7952     1   110.1900474 564.840000
   7945   7942   7954     1   110.1900474 564.840000
   7946   7947   7951     1   107.9700462 569.024000
   7946   7947   7963     1   107.9700462 569.024000
   7946   7945   7953     1   110.1900474 564.840000
   7947   7946   7952     1   110.1900474 564.840000
   7951   7947   7963     1   108.2900466 608.353600
   7955   7941   7963     1   107.9700462 569.024000
   7964   7965   7968     1   111.5100476 526.347200
   7964   7965   7977     1   110.1900474 564.840000
   7964   7978   7984     1   110.1900474 564.840000
   7964   7986   7970     1   112.4800480 524.673600
   7965   7964   7978     1   111.5100476 526.347200
   7965   7964   7986     1   107.9700462 569.024000
   7965   7968   7969     1   111.5100476 526.347200
   7965   7968   7976     1   110.1900474 564.840000
   7968   7965   7977     1   110.1900474 564.840000
   7968   7969   7970     1   111.5100476 526.347200
   7968   7969   7975     1   110.1900474 564.840000
   7969   7968   7976     1   110.1900474 564.840000
   7969   7970   7974     1   107.9700462 569.024000
   7969   7970   7986     1   107.9700462 569.024000
   7970   7969   7975     1   110.1900474 564.840000
   7974   7970   7986     1   108.2900466 608.353600
   7978   7964   7986     1   107.9700462 569.024000
   7987   7988   7991     1   111.5100476 526.347200
   7987   7988   8000     1   110.1900474 564.840000
   7987   8001   8007     1   110.1900474 564.840000
   7987   8009   7993     1   112.4800480 524.673600
   7988   7991   7992     1   111.5100476 526.347200
   7988   7991   7999     1   110.1900474 564.840000
   7988   7987   8001     1   111.5100476 526.347200
   7988   7987   8009     1   107.9700462 569.024000
   7991   7992   7993     1   111.5100476 526.347200
   7991   7992   7998     1   110.1900474 564.840000
   7991   7988   8000     1   110.1900474 564.840000
   7992   7993   7997     1   107.9700462 569.024000
   7992   7993   8009     1   107.9700462 569.024000
   7992   7991   7999     1   110.1900474 564.840000
   7993   7992   7998     1   110.1900474 564.840000
   7997   7993   8009     1   108.2900466 608.353600
   8001   7987   8009     1   107.9700462 569.024000
   8010   8011   8014     1   111.5100476 526.347200
   8010   8011   8023     1   110.1900474 564.840000
   8010   8024   8030     1   110.1900474 564.840000
   8010   8032   8016     1   112.4800480 524.673600
   8011   8010   8024     1   111.5100476 526.347200
   8011   8010   8032     1   107.9700462 569.024000
   8011   8014   8015     1   111.5100476 526.347200
   8011   8014   8022     1   110.1900474 564.840000
   8014   8011   8023     1   110.1900474 564.840000
   8014   8015   8016     1   111.5100476 526.347200
   8014   8015   8021     1   110.1900474 564.840000
   8015   8014   8022     1   110.1900474 564.840000
   8015   8016   8020     1   107.9700462 569.024000
   8015   8016   8032     1   107.9700462 569.024000
   8016   8015   8021     1   110.1900474 564.840000
   8020   8016   8032     1   108.2900466 608.353600
   8024   8010   8032     1   107.9700462 569.024000
   8033   8034   8037     1   111.5100476 526.347200
   8033   8034   8046     1   110.1900474 564.840000
   8033   8047   8053     1   110.1900474 564.840000
   8033   8055   8039     1   112.4800480 524.673600
   8034   8037   8038     1   111.5100476 526.347200
   8034   8037   8045     1   110.1900474 564.840000
   8034   8033   8047     1   111.5100476 526.347200
   8034   8033   8055     1   107.9700462 569.024000
   8037   8038   8039     1   111.5100476 526.347200
   8037   8038   8044     1   110.1900474 564.840000
   8037   8034   8046     1   110.1900474 564.840000
   8038   8039   8043     1   107.9700462 569.024000
   8038   8039   8055     1   107.9700462 569.024000
   8038   8037   8045     1   110.1900474 564.840000
   8039   8038   8044     1   110.1900474 564.840000
   8043   8039   8055     1   108.2900466 608.353600
   8047   8033   8055     1   107.9700462 569.024000
   8056   8057   8060     1   111.5100476 526.347200
   8056   8057   8069     1   110.1900474 564.840000
   8056   8070   8076     1   110.1900474 564.840000
   8056   8078   8062     1   112.4800480 524.673600
   8057   8056   8070     1   111.5100476 526.347200
   8057   8056   8078     1   107.9700462 569.024000
   8057   8060   8061     1   111.5100476 526.347200
   8057   8060   8068     1   110.1900474 564.840000
   8060   8057   8069     1   110.1900474 564.840000
   8060   8061   8062     1   111.5100476 526.347200
   8060   8061   8067     1   110.1900474 564.840000
   8061   8060   8068     1   110.1900474 564.840000
   8061   8062   8066     1   107.9700462 569.024000
   8061   8062   8078     1   107.9700462 569.024000
   8062   8061   8067     1   110.1900474 564.840000
   8066   8062   8078     1   108.2900466 608.353600
   8070   8056   8078     1   107.9700462 569.024000
   8079   8080   8083     1   111.5100476 526.347200
   8079   8080   8092     1   110.1900474 564.840000
   8079   8093   8099     1   110.1900474 564.840000
   8079   8101   8085     1   112.4800480 524.673600
   8080   8083   8084     1   111.5100476 526.347200
   8080   8083   8091     1   110.1900474 564.840000
   8080   8079   8093     1   111.5100476 526.347200
   8080   8079   8101     1   107.9700462 569.024000
   8083   8084   8085     1   111.5100476 526.347200
   8083   8084   8090     1   110.1900474 564.840000
   8083   8080   8092     1   110.1900474 564.840000
   8084   8085   8089     1   107.9700462 569.024000
   8084   8085   8101     1   107.9700462 569.024000
   8084   8083   8091     1   110.1900474 564.840000
   8085   8084   8090     1   110.1900474 564.840000
   8089   8085   8101     1   108.2900466 608.353600
   8093   8079   8101     1   107.9700462 569.024000
   8102   8103   8106     1   111.5100476 526.347200
   8102   8103   8115     1   110.1900474 564.840000
   8102   8116   8122     1   110.1900474 564.840000
   8102   8124   8108     1   112.4800480 524.673600
   8103   8102   8116     1   111.5100476 526.347200
   8103   8102   8124     1   107.9700462 569.024000
   8103   8106   8107     1   111.5100476 526.347200
   8103   8106   8114     1   110.1900474 564.840000
   8106   8103   8115     1   110.1900474 564.840000
   8106   8107   8108     1   111.5100476 526.347200
   8106   8107   8113     1   110.1900474 564.840000
   8107   8106   8114     1   110.1900474 564.840000
   8107   8108   8112     1   107.9700462 569.024000
   8107   8108   8124     1   107.9700462 569.024000
   8108   8107   8113     1   110.1900474 564.840000
   8112   8108   8124     1   108.2900466 608.353600
   8116   8102   8124     1   107.9700462 569.024000
   8125   8126   8129     1   111.5100476 526.347200
   8125   8126   8138     1   110.1900474 564.840000
   8125   8139   8145     1   110.1900474 564.840000
   8125   8147   8131     1   112.4800480 524.673600
   8126   8129   8130     1   111.5100476 526.347200
   8126   8129   8137     1   110.1900474 564.840000
   8126   8125   8139     1   111.5100476 526.347200
   8126   8125   8147     1   107.9700462 569.024000
   8129   8130   8131     1   111.5100476 526.347200
   8129   8130   8136     1   110.1900474 564.840000
   8129   8126   8138     1   110.1900474 564.840000
   8130   8131   8135     1   107.9700462 569.024000
   8130   8131   8147     1   107.9700462 569.024000
   8130   8129   8137     1   110.1900474 564.840000
   8131   8130   8136     1   110.1900474 564.840000
   8135   8131   8147     1   108.2900466 608.353600
   8139   8125   8147     1   107.9700462 569.024000
   8148   8149   8152     1   111.5100476 526.347200
   8148   8149   8161     1   110.1900474 564.840000
   8148   8162   8168     1   110.1900474 564.840000
   8148   8170   8154     1   112.4800480 524.673600
   8149   8148   8162     1   111.5100476 526.347200
   8149   8148   8170     1   107.9700462 569.024000
   8149   8152   8153     1   111.5100476 526.347200
   8149   8152   8160     1   110.1900474 564.840000
   8152   8149   8161     1   110.1900474 564.840000
   8152   8153   8154     1   111.5100476 526.347200
   8152   8153   8159     1   110.1900474 564.840000
   8153   8152   8160     1   110.1900474 564.840000
   8153   8154   8158     1   107.9700462 569.024000
   8153   8154   8170     1   107.9700462 569.024000
   8154   8153   8159     1   110.1900474 564.840000
   8158   8154   8170     1   108.2900466 608.353600
   8162   8148   8170     1   107.9700462 569.024000
   8171   8172   8175     1   111.5100476 526.347200
   8171   8172   8184     1   110.1900474 564.840000
   8171   8185   8191     1   110.1900474 564.840000
   8171   8193   8177     1   112.4800480 524.673600
   8172   8175   8176     1   111.5100476 526.347200
   8172   8175   8183     1   110.1900474 564.840000
   8172   8171   8185     1   111.5100476 526.347200
   8172   8171   8193     1   107.9700462 569.024000
   8175   8176   8177     1   111.5100476 526.347200
   8175   8176   8182     1   110.1900474 564.840000
   8175   8172   8184     1   110.1900474 564.840000
   8176   8177   8181     1   107.9700462 569.024000
   8176   8177   8193     1   107.9700462 569.024000
   8176   8175   8183     1   110.1900474 564.840000
   8177   8176   8182     1   110.1900474 564.840000
   8181   8177   8193     1   108.2900466 608.353600
   8185   8171   8193     1   107.9700462 569.024000
   8194   8195   8198     1   111.5100476 526.347200
   8194   8195   8207     1   110.1900474 564.840000
   8194   8208   8214     1   110.1900474 564.840000
   8194   8216   8200     1   112.4800480 524.673600
   8195   8194   8208     1   111.5100476 526.347200
   8195   8194   8216     1   107.9700462 569.024000
   8195   8198   8199     1   111.5100476 526.347200
   8195   8198   8206     1   110.1900474 564.840000
   8198   8195   8207     1   110.1900474 564.840000
   8198   8199   8200     1   111.5100476 526.347200
   8198   8199   8205     1   110.1900474 564.840000
   8199   8198   8206     1   110.1900474 564.840000
   8199   8200   8204     1   107.9700462 569.024000
   8199   8200   8216     1   107.9700462 569.024000
   8200   8199   8205     1   110.1900474 564.840000
   8204   8200   8216     1   108.2900466 608.353600
   8208   8194   8216     1   107.9700462 569.024000
   8217   8218   8221     1   111.5100476 526.347200
   8217   8218   8230     1   110.1900474 564.840000
   8217   8231   8237     1   110.1900474 564.840000
   8217   8239   8223     1   112.4800480 524.673600
   8218   8221   8222     1   111.5100476 526.347200
   8218   8221   8229     1   110.1900474 564.840000
   8218   8217   8231     1   111.5100476 526.347200
   8218   8217   8239     1   107.9700462 569.024000
   8221   8222   8223     1   111.5100476 526.347200
   8221   8222   8228     1   110.1900474 564.840000
   8221   8218   8230     1   110.1900474 564.840000
   8222   8223   8227     1   107.9700462 569.024000
   8222   8223   8239     1   107.9700462 569.024000
   8222   8221   8229     1   110.1900474 564.840000
   8223   8222   8228     1   110.1900474 564.840000
   8227   8223   8239     1   108.2900466 608.353600
   8231   8217   8239     1   107.9700462 569.024000
   8240   8241   8244     1   111.5100476 526.347200
   8240   8241   8253     1   110.1900474 564.840000
   8240   8254   8260     1   110.1900474 564.840000
   8240   8262   8246     1   112.4800480 524.673600
   8241   8240   8254     1   111.5100476 526.347200
   8241   8240   8262     1   107.9700462 569.024000
   8241   8244   8245     1   111.5100476 526.347200
   8241   8244   8252     1   110.1900474 564.840000
   8244   8241   8253     1   110.1900474 564.840000
   8244   8245   8246     1   111.5100476 526.347200
   8244   8245   8251     1   110.1900474 564.840000
   8245   8244   8252     1   110.1900474 564.840000
   8245   8246   8250     1   107.9700462 569.024000
   8245   8246   8262     1   107.9700462 569.024000
   8246   8245   8251     1   110.1900474 564.840000
   8250   8246   8262     1   108.2900466 608.353600
   8254   8240   8262     1   107.9700462 569.024000
   8263   8264   8267     1   111.5100476 526.347200
   8263   8264   8276     1   110.1900474 564.840000
   8263   8277   8283     1   110.1900474 564.840000
   8263   8285   8269     1   112.4800480 524.673600
   8264   8267   8268     1   111.5100476 526.347200
   8264   8267   8275     1   110.1900474 564.840000
   8264   8263   8277     1   111.5100476 526.347200
   8264   8263   8285     1   107.9700462 569.024000
   8267   8268   8269     1   111.5100476 526.347200
   8267   8268   8274     1   110.1900474 564.840000
   8267   8264   8276     1   110.1900474 564.840000
   8268   8269   8273     1   107.9700462 569.024000
   8268   8269   8285     1   107.9700462 569.024000
   8268   8267   8275     1   110.1900474 564.840000
   8269   8268   8274     1   110.1900474 564.840000
   8273   8269   8285     1   108.2900466 608.353600
   8277   8263   8285     1   107.9700462 569.024000
   8286   8287   8290     1   111.5100476 526.347200
   8286   8287   8299     1   110.1900474 564.840000
   8286   8300   8306     1   110.1900474 564.840000
   8286   8308   8292     1   112.4800480 524.673600
   8287   8286   8300     1   111.5100476 526.347200
   8287   8286   8308     1   107.9700462 569.024000
   8287   8290   8291     1   111.5100476 526.347200
   8287   8290   8298     1   110.1900474 564.840000
   8290   8287   8299     1   110.1900474 564.840000
   8290   8291   8292     1   111.5100476 526.347200
   8290   8291   8297     1   110.1900474 564.840000
   8291   8290   8298     1   110.1900474 564.840000
   8291   8292   8296     1   107.9700462 569.024000
   8291   8292   8308     1   107.9700462 569.024000
   8292   8291   8297     1   110.1900474 564.840000
   8296   8292   8308     1   108.2900466 608.353600
   8300   8286   8308     1   107.9700462 569.024000
   8309   8310   8313     1   111.5100476 526.347200
   8309   8310   8322     1   110.1900474 564.840000
   8309   8323   8329     1   110.1900474 564.840000
   8309   8331   8315     1   112.4800480 524.673600
   8310   8313   8314     1   111.5100476 526.347200
   8310   8313   8321     1   110.1900474 564.840000
   8310   8309   8323     1   111.5100476 526.347200
   8310   8309   8331     1   107.9700462 569.024000
   8313   8314   8315     1   111.5100476 526.347200
   8313   8314   8320     1   110.1900474 564.840000
   8313   8310   8322     1   110.1900474 564.840000
   8314   8315   8319     1   107.9700462 569.024000
   8314   8315   8331     1   107.9700462 569.024000
   8314   8313   8321     1   110.1900474 564.840000
   8315   8314   8320     1   110.1900474 564.840000
   8319   8315   8331     1   108.2900466 608.353600
   8323   8309   8331     1   107.9700462 569.024000
   8332   8333   8336     1   111.5100476 526.347200
   8332   8333   8345     1   110.1900474 564.840000
   8332   8346   8352     1   110.1900474 564.840000
   8332   8354   8338     1   112.4800480 524.673600
   8333   8332   8346     1   111.5100476 526.347200
   8333   8332   8354     1   107.9700462 569.024000
   8333   8336   8337     1   111.5100476 526.347200
   8333   8336   8344     1   110.1900474 564.840000
   8336   8333   8345     1   110.1900474 564.840000
   8336   8337   8338     1   111.5100476 526.347200
   8336   8337   8343     1   110.1900474 564.840000
   8337   8336   8344     1   110.1900474 564.840000
   8337   8338   8342     1   107.9700462 569.024000
   8337   8338   8354     1   107.9700462 569.024000
   8338   8337   8343     1   110.1900474 564.840000
   8342   8338   8354     1   108.2900466 608.353600
   8346   8332   8354     1   107.9700462 569.024000
   8355   8356   8359     1   111.5100476 526.347200
   8355   8356   8368     1   110.1900474 564.840000
   8355   8369   8375     1   110.1900474 564.840000
   8355   8377   8361     1   112.4800480 524.673600
   8356   8359   8360     1   111.5100476 526.347200
   8356   8359   8367     1   110.1900474 564.840000
   8356   8355   8369     1   111.5100476 526.347200
   8356   8355   8377     1   107.9700462 569.024000
   8359   8360   8361     1   111.5100476 526.347200
   8359   8360   8366     1   110.1900474 564.840000
   8359   8356   8368     1   110.1900474 564.840000
   8360   8361   8365     1   107.9700462 569.024000
   8360   8361   8377     1   107.9700462 569.024000
   8360   8359   8367     1   110.1900474 564.840000
   8361   8360   8366     1   110.1900474 564.840000
   8365   8361   8377     1   108.2900466 608.353600
   8369   8355   8377     1   107.9700462 569.024000
   8378   8379   8382     1   111.5100476 526.347200
   8378   8379   8391     1   110.1900474 564.840000
   8378   8392   8398     1   110.1900474 564.840000
   8378   8400   8384     1   112.4800480 524.673600
   8379   8378   8392     1   111.5100476 526.347200
   8379   8378   8400     1   107.9700462 569.024000
   8379   8382   8383     1   111.5100476 526.347200
   8379   8382   8390     1   110.1900474 564.840000
   8382   8379   8391     1   110.1900474 564.840000
   8382   8383   8384     1   111.5100476 526.347200
   8382   8383   8389     1   110.1900474 564.840000
   8383   8382   8390     1   110.1900474 564.840000
   8383   8384   8388     1   107.9700462 569.024000
   8383   8384   8400     1   107.9700462 569.024000
   8384   8383   8389     1   110.1900474 564.840000
   8388   8384   8400     1   108.2900466 608.353600
   8392   8378   8400     1   107.9700462 569.024000
   8401   8402   8405     1   111.5100476 526.347200
   8401   8402   8414     1   110.1900474 564.840000
   8401   8415   8421     1   110.1900474 564.840000
   8401   8423   8407     1   112.4800480 524.673600
   8402   8405   8406     1   111.5100476 526.347200
   8402   8405   8413     1   110.1900474 564.840000
   8402   8401   8415     1   111.5100476 526.347200
   8402   8401   8423     1   107.9700462 569.024000
   8405   8406   8407     1   111.5100476 526.347200
   8405   8406   8412     1   110.1900474 564.840000
   8405   8402   8414     1   110.1900474 564.840000
   8406   8407   8411     1   107.9700462 569.024000
   8406   8407   8423     1   107.9700462 569.024000
   8406   8405   8413     1   110.1900474 564.840000
   8407   8406   8412     1   110.1900474 564.840000
   8411   8407   8423     1   108.2900466 608.353600
   8415   8401   8423     1   107.9700462 569.024000
   8424   8425   8428     1   111.5100476 526.347200
   8424   8425   8437     1   110.1900474 564.840000
   8424   8438   8444     1   110.1900474 564.840000
   8424   8446   8430     1   112.4800480 524.673600
   8425   8424   8438     1   111.5100476 526.347200
   8425   8424   8446     1   107.9700462 569.024000
   8425   8428   8429     1   111.5100476 526.347200
   8425   8428   8436     1   110.1900474 564.840000
   8428   8425   8437     1   110.1900474 564.840000
   8428   8429   8430     1   111.5100476 526.347200
   8428   8429   8435     1   110.1900474 564.840000
   8429   8428   8436     1   110.1900474 564.840000
   8429   8430   8434     1   107.9700462 569.024000
   8429   8430   8446     1   107.9700462 569.024000
   8430   8429   8435     1   110.1900474 564.840000
   8434   8430   8446     1   108.2900466 608.353600
   8438   8424   8446     1   107.9700462 569.024000
   8447   8448   8451     1   111.5100476 526.347200
   8447   8448   8460     1   110.1900474 564.840000
   8447   8461   8467     1   110.1900474 564.840000
   8447   8469   8453     1   112.4800480 524.673600
   8448   8451   8452     1   111.5100476 526.347200
   8448   8451   8459     1   110.1900474 564.840000
   8448   8447   8461     1   111.5100476 526.347200
   8448   8447   8469     1   107.9700462 569.024000
   8451   8452   8453     1   111.5100476 526.347200
   8451   8452   8458     1   110.1900474 564.840000
   8451   8448   8460     1   110.1900474 564.840000
   8452   8453   8457     1   107.9700462 569.024000
   8452   8453   8469     1   107.9700462 569.024000
   8452   8451   8459     1   110.1900474 564.840000
   8453   8452   8458     1   110.1900474 564.840000
   8457   8453   8469     1   108.2900466 608.353600
   8461   8447   8469     1   107.9700462 569.024000
   8470   8471   8474     1   111.5100476 526.347200
   8470   8471   8483     1   110.1900474 564.840000
   8470   8484   8490     1   110.1900474 564.840000
   8470   8492   8476     1   112.4800480 524.673600
   8471   8470   8484     1   111.5100476 526.347200
   8471   8470   8492     1   107.9700462 569.024000
   8471   8474   8475     1   111.5100476 526.347200
   8471   8474   8482     1   110.1900474 564.840000
   8474   8471   8483     1   110.1900474 564.840000
   8474   8475   8476     1   111.5100476 526.347200
   8474   8475   8481     1   110.1900474 564.840000
   8475   8474   8482     1   110.1900474 564.840000
   8475   8476   8480     1   107.9700462 569.024000
   8475   8476   8492     1   107.9700462 569.024000
   8476   8475   8481     1   110.1900474 564.840000
   8480   8476   8492     1   108.2900466 608.353600
   8484   8470   8492     1   107.9700462 569.024000
   8493   8494   8497     1   111.5100476 526.347200
   8493   8494   8506     1   110.1900474 564.840000
   8493   8507   8513     1   110.1900474 564.840000
   8493   8515   8499     1   112.4800480 524.673600
   8494   8497   8498     1   111.5100476 526.347200
   8494   8497   8505     1   110.1900474 564.840000
   8494   8493   8507     1   111.5100476 526.347200
   8494   8493   8515     1   107.9700462 569.024000
   8497   8498   8499     1   111.5100476 526.347200
   8497   8498   8504     1   110.1900474 564.840000
   8497   8494   8506     1   110.1900474 564.840000
   8498   8499   8503     1   107.9700462 569.024000
   8498   8499   8515     1   107.9700462 569.024000
   8498   8497   8505     1   110.1900474 564.840000
   8499   8498   8504     1   110.1900474 564.840000
   8503   8499   8515     1   108.2900466 608.353600
   8507   8493   8515     1   107.9700462 569.024000
   8516   8517   8520     1   111.5100476 526.347200
   8516   8517   8529     1   110.1900474 564.840000
   8516   8530   8536     1   110.1900474 564.840000
   8516   8538   8522     1   112.4800480 524.673600
   8517   8516   8530     1   111.5100476 526.347200
   8517   8516   8538     1   107.9700462 569.024000
   8517   8520   8521     1   111.5100476 526.347200
   8517   8520   8528     1   110.1900474 564.840000
   8520   8517   8529     1   110.1900474 564.840000
   8520   8521   8522     1   111.5100476 526.347200
   8520   8521   8527     1   110.1900474 564.840000
   8521   8520   8528     1   110.1900474 564.840000
   8521   8522   8526     1   107.9700462 569.024000
   8521   8522   8538     1   107.9700462 569.024000
   8522   8521   8527     1   110.1900474 564.840000
   8526   8522   8538     1   108.2900466 608.353600
   8530   8516   8538     1   107.9700462 569.024000
   8539   8540   8543     1   111.5100476 526.347200
   8539   8540   8552     1   110.1900474 564.840000
   8539   8553   8559     1   110.1900474 564.840000
   8539   8561   8545     1   112.4800480 524.673600
   8540   8543   8544     1   111.5100476 526.347200
   8540   8543   8551     1   110.1900474 564.840000
   8540   8539   8553     1   111.5100476 526.347200
   8540   8539   8561     1   107.9700462 569.024000
   8543   8544   8545     1   111.5100476 526.347200
   8543   8544   8550     1   110.1900474 564.840000
   8543   8540   8552     1   110.1900474 564.840000
   8544   8545   8549     1   107.9700462 569.024000
   8544   8545   8561     1   107.9700462 569.024000
   8544   8543   8551     1   110.1900474 564.840000
   8545   8544   8550     1   110.1900474 564.840000
   8549   8545   8561     1   108.2900466 608.353600
   8553   8539   8561     1   107.9700462 569.024000
   8562   8563   8566     1   111.5100476 526.347200
   8562   8563   8575     1   110.1900474 564.840000
   8562   8576   8582     1   110.1900474 564.840000
   8562   8584   8568     1   112.4800480 524.673600
   8563   8562   8576     1   111.5100476 526.347200
   8563   8562   8584     1   107.9700462 569.024000
   8563   8566   8567     1   111.5100476 526.347200
   8563   8566   8574     1   110.1900474 564.840000
   8566   8563   8575     1   110.1900474 564.840000
   8566   8567   8568     1   111.5100476 526.347200
   8566   8567   8573     1   110.1900474 564.840000
   8567   8566   8574     1   110.1900474 564.840000
   8567   8568   8572     1   107.9700462 569.024000
   8567   8568   8584     1   107.9700462 569.024000
   8568   8567   8573     1   110.1900474 564.840000
   8572   8568   8584     1   108.2900466 608.353600
   8576   8562   8584     1   107.9700462 569.024000
   8585   8586   8589     1   111.5100476 526.347200
   8585   8586   8598     1   110.1900474 564.840000
   8585   8599   8605     1   110.1900474 564.840000
   8585   8607   8591     1   112.4800480 524.673600
   8586   8589   8590     1   111.5100476 526.347200
   8586   8589   8597     1   110.1900474 564.840000
   8586   8585   8599     1   111.5100476 526.347200
   8586   8585   8607     1   107.9700462 569.024000
   8589   8590   8591     1   111.5100476 526.347200
   8589   8590   8596     1   110.1900474 564.840000
   8589   8586   8598     1   110.1900474 564.840000
   8590   8591   8595     1   107.9700462 569.024000
   8590   8591   8607     1   107.9700462 569.024000
   8590   8589   8597     1   110.1900474 564.840000
   8591   8590   8596     1   110.1900474 564.840000
   8595   8591   8607     1   108.2900466 608.353600
   8599   8585   8607     1   107.9700462 569.024000
   8608   8609   8612     1   111.5100476 526.347200
   8608   8609   8621     1   110.1900474 564.840000
   8608   8622   8628     1   110.1900474 564.840000
   8608   8630   8614     1   112.4800480 524.673600
   8609   8608   8622     1   111.5100476 526.347200
   8609   8608   8630     1   107.9700462 569.024000
   8609   8612   8613     1   111.5100476 526.347200
   8609   8612   8620     1   110.1900474 564.840000
   8612   8609   8621     1   110.1900474 564.840000
   8612   8613   8614     1   111.5100476 526.347200
   8612   8613   8619     1   110.1900474 564.840000
   8613   8612   8620     1   110.1900474 564.840000
   8613   8614   8618     1   107.9700462 569.024000
   8613   8614   8630     1   107.9700462 569.024000
   8614   8613   8619     1   110.1900474 564.840000
   8618   8614   8630     1   108.2900466 608.353600
   8622   8608   8630     1   107.9700462 569.024000
   8631   8632   8635     1   111.5100476 526.347200
   8631   8632   8644     1   110.1900474 564.840000
   8631   8645   8651     1   110.1900474 564.840000
   8631   8653   8637     1   112.4800480 524.673600
   8632   8635   8636     1   111.5100476 526.347200
   8632   8635   8643     1   110.1900474 564.840000
   8632   8631   8645     1   111.5100476 526.347200
   8632   8631   8653     1   107.9700462 569.024000
   8635   8636   8637     1   111.5100476 526.347200
   8635   8636   8642     1   110.1900474 564.840000
   8635   8632   8644     1   110.1900474 564.840000
   8636   8637   8641     1   107.9700462 569.024000
   8636   8637   8653     1   107.9700462 569.024000
   8636   8635   8643     1   110.1900474 564.840000
   8637   8636   8642     1   110.1900474 564.840000
   8641   8637   8653     1   108.2900466 608.353600
   8645   8631   8653     1   107.9700462 569.024000
   8654   8655   8658     1   111.5100476 526.347200
   8654   8655   8667     1   110.1900474 564.840000
   8654   8668   8674     1   110.1900474 564.840000
   8654   8676   8660     1   112.4800480 524.673600
   8655   8654   8668     1   111.5100476 526.347200
   8655   8654   8676     1   107.9700462 569.024000
   8655   8658   8659     1   111.5100476 526.347200
   8655   8658   8666     1   110.1900474 564.840000
   8658   8655   8667     1   110.1900474 564.840000
   8658   8659   8660     1   111.5100476 526.347200
   8658   8659   8665     1   110.1900474 564.840000
   8659   8658   8666     1   110.1900474 564.840000
   8659   8660   8664     1   107.9700462 569.024000
   8659   8660   8676     1   107.9700462 569.024000
   8660   8659   8665     1   110.1900474 564.840000
   8664   8660   8676     1   108.2900466 608.353600
   8668   8654   8676     1   107.9700462 569.024000
   8677   8678   8681     1   111.5100476 526.347200
   8677   8678   8690     1   110.1900474 564.840000
   8677   8691   8697     1   110.1900474 564.840000
   8677   8699   8683     1   112.4800480 524.673600
   8678   8681   8682     1   111.5100476 526.347200
   8678   8681   8689     1   110.1900474 564.840000
   8678   8677   8691     1   111.5100476 526.347200
   8678   8677   8699     1   107.9700462 569.024000
   8681   8682   8683     1   111.5100476 526.347200
   8681   8682   8688     1   110.1900474 564.840000
   8681   8678   8690     1   110.1900474 564.840000
   8682   8683   8687     1   107.9700462 569.024000
   8682   8683   8699     1   107.9700462 569.024000
   8682   8681   8689     1   110.1900474 564.840000
   8683   8682   8688     1   110.1900474 564.840000
   8687   8683   8699     1   108.2900466 608.353600
   8691   8677   8699     1   107.9700462 569.024000
   8700   8701   8704     1   111.5100476 526.347200
   8700   8701   8713     1   110.1900474 564.840000
   8700   8714   8720     1   110.1900474 564.840000
   8700   8722   8706     1   112.4800480 524.673600
   8701   8700   8714     1   111.5100476 526.347200
   8701   8700   8722     1   107.9700462 569.024000
   8701   8704   8705     1   111.5100476 526.347200
   8701   8704   8712     1   110.1900474 564.840000
   8704   8701   8713     1   110.1900474 564.840000
   8704   8705   8706     1   111.5100476 526.347200
   8704   8705   8711     1   110.1900474 564.840000
   8705   8704   8712     1   110.1900474 564.840000
   8705   8706   8710     1   107.9700462 569.024000
   8705   8706   8722     1   107.9700462 569.024000
   8706   8705   8711     1   110.1900474 564.840000
   8710   8706   8722     1   108.2900466 608.353600
   8714   8700   8722     1   107.9700462 569.024000
   8723   8724   8727     1   111.5100476 526.347200
   8723   8724   8736     1   110.1900474 564.840000
   8723   8737   8743     1   110.1900474 564.840000
   8723   8745   8729     1   112.4800480 524.673600
   8724   8727   8728     1   111.5100476 526.347200
   8724   8727   8735     1   110.1900474 564.840000
   8724   8723   8737     1   111.5100476 526.347200
   8724   8723   8745     1   107.9700462 569.024000
   8727   8728   8729     1   111.5100476 526.347200
   8727   8728   8734     1   110.1900474 564.840000
   8727   8724   8736     1   110.1900474 564.840000
   8728   8729   8733     1   107.9700462 569.024000
   8728   8729   8745     1   107.9700462 569.024000
   8728   8727   8735     1   110.1900474 564.840000
   8729   8728   8734     1   110.1900474 564.840000
   8733   8729   8745     1   108.2900466 608.353600
   8737   8723   8745     1   107.9700462 569.024000
   8746   8747   8750     1   111.5100476 526.347200
   8746   8747   8759     1   110.1900474 564.840000
   8746   8760   8766     1   110.1900474 564.840000
   8746   8768   8752     1   112.4800480 524.673600
   8747   8746   8760     1   111.5100476 526.347200
   8747   8746   8768     1   107.9700462 569.024000
   8747   8750   8751     1   111.5100476 526.347200
   8747   8750   8758     1   110.1900474 564.840000
   8750   8747   8759     1   110.1900474 564.840000
   8750   8751   8752     1   111.5100476 526.347200
   8750   8751   8757     1   110.1900474 564.840000
   8751   8750   8758     1   110.1900474 564.840000
   8751   8752   8756     1   107.9700462 569.024000
   8751   8752   8768     1   107.9700462 569.024000
   8752   8751   8757     1   110.1900474 564.840000
   8756   8752   8768     1   108.2900466 608.353600
   8760   8746   8768     1   107.9700462 569.024000
   8769   8770   8773     1   111.5100476 526.347200
   8769   8770   8782     1   110.1900474 564.840000
   8769   8783   8789     1   110.1900474 564.840000
   8769   8791   8775     1   112.4800480 524.673600
   8770   8773   8774     1   111.5100476 526.347200
   8770   8773   8781     1   110.1900474 564.840000
   8770   8769   8783     1   111.5100476 526.347200
   8770   8769   8791     1   107.9700462 569.024000
   8773   8774   8775     1   111.5100476 526.347200
   8773   8774   8780     1   110.1900474 564.840000
   8773   8770   8782     1   110.1900474 564.840000
   8774   8775   8779     1   107.9700462 569.024000
   8774   8775   8791     1   107.9700462 569.024000
   8774   8773   8781     1   110.1900474 564.840000
   8775   8774   8780     1   110.1900474 564.840000
   8779   8775   8791     1   108.2900466 608.353600
   8783   8769   8791     1   107.9700462 569.024000
   8792   8793   8796     1   111.5100476 526.347200
   8792   8793   8805     1   110.1900474 564.840000
   8792   8806   8812     1   110.1900474 564.840000
   8792   8814   8798     1   112.4800480 524.673600
   8793   8792   8806     1   111.5100476 526.347200
   8793   8792   8814     1   107.9700462 569.024000
   8793   8796   8797     1   111.5100476 526.347200
   8793   8796   8804     1   110.1900474 564.840000
   8796   8793   8805     1   110.1900474 564.840000
   8796   8797   8798     1   111.5100476 526.347200
   8796   8797   8803     1   110.1900474 564.840000
   8797   8796   8804     1   110.1900474 564.840000
   8797   8798   8802     1   107.9700462 569.024000
   8797   8798   8814     1   107.9700462 569.024000
   8798   8797   8803     1   110.1900474 564.840000
   8802   8798   8814     1   108.2900466 608.353600
   8806   8792   8814     1   107.9700462 569.024000
   8815   8816   8819     1   111.5100476 526.347200
   8815   8816   8828     1   110.1900474 564.840000
   8815   8829   8835     1   110.1900474 564.840000
   8815   8837   8821     1   112.4800480 524.673600
   8816   8819   8820     1   111.5100476 526.347200
   8816   8819   8827     1   110.1900474 564.840000
   8816   8815   8829     1   111.5100476 526.347200
   8816   8815   8837     1   107.9700462 569.024000
   8819   8820   8821     1   111.5100476 526.347200
   8819   8820   8826     1   110.1900474 564.840000
   8819   8816   8828     1   110.1900474 564.840000
   8820   8821   8825     1   107.9700462 569.024000
   8820   8821   8837     1   107.9700462 569.024000
   8820   8819   8827     1   110.1900474 564.840000
   8821   8820   8826     1   110.1900474 564.840000
   8825   8821   8837     1   108.2900466 608.353600
   8829   8815   8837     1   107.9700462 569.024000
   8838   8839   8842     1   111.5100476 526.347200
   8838   8839   8851     1   110.1900474 564.840000
   8838   8852   8858     1   110.1900474 564.840000
   8838   8860   8844     1   112.4800480 524.673600
   8839   8838   8852     1   111.5100476 526.347200
   8839   8838   8860     1   107.9700462 569.024000
   8839   8842   8843     1   111.5100476 526.347200
   8839   8842   8850     1   110.1900474 564.840000
   8842   8839   8851     1   110.1900474 564.840000
   8842   8843   8844     1   111.5100476 526.347200
   8842   8843   8849     1   110.1900474 564.840000
   8843   8842   8850     1   110.1900474 564.840000
   8843   8844   8848     1   107.9700462 569.024000
   8843   8844   8860     1   107.9700462 569.024000
   8844   8843   8849     1   110.1900474 564.840000
   8848   8844   8860     1   108.2900466 608.353600
   8852   8838   8860     1   107.9700462 569.024000
   8861   8862   8865     1   111.5100476 526.347200
   8861   8862   8874     1   110.1900474 564.840000
   8861   8875   8881     1   110.1900474 564.840000
   8861   8883   8867     1   112.4800480 524.673600
   8862   8865   8866     1   111.5100476 526.347200
   8862   8865   8873     1   110.1900474 564.840000
   8862   8861   8875     1   111.5100476 526.347200
   8862   8861   8883     1   107.9700462 569.024000
   8865   8866   8867     1   111.5100476 526.347200
   8865   8866   8872     1   110.1900474 564.840000
   8865   8862   8874     1   110.1900474 564.840000
   8866   8867   8871     1   107.9700462 569.024000
   8866   8867   8883     1   107.9700462 569.024000
   8866   8865   8873     1   110.1900474 564.840000
   8867   8866   8872     1   110.1900474 564.840000
   8871   8867   8883     1   108.2900466 608.353600
   8875   8861   8883     1   107.9700462 569.024000
   8884   8885   8888     1   111.5100476 526.347200
   8884   8885   8897     1   110.1900474 564.840000
   8884   8898   8904     1   110.1900474 564.840000
   8884   8906   8890     1   112.4800480 524.673600
   8885   8884   8898     1   111.5100476 526.347200
   8885   8884   8906     1   107.9700462 569.024000
   8885   8888   8889     1   111.5100476 526.347200
   8885   8888   8896     1   110.1900474 564.840000
   8888   8885   8897     1   110.1900474 564.840000
   8888   8889   8890     1   111.5100476 526.347200
   8888   8889   8895     1   110.1900474 564.840000
   8889   8888   8896     1   110.1900474 564.840000
   8889   8890   8894     1   107.9700462 569.024000
   8889   8890   8906     1   107.9700462 569.024000
   8890   8889   8895     1   110.1900474 564.840000
   8894   8890   8906     1   108.2900466 608.353600
   8898   8884   8906     1   107.9700462 569.024000
   8907   8908   8911     1   111.5100476 526.347200
   8907   8908   8920     1   110.1900474 564.840000
   8907   8921   8927     1   110.1900474 564.840000
   8907   8929   8913     1   112.4800480 524.673600
   8908   8911   8912     1   111.5100476 526.347200
   8908   8911   8919     1   110.1900474 564.840000
   8908   8907   8921     1   111.5100476 526.347200
   8908   8907   8929     1   107.9700462 569.024000
   8911   8912   8913     1   111.5100476 526.347200
   8911   8912   8918     1   110.1900474 564.840000
   8911   8908   8920     1   110.1900474 564.840000
   8912   8913   8917     1   107.9700462 569.024000
   8912   8913   8929     1   107.9700462 569.024000
   8912   8911   8919     1   110.1900474 564.840000
   8913   8912   8918     1   110.1900474 564.840000
   8917   8913   8929     1   108.2900466 608.353600
   8921   8907   8929     1   107.9700462 569.024000
   8930   8931   8934     1   111.5100476 526.347200
   8930   8931   8943     1   110.1900474 564.840000
   8930   8944   8950     1   110.1900474 564.840000
   8930   8952   8936     1   112.4800480 524.673600
   8931   8930   8944     1   111.5100476 526.347200
   8931   8930   8952     1   107.9700462 569.024000
   8931   8934   8935     1   111.5100476 526.347200
   8931   8934   8942     1   110.1900474 564.840000
   8934   8931   8943     1   110.1900474 564.840000
   8934   8935   8936     1   111.5100476 526.347200
   8934   8935   8941     1   110.1900474 564.840000
   8935   8934   8942     1   110.1900474 564.840000
   8935   8936   8940     1   107.9700462 569.024000
   8935   8936   8952     1   107.9700462 569.024000
   8936   8935   8941     1   110.1900474 564.840000
   8940   8936   8952     1   108.2900466 608.353600
   8944   8930   8952     1   107.9700462 569.024000
   8953   8954   8957     1   111.5100476 526.347200
   8953   8954   8966     1   110.1900474 564.840000
   8953   8967   8973     1   110.1900474 564.840000
   8953   8975   8959     1   112.4800480 524.673600
   8954   8957   8958     1   111.5100476 526.347200
   8954   8957   8965     1   110.1900474 564.840000
   8954   8953   8967     1   111.5100476 526.347200
   8954   8953   8975     1   107.9700462 569.024000
   8957   8958   8959     1   111.5100476 526.347200
   8957   8958   8964     1   110.1900474 564.840000
   8957   8954   8966     1   110.1900474 564.840000
   8958   8959   8963     1   107.9700462 569.024000
   8958   8959   8975     1   107.9700462 569.024000
   8958   8957   8965     1   110.1900474 564.840000
   8959   8958   8964     1   110.1900474 564.840000
   8963   8959   8975     1   108.2900466 608.353600
   8967   8953   8975     1   107.9700462 569.024000
   8976   8977   8980     1   111.5100476 526.347200
   8976   8977   8989     1   110.1900474 564.840000
   8976   8990   8996     1   110.1900474 564.840000
   8976   8998   8982     1   112.4800480 524.673600
   8977   8976   8990     1   111.5100476 526.347200
   8977   8976   8998     1   107.9700462 569.024000
   8977   8980   8981     1   111.5100476 526.347200
   8977   8980   8988     1   110.1900474 564.840000
   8980   8977   8989     1   110.1900474 564.840000
   8980   8981   8982     1   111.5100476 526.347200
   8980   8981   8987     1   110.1900474 564.840000
   8981   8980   8988     1   110.1900474 564.840000
   8981   8982   8986     1   107.9700462 569.024000
   8981   8982   8998     1   107.9700462 569.024000
   8982   8981   8987     1   110.1900474 564.840000
   8986   8982   8998     1   108.2900466 608.353600
   8990   8976   8998     1   107.9700462 569.024000
   8999   9000   9003     1   111.5100476 526.347200
   8999   9000   9012     1   110.1900474 564.840000
   8999   9013   9019     1   110.1900474 564.840000
   8999   9021   9005     1   112.4800480 524.673600
   9000   9003   9004     1   111.5100476 526.347200
   9000   9003   9011     1   110.1900474 564.840000
   9000   8999   9013     1   111.5100476 526.347200
   9000   8999   9021     1   107.9700462 569.024000
   9003   9004   9005     1   111.5100476 526.347200
   9003   9004   9010     1   110.1900474 564.840000
   9003   9000   9012     1   110.1900474 564.840000
   9004   9005   9009     1   107.9700462 569.024000
   9004   9005   9021     1   107.9700462 569.024000
   9004   9003   9011     1   110.1900474 564.840000
   9005   9004   9010     1   110.1900474 564.840000
   9009   9005   9021     1   108.2900466 608.353600
   9013   8999   9021     1   107.9700462 569.024000
   9022   9023   9026     1   111.5100476 526.347200
   9022   9023   9035     1   110.1900474 564.840000
   9022   9036   9042     1   110.1900474 564.840000
   9022   9044   9028     1   112.4800480 524.673600
   9023   9022   9036     1   111.5100476 526.347200
   9023   9022   9044     1   107.9700462 569.024000
   9023   9026   9027     1   111.5100476 526.347200
   9023   9026   9034     1   110.1900474 564.840000
   9026   9023   9035     1   110.1900474 564.840000
   9026   9027   9028     1   111.5100476 526.347200
   9026   9027   9033     1   110.1900474 564.840000
   9027   9026   9034     1   110.1900474 564.840000
   9027   9028   9032     1   107.9700462 569.024000
   9027   9028   9044     1   107.9700462 569.024000
   9028   9027   9033     1   110.1900474 564.840000
   9032   9028   9044     1   108.2900466 608.353600
   9036   9022   9044     1   107.9700462 569.024000
   9045   9046   9049     1   111.5100476 526.347200
   9045   9046   9058     1   110.1900474 564.840000
   9045   9059   9065     1   110.1900474 564.840000
   9045   9067   9051     1   112.4800480 524.673600
   9046   9049   9050     1   111.5100476 526.347200
   9046   9049   9057     1   110.1900474 564.840000
   9046   9045   9059     1   111.5100476 526.347200
   9046   9045   9067     1   107.9700462 569.024000
   9049   9050   9051     1   111.5100476 526.347200
   9049   9050   9056     1   110.1900474 564.840000
   9049   9046   9058     1   110.1900474 564.840000
   9050   9051   9055     1   107.9700462 569.024000
   9050   9051   9067     1   107.9700462 569.024000
   9050   9049   9057     1   110.1900474 564.840000
   9051   9050   9056     1   110.1900474 564.840000
   9055   9051   9067     1   108.2900466 608.353600
   9059   9045   9067     1   107.9700462 569.024000
   9068   9069   9072     1   111.5100476 526.347200
   9068   9069   9081     1   110.1900474 564.840000
   9068   9082   9088     1   110.1900474 564.840000
   9068   9090   9074     1   112.4800480 524.673600
   9069   9068   9082     1   111.5100476 526.347200
   9069   9068   9090     1   107.9700462 569.024000
   9069   9072   9073     1   111.5100476 526.347200
   9069   9072   9080     1   110.1900474 564.840000
   9072   9069   9081     1   110.1900474 564.840000
   9072   9073   9074     1   111.5100476 526.347200
   9072   9073   9079     1   110.1900474 564.840000
   9073   9072   9080     1   110.1900474 564.840000
   9073   9074   9078     1   107.9700462 569.024000
   9073   9074   9090     1   107.9700462 569.024000
   9074   9073   9079     1   110.1900474 564.840000
   9078   9074   9090     1   108.2900466 608.353600
   9082   9068   9090     1   107.9700462 569.024000
   9091   9092   9095     1   111.5100476 526.347200
   9091   9092   9104     1   110.1900474 564.840000
   9091   9105   9111     1   110.1900474 564.840000
   9091   9113   9097     1   112.4800480 524.673600
   9092   9095   9096     1   111.5100476 526.347200
   9092   9095   9103     1   110.1900474 564.840000
   9092   9091   9105     1   111.5100476 526.347200
   9092   9091   9113     1   107.9700462 569.024000
   9095   9096   9097     1   111.5100476 526.347200
   9095   9096   9102     1   110.1900474 564.840000
   9095   9092   9104     1   110.1900474 564.840000
   9096   9097   9101     1   107.9700462 569.024000
   9096   9097   9113     1   107.9700462 569.024000
   9096   9095   9103     1   110.1900474 564.840000
   9097   9096   9102     1   110.1900474 564.840000
   9101   9097   9113     1   108.2900466 608.353600
   9105   9091   9113     1   107.9700462 569.024000
   9114   9115   9118     1   111.5100476 526.347200
   9114   9115   9127     1   110.1900474 564.840000
   9114   9128   9134     1   110.1900474 564.840000
   9114   9136   9120     1   112.4800480 524.673600
   9115   9114   9128     1   111.5100476 526.347200
   9115   9114   9136     1   107.9700462 569.024000
   9115   9118   9119     1   111.5100476 526.347200
   9115   9118   9126     1   110.1900474 564.840000
   9118   9115   9127     1   110.1900474 564.840000
   9118   9119   9120     1   111.5100476 526.347200
   9118   9119   9125     1   110.1900474 564.840000
   9119   9118   9126     1   110.1900474 564.840000
   9119   9120   9124     1   107.9700462 569.024000
   9119   9120   9136     1   107.9700462 569.024000
   9120   9119   9125     1   110.1900474 564.840000
   9124   9120   9136     1   108.2900466 608.353600
   9128   9114   9136     1   107.9700462 569.024000
   9137   9138   9141     1   111.5100476 526.347200
   9137   9138   9150     1   110.1900474 564.840000
   9137   9151   9157     1   110.1900474 564.840000
   9137   9159   9143     1   112.4800480 524.673600
   9138   9141   9142     1   111.5100476 526.347200
   9138   9141   9149     1   110.1900474 564.840000
   9138   9137   9151     1   111.5100476 526.347200
   9138   9137   9159     1   107.9700462 569.024000
   9141   9142   9143     1   111.5100476 526.347200
   9141   9142   9148     1   110.1900474 564.840000
   9141   9138   9150     1   110.1900474 564.840000
   9142   9143   9147     1   107.9700462 569.024000
   9142   9143   9159     1   107.9700462 569.024000
   9142   9141   9149     1   110.1900474 564.840000
   9143   9142   9148     1   110.1900474 564.840000
   9147   9143   9159     1   108.2900466 608.353600
   9151   9137   9159     1   107.9700462 569.024000
   9160   9161   9164     1   111.5100476 526.347200
   9160   9161   9173     1   110.1900474 564.840000
   9160   9174   9180     1   110.1900474 564.840000
   9160   9182   9166     1   112.4800480 524.673600
   9161   9160   9174     1   111.5100476 526.347200
   9161   9160   9182     1   107.9700462 569.024000
   9161   9164   9165     1   111.5100476 526.347200
   9161   9164   9172     1   110.1900474 564.840000
   9164   9161   9173     1   110.1900474 564.840000
   9164   9165   9166     1   111.5100476 526.347200
   9164   9165   9171     1   110.1900474 564.840000
   9165   9164   9172     1   110.1900474 564.840000
   9165   9166   9170     1   107.9700462 569.024000
   9165   9166   9182     1   107.9700462 569.024000
   9166   9165   9171     1   110.1900474 564.840000
   9170   9166   9182     1   108.2900466 608.353600
   9174   9160   9182     1   107.9700462 569.024000
   9183   9184   9187     1   111.5100476 526.347200
   9183   9184   9196     1   110.1900474 564.840000
   9183   9197   9203     1   110.1900474 564.840000
   9183   9205   9189     1   112.4800480 524.673600
   9184   9187   9188     1   111.5100476 526.347200
   9184   9187   9195     1   110.1900474 564.840000
   9184   9183   9197     1   111.5100476 526.347200
   9184   9183   9205     1   107.9700462 569.024000
   9187   9188   9189     1   111.5100476 526.347200
   9187   9188   9194     1   110.1900474 564.840000
   9187   9184   9196     1   110.1900474 564.840000
   9188   9189   9193     1   107.9700462 569.024000
   9188   9189   9205     1   107.9700462 569.024000
   9188   9187   9195     1   110.1900474 564.840000
   9189   9188   9194     1   110.1900474 564.840000
   9193   9189   9205     1   108.2900466 608.353600
   9197   9183   9205     1   107.9700462 569.024000
   9206   9207   9210     1   111.5100476 526.347200
   9206   9207   9219     1   110.1900474 564.840000
   9206   9220   9226     1   110.1900474 564.840000
   9206   9228   9212     1   112.4800480 524.673600
   9207   9206   9220     1   111.5100476 526.347200
   9207   9206   9228     1   107.9700462 569.024000
   9207   9210   9211     1   111.5100476 526.347200
   9207   9210   9218     1   110.1900474 564.840000
   9210   9207   9219     1   110.1900474 564.840000
   9210   9211   9212     1   111.5100476 526.347200
   9210   9211   9217     1   110.1900474 564.840000
   9211   9210   9218     1   110.1900474 564.840000
   9211   9212   9216     1   107.9700462 569.024000
   9211   9212   9228     1   107.9700462 569.024000
   9212   9211   9217     1   110.1900474 564.840000
   9216   9212   9228     1   108.2900466 608.353600
   9220   9206   9228     1   107.9700462 569.024000
   9229   9230   9233     1   111.5100476 526.347200
   9229   9230   9242     1   110.1900474 564.840000
   9229   9243   9249     1   110.1900474 564.840000
   9229   9251   9235     1   112.4800480 524.673600
   9230   9233   9234     1   111.5100476 526.347200
   9230   9233   9241     1   110.1900474 564.840000
   9230   9229   9243     1   111.5100476 526.347200
   9230   9229   9251     1   107.9700462 569.024000
   9233   9234   9235     1   111.5100476 526.347200
   9233   9234   9240     1   110.1900474 564.840000
   9233   9230   9242     1   110.1900474 564.840000
   9234   9235   9239     1   107.9700462 569.024000
   9234   9235   9251     1   107.9700462 569.024000
   9234   9233   9241     1   110.1900474 564.840000
   9235   9234   9240     1   110.1900474 564.840000
   9239   9235   9251     1   108.2900466 608.353600
   9243   9229   9251     1   107.9700462 569.024000
   9252   9253   9256     1   111.5100476 526.347200
   9252   9253   9265     1   110.1900474 564.840000
   9252   9266   9272     1   110.1900474 564.840000
   9252   9274   9258     1   112.4800480 524.673600
   9253   9252   9266     1   111.5100476 526.347200
   9253   9252   9274     1   107.9700462 569.024000
   9253   9256   9257     1   111.5100476 526.347200
   9253   9256   9264     1   110.1900474 564.840000
   9256   9253   9265     1   110.1900474 564.840000
   9256   9257   9258     1   111.5100476 526.347200
   9256   9257   9263     1   110.1900474 564.840000
   9257   9256   9264     1   110.1900474 564.840000
   9257   9258   9262     1   107.9700462 569.024000
   9257   9258   9274     1   107.9700462 569.024000
   9258   9257   9263     1   110.1900474 564.840000
   9262   9258   9274     1   108.2900466 608.353600
   9266   9252   9274     1   107.9700462 569.024000
   9275   9276   9279     1   111.5100476 526.347200
   9275   9276   9288     1   110.1900474 564.840000
   9275   9289   9295     1   110.1900474 564.840000
   9275   9297   9281     1   112.4800480 524.673600
   9276   9279   9280     1   111.5100476 526.347200
   9276   9279   9287     1   110.1900474 564.840000
   9276   9275   9289     1   111.5100476 526.347200
   9276   9275   9297     1   107.9700462 569.024000
   9279   9280   9281     1   111.5100476 526.347200
   9279   9280   9286     1   110.1900474 564.840000
   9279   9276   9288     1   110.1900474 564.840000
   9280   9281   9285     1   107.9700462 569.024000
   9280   9281   9297     1   107.9700462 569.024000
   9280   9279   9287     1   110.1900474 564.840000
   9281   9280   9286     1   110.1900474 564.840000
   9285   9281   9297     1   108.2900466 608.353600
   9289   9275   9297     1   107.9700462 569.024000
   9298   9299   9302     1   111.5100476 526.347200
   9298   9299   9311     1   110.1900474 564.840000
   9298   9312   9318     1   110.1900474 564.840000
   9298   9320   9304     1   112.4800480 524.673600
   9299   9298   9312     1   111.5100476 526.347200
   9299   9298   9320     1   107.9700462 569.024000
   9299   9302   9303     1   111.5100476 526.347200
   9299   9302   9310     1   110.1900474 564.840000
   9302   9299   9311     1   110.1900474 564.840000
   9302   9303   9304     1   111.5100476 526.347200
   9302   9303   9309     1   110.1900474 564.840000
   9303   9302   9310     1   110.1900474 564.840000
   9303   9304   9308     1   107.9700462 569.024000
   9303   9304   9320     1   107.9700462 569.024000
   9304   9303   9309     1   110.1900474 564.840000
   9308   9304   9320     1   108.2900466 608.353600
   9312   9298   9320     1   107.9700462 569.024000
   9321   9322   9325     1   111.5100476 526.347200
   9321   9322   9334     1   110.1900474 564.840000
   9321   9335   9341     1   110.1900474 564.840000
   9321   9343   9327     1   112.4800480 524.673600
   9322   9325   9326     1   111.5100476 526.347200
   9322   9325   9333     1   110.1900474 564.840000
   9322   9321   9335     1   111.5100476 526.347200
   9322   9321   9343     1   107.9700462 569.024000
   9325   9326   9327     1   111.5100476 526.347200
   9325   9326   9332     1   110.1900474 564.840000
   9325   9322   9334     1   110.1900474 564.840000
   9326   9327   9331     1   107.9700462 569.024000
   9326   9327   9343     1   107.9700462 569.024000
   9326   9325   9333     1   110.1900474 564.840000
   9327   9326   9332     1   110.1900474 564.840000
   9331   9327   9343     1   108.2900466 608.353600
   9335   9321   9343     1   107.9700462 569.024000
   9344   9345   9348     1   111.5100476 526.347200
   9344   9345   9357     1   110.1900474 564.840000
   9344   9358   9364     1   110.1900474 564.840000
   9344   9366   9350     1   112.4800480 524.673600
   9345   9344   9358     1   111.5100476 526.347200
   9345   9344   9366     1   107.9700462 569.024000
   9345   9348   9349     1   111.5100476 526.347200
   9345   9348   9356     1   110.1900474 564.840000
   9348   9345   9357     1   110.1900474 564.840000
   9348   9349   9350     1   111.5100476 526.347200
   9348   9349   9355     1   110.1900474 564.840000
   9349   9348   9356     1   110.1900474 564.840000
   9349   9350   9354     1   107.9700462 569.024000
   9349   9350   9366     1   107.9700462 569.024000
   9350   9349   9355     1   110.1900474 564.840000
   9354   9350   9366     1   108.2900466 608.353600
   9358   9344   9366     1   107.9700462 569.024000
   9367   9368   9371     1   111.5100476 526.347200
   9367   9368   9380     1   110.1900474 564.840000
   9367   9381   9387     1   110.1900474 564.840000
   9367   9389   9373     1   112.4800480 524.673600
   9368   9371   9372     1   111.5100476 526.347200
   9368   9371   9379     1   110.1900474 564.840000
   9368   9367   9381     1   111.5100476 526.347200
   9368   9367   9389     1   107.9700462 569.024000
   9371   9372   9373     1   111.5100476 526.347200
   9371   9372   9378     1   110.1900474 564.840000
   9371   9368   9380     1   110.1900474 564.840000
   9372   9373   9377     1   107.9700462 569.024000
   9372   9373   9389     1   107.9700462 569.024000
   9372   9371   9379     1   110.1900474 564.840000
   9373   9372   9378     1   110.1900474 564.840000
   9377   9373   9389     1   108.2900466 608.353600
   9381   9367   9389     1   107.9700462 569.024000
   9390   9391   9394     1   111.5100476 526.347200
   9390   9391   9403     1   110.1900474 564.840000
   9390   9404   9410     1   110.1900474 564.840000
   9390   9412   9396     1   112.4800480 524.673600
   9391   9390   9404     1   111.5100476 526.347200
   9391   9390   9412     1   107.9700462 569.024000
   9391   9394   9395     1   111.5100476 526.347200
   9391   9394   9402     1   110.1900474 564.840000
   9394   9391   9403     1   110.1900474 564.840000
   9394   9395   9396     1   111.5100476 526.347200
   9394   9395   9401     1   110.1900474 564.840000
   9395   9394   9402     1   110.1900474 564.840000
   9395   9396   9400     1   107.9700462 569.024000
   9395   9396   9412     1   107.9700462 569.024000
   9396   9395   9401     1   110.1900474 564.840000
   9400   9396   9412     1   108.2900466 608.353600
   9404   9390   9412     1   107.9700462 569.024000
   9413   9414   9417     1   111.5100476 526.347200
   9413   9414   9426     1   110.1900474 564.840000
   9413   9427   9433     1   110.1900474 564.840000
   9413   9435   9419     1   112.4800480 524.673600
   9414   9417   9418     1   111.5100476 526.347200
   9414   9417   9425     1   110.1900474 564.840000
   9414   9413   9427     1   111.5100476 526.347200
   9414   9413   9435     1   107.9700462 569.024000
   9417   9418   9419     1   111.5100476 526.347200
   9417   9418   9424     1   110.1900474 564.840000
   9417   9414   9426     1   110.1900474 564.840000
   9418   9419   9423     1   107.9700462 569.024000
   9418   9419   9435     1   107.9700462 569.024000
   9418   9417   9425     1   110.1900474 564.840000
   9419   9418   9424     1   110.1900474 564.840000
   9423   9419   9435     1   108.2900466 608.353600
   9427   9413   9435     1   107.9700462 569.024000
   9436   9437   9440     1   111.5100476 526.347200
   9436   9437   9449     1   110.1900474 564.840000
   9436   9450   9456     1   110.1900474 564.840000
   9436   9458   9442     1   112.4800480 524.673600
   9437   9436   9450     1   111.5100476 526.347200
   9437   9436   9458     1   107.9700462 569.024000
   9437   9440   9441     1   111.5100476 526.347200
   9437   9440   9448     1   110.1900474 564.840000
   9440   9437   9449     1   110.1900474 564.840000
   9440   9441   9442     1   111.5100476 526.347200
   9440   9441   9447     1   110.1900474 564.840000
   9441   9440   9448     1   110.1900474 564.840000
   9441   9442   9446     1   107.9700462 569.024000
   9441   9442   9458     1   107.9700462 569.024000
   9442   9441   9447     1   110.1900474 564.840000
   9446   9442   9458     1   108.2900466 608.353600
   9450   9436   9458     1   107.9700462 569.024000
   9459   9460   9463     1   111.5100476 526.347200
   9459   9460   9472     1   110.1900474 564.840000
   9459   9473   9479     1   110.1900474 564.840000
   9459   9481   9465     1   112.4800480 524.673600
   9460   9463   9464     1   111.5100476 526.347200
   9460   9463   9471     1   110.1900474 564.840000
   9460   9459   9473     1   111.5100476 526.347200
   9460   9459   9481     1   107.9700462 569.024000
   9463   9464   9465     1   111.5100476 526.347200
   9463   9464   9470     1   110.1900474 564.840000
   9463   9460   9472     1   110.1900474 564.840000
   9464   9465   9469     1   107.9700462 569.024000
   9464   9465   9481     1   107.9700462 569.024000
   9464   9463   9471     1   110.1900474 564.840000
   9465   9464   9470     1   110.1900474 564.840000
   9469   9465   9481     1   108.2900466 608.353600
   9473   9459   9481     1   107.9700462 569.024000
   9482   9483   9486     1   111.5100476 526.347200
   9482   9483   9495     1   110.1900474 564.840000
   9482   9496   9502     1   110.1900474 564.840000
   9482   9504   9488     1   112.4800480 524.673600
   9483   9482   9496     1   111.5100476 526.347200
   9483   9482   9504     1   107.9700462 569.024000
   9483   9486   9487     1   111.5100476 526.347200
   9483   9486   9494     1   110.1900474 564.840000
   9486   9483   9495     1   110.1900474 564.840000
   9486   9487   9488     1   111.5100476 526.347200
   9486   9487   9493     1   110.1900474 564.840000
   9487   9486   9494     1   110.1900474 564.840000
   9487   9488   9492     1   107.9700462 569.024000
   9487   9488   9504     1   107.9700462 569.024000
   9488   9487   9493     1   110.1900474 564.840000
   9492   9488   9504     1   108.2900466 608.353600
   9496   9482   9504     1   107.9700462 569.024000
   9505   9506   9509     1   111.5100476 526.347200
   9505   9506   9518     1   110.1900474 564.840000
   9505   9519   9525     1   110.1900474 564.840000
   9505   9527   9511     1   112.4800480 524.673600
   9506   9509   9510     1   111.5100476 526.347200
   9506   9509   9517     1   110.1900474 564.840000
   9506   9505   9519     1   111.5100476 526.347200
   9506   9505   9527     1   107.9700462 569.024000
   9509   9510   9511     1   111.5100476 526.347200
   9509   9510   9516     1   110.1900474 564.840000
   9509   9506   9518     1   110.1900474 564.840000
   9510   9511   9515     1   107.9700462 569.024000
   9510   9511   9527     1   107.9700462 569.024000
   9510   9509   9517     1   110.1900474 564.840000
   9511   9510   9516     1   110.1900474 564.840000
   9515   9511   9527     1   108.2900466 608.353600
   9519   9505   9527     1   107.9700462 569.024000
   9528   9529   9532     1   111.5100476 526.347200
   9528   9529   9541     1   110.1900474 564.840000
   9528   9542   9548     1   110.1900474 564.840000
   9528   9550   9534     1   112.4800480 524.673600
   9529   9528   9542     1   111.5100476 526.347200
   9529   9528   9550     1   107.9700462 569.024000
   9529   9532   9533     1   111.5100476 526.347200
   9529   9532   9540     1   110.1900474 564.840000
   9532   9529   9541     1   110.1900474 564.840000
   9532   9533   9534     1   111.5100476 526.347200
   9532   9533   9539     1   110.1900474 564.840000
   9533   9532   9540     1   110.1900474 564.840000
   9533   9534   9538     1   107.9700462 569.024000
   9533   9534   9550     1   107.9700462 569.024000
   9534   9533   9539     1   110.1900474 564.840000
   9538   9534   9550     1   108.2900466 608.353600
   9542   9528   9550     1   107.9700462 569.024000
   9551   9552   9555     1   111.5100476 526.347200
   9551   9552   9564     1   110.1900474 564.840000
   9551   9565   9571     1   110.1900474 564.840000
   9551   9573   9557     1   112.4800480 524.673600
   9552   9555   9556     1   111.5100476 526.347200
   9552   9555   9563     1   110.1900474 564.840000
   9552   9551   9565     1   111.5100476 526.347200
   9552   9551   9573     1   107.9700462 569.024000
   9555   9556   9557     1   111.5100476 526.347200
   9555   9556   9562     1   110.1900474 564.840000
   9555   9552   9564     1   110.1900474 564.840000
   9556   9557   9561     1   107.9700462 569.024000
   9556   9557   9573     1   107.9700462 569.024000
   9556   9555   9563     1   110.1900474 564.840000
   9557   9556   9562     1   110.1900474 564.840000
   9561   9557   9573     1   108.2900466 608.353600
   9565   9551   9573     1   107.9700462 569.024000
   9574   9575   9578     1   111.5100476 526.347200
   9574   9575   9587     1   110.1900474 564.840000
   9574   9588   9594     1   110.1900474 564.840000
   9574   9596   9580     1   112.4800480 524.673600
   9575   9574   9588     1   111.5100476 526.347200
   9575   9574   9596     1   107.9700462 569.024000
   9575   9578   9579     1   111.5100476 526.347200
   9575   9578   9586     1   110.1900474 564.840000
   9578   9575   9587     1   110.1900474 564.840000
   9578   9579   9580     1   111.5100476 526.347200
   9578   9579   9585     1   110.1900474 564.840000
   9579   9578   9586     1   110.1900474 564.840000
   9579   9580   9584     1   107.9700462 569.024000
   9579   9580   9596     1   107.9700462 569.024000
   9580   9579   9585     1   110.1900474 564.840000
   9584   9580   9596     1   108.2900466 608.353600
   9588   9574   9596     1   107.9700462 569.024000
   9597   9598   9601     1   111.5100476 526.347200
   9597   9598   9610     1   110.1900474 564.840000
   9597   9611   9617     1   110.1900474 564.840000
   9597   9619   9603     1   112.4800480 524.673600
   9598   9601   9602     1   111.5100476 526.347200
   9598   9601   9609     1   110.1900474 564.840000
   9598   9597   9611     1   111.5100476 526.347200
   9598   9597   9619     1   107.9700462 569.024000
   9601   9602   9603     1   111.5100476 526.347200
   9601   9602   9608     1   110.1900474 564.840000
   9601   9598   9610     1   110.1900474 564.840000
   9602   9603   9607     1   107.9700462 569.024000
   9602   9603   9619     1   107.9700462 569.024000
   9602   9601   9609     1   110.1900474 564.840000
   9603   9602   9608     1   110.1900474 564.840000
   9607   9603   9619     1   108.2900466 608.353600
   9611   9597   9619     1   107.9700462 569.024000
   9620   9621   9624     1   111.5100476 526.347200
   9620   9621   9633     1   110.1900474 564.840000
   9620   9634   9640     1   110.1900474 564.840000
   9620   9642   9626     1   112.4800480 524.673600
   9621   9620   9634     1   111.5100476 526.347200
   9621   9620   9642     1   107.9700462 569.024000
   9621   9624   9625     1   111.5100476 526.347200
   9621   9624   9632     1   110.1900474 564.840000
   9624   9621   9633     1   110.1900474 564.840000
   9624   9625   9626     1   111.5100476 526.347200
   9624   9625   9631     1   110.1900474 564.840000
   9625   9624   9632     1   110.1900474 564.840000
   9625   9626   9630     1   107.9700462 569.024000
   9625   9626   9642     1   107.9700462 569.024000
   9626   9625   9631     1   110.1900474 564.840000
   9630   9626   9642     1   108.2900466 608.353600
   9634   9620   9642     1   107.9700462 569.024000
   9643   9644   9647     1   111.5100476 526.347200
   9643   9644   9656     1   110.1900474 564.840000
   9643   9657   9663     1   110.1900474 564.840000
   9643   9665   9649     1   112.4800480 524.673600
   9644   9647   9648     1   111.5100476 526.347200
   9644   9647   9655     1   110.1900474 564.840000
   9644   9643   9657     1   111.5100476 526.347200
   9644   9643   9665     1   107.9700462 569.024000
   9647   9648   9649     1   111.5100476 526.347200
   9647   9648   9654     1   110.1900474 564.840000
   9647   9644   9656     1   110.1900474 564.840000
   9648   9649   9653     1   107.9700462 569.024000
   9648   9649   9665     1   107.9700462 569.024000
   9648   9647   9655     1   110.1900474 564.840000
   9649   9648   9654     1   110.1900474 564.840000
   9653   9649   9665     1   108.2900466 608.353600
   9657   9643   9665     1   107.9700462 569.024000
   9666   9667   9670     1   111.5100476 526.347200
   9666   9667   9679     1   110.1900474 564.840000
   9666   9680   9686     1   110.1900474 564.840000
   9666   9688   9672     1   112.4800480 524.673600
   9667   9666   9680     1   111.5100476 526.347200
   9667   9666   9688     1   107.9700462 569.024000
   9667   9670   9671     1   111.5100476 526.347200
   9667   9670   9678     1   110.1900474 564.840000
   9670   9667   9679     1   110.1900474 564.840000
   9670   9671   9672     1   111.5100476 526.347200
   9670   9671   9677     1   110.1900474 564.840000
   9671   9670   9678     1   110.1900474 564.840000
   9671   9672   9676     1   107.9700462 569.024000
   9671   9672   9688     1   107.9700462 569.024000
   9672   9671   9677     1   110.1900474 564.840000
   9676   9672   9688     1   108.2900466 608.353600
   9680   9666   9688     1   107.9700462 569.024000
   9689   9690   9693     1   111.5100476 526.347200
   9689   9690   9702     1   110.1900474 564.840000
   9689   9703   9709     1   110.1900474 564.840000
   9689   9711   9695     1   112.4800480 524.673600
   9690   9693   9694     1   111.5100476 526.347200
   9690   9693   9701     1   110.1900474 564.840000
   9690   9689   9703     1   111.5100476 526.347200
   9690   9689   9711     1   107.9700462 569.024000
   9693   9694   9695     1   111.5100476 526.347200
   9693   9694   9700     1   110.1900474 564.840000
   9693   9690   9702     1   110.1900474 564.840000
   9694   9695   9699     1   107.9700462 569.024000
   9694   9695   9711     1   107.9700462 569.024000
   9694   9693   9701     1   110.1900474 564.840000
   9695   9694   9700     1   110.1900474 564.840000
   9699   9695   9711     1   108.2900466 608.353600
   9703   9689   9711     1   107.9700462 569.024000
   9712   9713   9716     1   111.5100476 526.347200
   9712   9713   9725     1   110.1900474 564.840000
   9712   9726   9732     1   110.1900474 564.840000
   9712   9734   9718     1   112.4800480 524.673600
   9713   9712   9726     1   111.5100476 526.347200
   9713   9712   9734     1   107.9700462 569.024000
   9713   9716   9717     1   111.5100476 526.347200
   9713   9716   9724     1   110.1900474 564.840000
   9716   9713   9725     1   110.1900474 564.840000
   9716   9717   9718     1   111.5100476 526.347200
   9716   9717   9723     1   110.1900474 564.840000
   9717   9716   9724     1   110.1900474 564.840000
   9717   9718   9722     1   107.9700462 569.024000
   9717   9718   9734     1   107.9700462 569.024000
   9718   9717   9723     1   110.1900474 564.840000
   9722   9718   9734     1   108.2900466 608.353600
   9726   9712   9734     1   107.9700462 569.024000
   9735   9736   9739     1   111.5100476 526.347200
   9735   9736   9748     1   110.1900474 564.840000
   9735   9749   9755     1   110.1900474 564.840000
   9735   9757   9741     1   112.4800480 524.673600
   9736   9739   9740     1   111.5100476 526.347200
   9736   9739   9747     1   110.1900474 564.840000
   9736   9735   9749     1   111.5100476 526.347200
   9736   9735   9757     1   107.9700462 569.024000
   9739   9740   9741     1   111.5100476 526.347200
   9739   9740   9746     1   110.1900474 564.840000
   9739   9736   9748     1   110.1900474 564.840000
   9740   9741   9745     1   107.9700462 569.024000
   9740   9741   9757     1   107.9700462 569.024000
   9740   9739   9747     1   110.1900474 564.840000
   9741   9740   9746     1   110.1900474 564.840000
   9745   9741   9757     1   108.2900466 608.353600
   9749   9735   9757     1   107.9700462 569.024000
   9758   9759   9762     1   111.5100476 526.347200
   9758   9759   9771     1   110.1900474 564.840000
   9758   9772   9778     1   110.1900474 564.840000
   9758   9780   9764     1   112.4800480 524.673600
   9759   9758   9772     1   111.5100476 526.347200
   9759   9758   9780     1   107.9700462 569.024000
   9759   9762   9763     1   111.5100476 526.347200
   9759   9762   9770     1   110.1900474 564.840000
   9762   9759   9771     1   110.1900474 564.840000
   9762   9763   9764     1   111.5100476 526.347200
   9762   9763   9769     1   110.1900474 564.840000
   9763   9762   9770     1   110.1900474 564.840000
   9763   9764   9768     1   107.9700462 569.024000
   9763   9764   9780     1   107.9700462 569.024000
   9764   9763   9769     1   110.1900474 564.840000
   9768   9764   9780     1   108.2900466 608.353600
   9772   9758   9780     1   107.9700462 569.024000
   9781   9782   9785     1   111.5100476 526.347200
   9781   9782   9794     1   110.1900474 564.840000
   9781   9795   9801     1   110.1900474 564.840000
   9781   9803   9787     1   112.4800480 524.673600
   9782   9785   9786     1   111.5100476 526.347200
   9782   9785   9793     1   110.1900474 564.840000
   9782   9781   9795     1   111.5100476 526.347200
   9782   9781   9803     1   107.9700462 569.024000
   9785   9786   9787     1   111.5100476 526.347200
   9785   9786   9792     1   110.1900474 564.840000
   9785   9782   9794     1   110.1900474 564.840000
   9786   9787   9791     1   107.9700462 569.024000
   9786   9787   9803     1   107.9700462 569.024000
   9786   9785   9793     1   110.1900474 564.840000
   9787   9786   9792     1   110.1900474 564.840000
   9791   9787   9803     1   108.2900466 608.353600
   9795   9781   9803     1   107.9700462 569.024000
   9804   9805   9808     1   111.5100476 526.347200
   9804   9805   9817     1   110.1900474 564.840000
   9804   9818   9824     1   110.1900474 564.840000
   9804   9826   9810     1   112.4800480 524.673600
   9805   9804   9818     1   111.5100476 526.347200
   9805   9804   9826     1   107.9700462 569.024000
   9805   9808   9809     1   111.5100476 526.347200
   9805   9808   9816     1   110.1900474 564.840000
   9808   9805   9817     1   110.1900474 564.840000
   9808   9809   9810     1   111.5100476 526.347200
   9808   9809   9815     1   110.1900474 564.840000
   9809   9808   9816     1   110.1900474 564.840000
   9809   9810   9814     1   107.9700462 569.024000
   9809   9810   9826     1   107.9700462 569.024000
   9810   9809   9815     1   110.1900474 564.840000
   9814   9810   9826     1   108.2900466 608.353600
   9818   9804   9826     1   107.9700462 569.024000
   9827   9828   9831     1   111.5100476 526.347200
   9827   9828   9840     1   110.1900474 564.840000
   9827   9841   9847     1   110.1900474 564.840000
   9827   9849   9833     1   112.4800480 524.673600
   9828   9831   9832     1   111.5100476 526.347200
   9828   9831   9839     1   110.1900474 564.840000
   9828   9827   9841     1   111.5100476 526.347200
   9828   9827   9849     1   107.9700462 569.024000
   9831   9832   9833     1   111.5100476 526.347200
   9831   9832   9838     1   110.1900474 564.840000
   9831   9828   9840     1   110.1900474 564.840000
   9832   9833   9837     1   107.9700462 569.024000
   9832   9833   9849     1   107.9700462 569.024000
   9832   9831   9839     1   110.1900474 564.840000
   9833   9832   9838     1   110.1900474 564.840000
   9837   9833   9849     1   108.2900466 608.353600
   9841   9827   9849     1   107.9700462 569.024000
   9850   9851   9854     1   111.5100476 526.347200
   9850   9851   9863     1   110.1900474 564.840000
   9850   9864   9870     1   110.1900474 564.840000
   9850   9872   9856     1   112.4800480 524.673600
   9851   9850   9864     1   111.5100476 526.347200
   9851   9850   9872     1   107.9700462 569.024000
   9851   9854   9855     1   111.5100476 526.347200
   9851   9854   9862     1   110.1900474 564.840000
   9854   9851   9863     1   110.1900474 564.840000
   9854   9855   9856     1   111.5100476 526.347200
   9854   9855   9861     1   110.1900474 564.840000
   9855   9854   9862     1   110.1900474 564.840000
   9855   9856   9860     1   107.9700462 569.024000
   9855   9856   9872     1   107.9700462 569.024000
   9856   9855   9861     1   110.1900474 564.840000
   9860   9856   9872     1   108.2900466 608.353600
   9864   9850   9872     1   107.9700462 569.024000
   9873   9874   9877     1   111.5100476 526.347200
   9873   9874   9886     1   110.1900474 564.840000
   9873   9887   9893     1   110.1900474 564.840000
   9873   9895   9879     1   112.4800480 524.673600
   9874   9877   9878     1   111.5100476 526.347200
   9874   9877   9885     1   110.1900474 564.840000
   9874   9873   9887     1   111.5100476 526.347200
   9874   9873   9895     1   107.9700462 569.024000
   9877   9878   9879     1   111.5100476 526.347200
   9877   9878   9884     1   110.1900474 564.840000
   9877   9874   9886     1   110.1900474 564.840000
   9878   9879   9883     1   107.9700462 569.024000
   9878   9879   9895     1   107.9700462 569.024000
   9878   9877   9885     1   110.1900474 564.840000
   9879   9878   9884     1   110.1900474 564.840000
   9883   9879   9895     1   108.2900466 608.353600
   9887   9873   9895     1   107.9700462 569.024000
   9896   9897   9900     1   111.5100476 526.347200
   9896   9897   9909     1   110.1900474 564.840000
   9896   9910   9916     1   110.1900474 564.840000
   9896   9918   9902     1   112.4800480 524.673600
   9897   9896   9910     1   111.5100476 526.347200
   9897   9896   9918     1   107.9700462 569.024000
   9897   9900   9901     1   111.5100476 526.347200
   9897   9900   9908     1   110.1900474 564.840000
   9900   9897   9909     1   110.1900474 564.840000
   9900   9901   9902     1   111.5100476 526.347200
   9900   9901   9907     1   110.1900474 564.840000
   9901   9900   9908     1   110.1900474 564.840000
   9901   9902   9906     1   107.9700462 569.024000
   9901   9902   9918     1   107.9700462 569.024000
   9902   9901   9907     1   110.1900474 564.840000
   9906   9902   9918     1   108.2900466 608.353600
   9910   9896   9918     1   107.9700462 569.024000
   9919   9920   9923     1   111.5100476 526.347200
   9919   9920   9932     1   110.1900474 564.840000
   9919   9933   9939     1   110.1900474 564.840000
   9919   9941   9925     1   112.4800480 524.673600
   9920   9923   9924     1   111.5100476 526.347200
   9920   9923   9931     1   110.1900474 564.840000
   9920   9919   9933     1   111.5100476 526.347200
   9920   9919   9941     1   107.9700462 569.024000
   9923   9924   9925     1   111.5100476 526.347200
   9923   9924   9930     1   110.1900474 564.840000
   9923   9920   9932     1   110.1900474 564.840000
   9924   9925   9929     1   107.9700462 569.024000
   9924   9925   9941     1   107.9700462 569.024000
   9924   9923   9931     1   110.1900474 564.840000
   9925   9924   9930     1   110.1900474 564.840000
   9929   9925   9941     1   108.2900466 608.353600
   9933   9919   9941     1   107.9700462 569.024000
   9942   9943   9946     1   111.5100476 526.347200
   9942   9943   9955     1   110.1900474 564.840000
   9942   9956   9962     1   110.1900474 564.840000
   9942   9964   9948     1   112.4800480 524.673600
   9943   9942   9956     1   111.5100476 526.347200
   9943   9942   9964     1   107.9700462 569.024000
   9943   9946   9947     1   111.5100476 526.347200
   9943   9946   9954     1   110.1900474 564.840000
   9946   9943   9955     1   110.1900474 564.840000
   9946   9947   9948     1   111.5100476 526.347200
   9946   9947   9953     1   110.1900474 564.840000
   9947   9946   9954     1   110.1900474 564.840000
   9947   9948   9952     1   107.9700462 569.024000
   9947   9948   9964     1   107.9700462 569.024000
   9948   9947   9953     1   110.1900474 564.840000
   9952   9948   9964     1   108.2900466 608.353600
   9956   9942   9964     1   107.9700462 569.024000
   9965   9966   9969     1   111.5100476 526.347200
   9965   9966   9978     1   110.1900474 564.840000
   9965   9979   9985     1   110.1900474 564.840000
   9965   9987   9971     1   112.4800480 524.673600
   9966   9969   9970     1   111.5100476 526.347200
   9966   9969   9977     1   110.1900474 564.840000
   9966   9965   9979     1   111.5100476 526.347200
   9966   9965   9987     1   107.9700462 569.024000
   9969   9970   9971     1   111.5100476 526.347200
   9969   9970   9976     1   110.1900474 564.840000
   9969   9966   9978     1   110.1900474 564.840000
   9970   9971   9975     1   107.9700462 569.024000
   9970   9971   9987     1   107.9700462 569.024000
   9970   9969   9977     1   110.1900474 564.840000
   9971   9970   9976     1   110.1900474 564.840000
   9975   9971   9987     1   108.2900466 608.353600
   9979   9965   9987     1   107.9700462 569.024000
   9988   9989   9992     1   111.5100476 526.347200
   9988   9989  10001     1   110.1900474 564.840000
   9988  10002  10008     1   110.1900474 564.840000
   9988  10010   9994     1   112.4800480 524.673600
   9989   9988  10002     1   111.5100476 526.347200
   9989   9988  10010     1   107.9700462 569.024000
   9989   9992   9993     1   111.5100476 526.347200
   9989   9992  10000     1   110.1900474 564.840000
   9992   9989  10001     1   110.1900474 564.840000
   9992   9993   9994     1   111.5100476 526.347200
   9992   9993   9999     1   110.1900474 564.840000
   9993   9992  10000     1   110.1900474 564.840000
   9993   9994   9998     1   107.9700462 569.024000
   9993   9994  10010     1   107.9700462 569.024000
   9994   9993   9999     1   110.1900474 564.840000
   9998   9994  10010     1   108.2900466 608.353600
  10002   9988  10010     1   107.9700462 569.024000
  10011  10012  10015     1   111.5100476 526.347200
  10011  10012  10024     1   110.1900474 564.840000
  10011  10025  10031     1   110.1900474 564.840000
  10011  10033  10017     1   112.4800480 524.673600
  10012  10015  10016     1   111.5100476 526.347200
  10012  10015  10023     1   110.1900474 564.840000
  10012  10011  10025     1   111.5100476 526.347200
  10012  10011  10033     1   107.9700462 569.024000
  10015  10016  10017     1   111.5100476 526.347200
  10015  10016  10022     1   110.1900474 564.840000
  10015  10012  10024     1   110.1900474 564.840000
  10016  10017  10021     1   107.9700462 569.024000
  10016  10017  10033     1   107.9700462 569.024000
  10016  10015  10023     1   110.1900474 564.840000
  10017  10016  10022     1   110.1900474 564.840000
  10021  10017  10033     1   108.2900466 608.353600
  10025  10011  10033     1   107.9700462 569.024000
  10034  10035  10038     1   111.5100476 526.347200
  10034  10035  10047     1   110.1900474 564.840000
  10034  10048  10054     1   110.1900474 564.840000
  10034  10056  10040     1   112.4800480 524.673600
  10035  10034  10048     1   111.5100476 526.347200
  10035  10034  10056     1   107.9700462 569.024000
  10035  10038  10039     1   111.5100476 526.347200
  10035  10038  10046     1   110.1900474 564.840000
  10038  10035  10047     1   110.1900474 564.840000
  10038  10039  10040     1   111.5100476 526.347200
  10038  10039  10045     1   110.1900474 564.840000
  10039  10038  10046     1   110.1900474 564.840000
  10039  10040  10044     1   107.9700462 569.024000
  10039  10040  10056     1   107.9700462 569.024000
  10040  10039  10045     1   110.1900474 564.840000
  10044  10040  10056     1   108.2900466 608.353600
  10048  10034  10056     1   107.9700462 569.024000
  10057  10058  10061     1   111.5100476 526.347200
  10057  10058  10070     1   110.1900474 564.840000
  10057  10071  10077     1   110.1900474 564.840000
  10057  10079  10063     1   112.4800480 524.673600
  10058  10061  10062     1   111.5100476 526.347200
  10058  10061  10069     1   110.1900474 564.840000
  10058  10057  10071     1   111.5100476 526.347200
  10058  10057  10079     1   107.9700462 569.024000
  10061  10062  10063     1   111.5100476 526.347200
  10061  10062  10068     1   110.1900474 564.840000
  10061  10058  10070     1   110.1900474 564.840000
  10062  10063  10067     1   107.9700462 569.024000
  10062  10063  10079     1   107.9700462 569.024000
  10062  10061  10069     1   110.1900474 564.840000
  10063  10062  10068     1   110.1900474 564.840000
  10067  10063  10079     1   108.2900466 608.353600
  10071  10057  10079     1   107.9700462 569.024000
  10080  10081  10084     1   111.5100476 526.347200
  10080  10081  10093     1   110.1900474 564.840000
  10080  10094  10100     1   110.1900474 564.840000
  10080  10102  10086     1   112.4800480 524.673600
  10081  10080  10094     1   111.5100476 526.347200
  10081  10080  10102     1   107.9700462 569.024000
  10081  10084  10085     1   111.5100476 526.347200
  10081  10084  10092     1   110.1900474 564.840000
  10084  10081  10093     1   110.1900474 564.840000
  10084  10085  10086     1   111.5100476 526.347200
  10084  10085  10091     1   110.1900474 564.840000
  10085  10084  10092     1   110.1900474 564.840000
  10085  10086  10090     1   107.9700462 569.024000
  10085  10086  10102     1   107.9700462 569.024000
  10086  10085  10091     1   110.1900474 564.840000
  10090  10086  10102     1   108.2900466 608.353600
  10094  10080  10102     1   107.9700462 569.024000
  10103  10104  10107     1   111.5100476 526.347200
  10103  10104  10116     1   110.1900474 564.840000
  10103  10117  10123     1   110.1900474 564.840000
  10103  10125  10109     1   112.4800480 524.673600
  10104  10107  10108     1   111.5100476 526.347200
  10104  10107  10115     1   110.1900474 564.840000
  10104  10103  10117     1   111.5100476 526.347200
  10104  10103  10125     1   107.9700462 569.024000
  10107  10108  10109     1   111.5100476 526.347200
  10107  10108  10114     1   110.1900474 564.840000
  10107  10104  10116     1   110.1900474 564.840000
  10108  10109  10113     1   107.9700462 569.024000
  10108  10109  10125     1   107.9700462 569.024000
  10108  10107  10115     1   110.1900474 564.840000
  10109  10108  10114     1   110.1900474 564.840000
  10113  10109  10125     1   108.2900466 608.353600
  10117  10103  10125     1   107.9700462 569.024000
  10126  10127  10130     1   111.5100476 526.347200
  10126  10127  10139     1   110.1900474 564.840000
  10126  10140  10146     1   110.1900474 564.840000
  10126  10148  10132     1   112.4800480 524.673600
  10127  10126  10140     1   111.5100476 526.347200
  10127  10126  10148     1   107.9700462 569.024000
  10127  10130  10131     1   111.5100476 526.347200
  10127  10130  10138     1   110.1900474 564.840000
  10130  10127  10139     1   110.1900474 564.840000
  10130  10131  10132     1   111.5100476 526.347200
  10130  10131  10137     1   110.1900474 564.840000
  10131  10130  10138     1   110.1900474 564.840000
  10131  10132  10136     1   107.9700462 569.024000
  10131  10132  10148     1   107.9700462 569.024000
  10132  10131  10137     1   110.1900474 564.840000
  10136  10132  10148     1   108.2900466 608.353600
  10140  10126  10148     1   107.9700462 569.024000
  10149  10150  10153     1   111.5100476 526.347200
  10149  10150  10162     1   110.1900474 564.840000
  10149  10163  10169     1   110.1900474 564.840000
  10149  10171  10155     1   112.4800480 524.673600
  10150  10153  10154     1   111.5100476 526.347200
  10150  10153  10161     1   110.1900474 564.840000
  10150  10149  10163     1   111.5100476 526.347200
  10150  10149  10171     1   107.9700462 569.024000
  10153  10154  10155     1   111.5100476 526.347200
  10153  10154  10160     1   110.1900474 564.840000
  10153  10150  10162     1   110.1900474 564.840000
  10154  10155  10159     1   107.9700462 569.024000
  10154  10155  10171     1   107.9700462 569.024000
  10154  10153  10161     1   110.1900474 564.840000
  10155  10154  10160     1   110.1900474 564.840000
  10159  10155  10171     1   108.2900466 608.353600
  10163  10149  10171     1   107.9700462 569.024000
  10172  10173  10176     1   111.5100476 526.347200
  10172  10173  10185     1   110.1900474 564.840000
  10172  10186  10192     1   110.1900474 564.840000
  10172  10194  10178     1   112.4800480 524.673600
  10173  10172  10186     1   111.5100476 526.347200
  10173  10172  10194     1   107.9700462 569.024000
  10173  10176  10177     1   111.5100476 526.347200
  10173  10176  10184     1   110.1900474 564.840000
  10176  10173  10185     1   110.1900474 564.840000
  10176  10177  10178     1   111.5100476 526.347200
  10176  10177  10183     1   110.1900474 564.840000
  10177  10176  10184     1   110.1900474 564.840000
  10177  10178  10182     1   107.9700462 569.024000
  10177  10178  10194     1   107.9700462 569.024000
  10178  10177  10183     1   110.1900474 564.840000
  10182  10178  10194     1   108.2900466 608.353600
  10186  10172  10194     1   107.9700462 569.024000
  10195  10196  10199     1   111.5100476 526.347200
  10195  10196  10208     1   110.1900474 564.840000
  10195  10209  10215     1   110.1900474 564.840000
  10195  10217  10201     1   112.4800480 524.673600
  10196  10199  10200     1   111.5100476 526.347200
  10196  10199  10207     1   110.1900474 564.840000
  10196  10195  10209     1   111.5100476 526.347200
  10196  10195  10217     1   107.9700462 569.024000
  10199  10200  10201     1   111.5100476 526.347200
  10199  10200  10206     1   110.1900474 564.840000
  10199  10196  10208     1   110.1900474 564.840000
  10200  10201  10205     1   107.9700462 569.024000
  10200  10201  10217     1   107.9700462 569.024000
  10200  10199  10207     1   110.1900474 564.840000
  10201  10200  10206     1   110.1900474 564.840000
  10205  10201  10217     1   108.2900466 608.353600
  10209  10195  10217     1   107.9700462 569.024000
  10218  10219  10222     1   111.5100476 526.347200
  10218  10219  10231     1   110.1900474 564.840000
  10218  10232  10238     1   110.1900474 564.840000
  10218  10240  10224     1   112.4800480 524.673600
  10219  10218  10232     1   111.5100476 526.347200
  10219  10218  10240     1   107.9700462 569.024000
  10219  10222  10223     1   111.5100476 526.347200
  10219  10222  10230     1   110.1900474 564.840000
  10222  10219  10231     1   110.1900474 564.840000
  10222  10223  10224     1   111.5100476 526.347200
  10222  10223  10229     1   110.1900474 564.840000
  10223  10222  10230     1   110.1900474 564.840000
  10223  10224  10228     1   107.9700462 569.024000
  10223  10224  10240     1   107.9700462 569.024000
  10224  10223  10229     1   110.1900474 564.840000
  10228  10224  10240     1   108.2900466 608.353600
  10232  10218  10240     1   107.9700462 569.024000
  10241  10242  10245     1   111.5100476 526.347200
  10241  10242  10254     1   110.1900474 564.840000
  10241  10255  10261     1   110.1900474 564.840000
  10241  10263  10247     1   112.4800480 524.673600
  10242  10245  10246     1   111.5100476 526.347200
  10242  10245  10253     1   110.1900474 564.840000
  10242  10241  10255     1   111.5100476 526.347200
  10242  10241  10263     1   107.9700462 569.024000
  10245  10246  10247     1   111.5100476 526.347200
  10245  10246  10252     1   110.1900474 564.840000
  10245  10242  10254     1   110.1900474 564.840000
  10246  10247  10251     1   107.9700462 569.024000
  10246  10247  10263     1   107.9700462 569.024000
  10246  10245  10253     1   110.1900474 564.840000
  10247  10246  10252     1   110.1900474 564.840000
  10251  10247  10263     1   108.2900466 608.353600
  10255  10241  10263     1   107.9700462 569.024000
  10264  10265  10268     1   111.5100476 526.347200
  10264  10265  10277     1   110.1900474 564.840000
  10264  10278  10284     1   110.1900474 564.840000
  10264  10286  10270     1   112.4800480 524.673600
  10265  10264  10278     1   111.5100476 526.347200
  10265  10264  10286     1   107.9700462 569.024000
  10265  10268  10269     1   111.5100476 526.347200
  10265  10268  10276     1   110.1900474 564.840000
  10268  10265  10277     1   110.1900474 564.840000
  10268  10269  10270     1   111.5100476 526.347200
  10268  10269  10275     1   110.1900474 564.840000
  10269  10268  10276     1   110.1900474 564.840000
  10269  10270  10274     1   107.9700462 569.024000
  10269  10270  10286     1   107.9700462 569.024000
  10270  10269  10275     1   110.1900474 564.840000
  10274  10270  10286     1   108.2900466 608.353600
  10278  10264  10286     1   107.9700462 569.024000
  10287  10288  10291     1   111.5100476 526.347200
  10287  10288  10300     1   110.1900474 564.840000
  10287  10301  10307     1   110.1900474 564.840000
  10287  10309  10293     1   112.4800480 524.673600
  10288  10291  10292     1   111.5100476 526.347200
  10288  10291  10299     1   110.1900474 564.840000
  10288  10287  10301     1   111.5100476 526.347200
  10288  10287  10309     1   107.9700462 569.024000
  10291  10292  10293     1   111.5100476 526.347200
  10291  10292  10298     1   110.1900474 564.840000
  10291  10288  10300     1   110.1900474 564.840000
  10292  10293  10297     1   107.9700462 569.024000
  10292  10293  10309     1   107.9700462 569.024000
  10292  10291  10299     1   110.1900474 564.840000
  10293  10292  10298     1   110.1900474 564.840000
  10297  10293  10309     1   108.2900466 608.353600
  10301  10287  10309     1   107.9700462 569.024000
  10310  10311  10314     1   111.5100476 526.347200
  10310  10311  10323     1   110.1900474 564.840000
  10310  10324  10330     1   110.1900474 564.840000
  10310  10332  10316     1   112.4800480 524.673600
  10311  10310  10324     1   111.5100476 526.347200
  10311  10310  10332     1   107.9700462 569.024000
  10311  10314  10315     1   111.5100476 526.347200
  10311  10314  10322     1   110.1900474 564.840000
  10314  10311  10323     1   110.1900474 564.840000
  10314  10315  10316     1   111.5100476 526.347200
  10314  10315  10321     1   110.1900474 564.840000
  10315  10314  10322     1   110.1900474 564.840000
  10315  10316  10320     1   107.9700462 569.024000
  10315  10316  10332     1   107.9700462 569.024000
  10316  10315  10321     1   110.1900474 564.840000
  10320  10316  10332     1   108.2900466 608.353600
  10324  10310  10332     1   107.9700462 569.024000
  10333  10334  10337     1   111.5100476 526.347200
  10333  10334  10346     1   110.1900474 564.840000
  10333  10347  10353     1   110.1900474 564.840000
  10333  10355  10339     1   112.4800480 524.673600
  10334  10337  10338     1   111.5100476 526.347200
  10334  10337  10345     1   110.1900474 564.840000
  10334  10333  10347     1   111.5100476 526.347200
  10334  10333  10355     1   107.9700462 569.024000
  10337  10338  10339     1   111.5100476 526.347200
  10337  10338  10344     1   110.1900474 564.840000
  10337  10334  10346     1   110.1900474 564.840000
  10338  10339  10343     1   107.9700462 569.024000
  10338  10339  10355     1   107.9700462 569.024000
  10338  10337  10345     1   110.1900474 564.840000
  10339  10338  10344     1   110.1900474 564.840000
  10343  10339  10355     1   108.2900466 608.353600
  10347  10333  10355     1   107.9700462 569.024000
  10356  10357  10360     1   111.5100476 526.347200
  10356  10357  10369     1   110.1900474 564.840000
  10356  10370  10376     1   110.1900474 564.840000
  10356  10378  10362     1   112.4800480 524.673600
  10357  10356  10370     1   111.5100476 526.347200
  10357  10356  10378     1   107.9700462 569.024000
  10357  10360  10361     1   111.5100476 526.347200
  10357  10360  10368     1   110.1900474 564.840000
  10360  10357  10369     1   110.1900474 564.840000
  10360  10361  10362     1   111.5100476 526.347200
  10360  10361  10367     1   110.1900474 564.840000
  10361  10360  10368     1   110.1900474 564.840000
  10361  10362  10366     1   107.9700462 569.024000
  10361  10362  10378     1   107.9700462 569.024000
  10362  10361  10367     1   110.1900474 564.840000
  10366  10362  10378     1   108.2900466 608.353600
  10370  10356  10378     1   107.9700462 569.024000
  10379  10380  10383     1   111.5100476 526.347200
  10379  10380  10392     1   110.1900474 564.840000
  10379  10393  10399     1   110.1900474 564.840000
  10379  10401  10385     1   112.4800480 524.673600
  10380  10383  10384     1   111.5100476 526.347200
  10380  10383  10391     1   110.1900474 564.840000
  10380  10379  10393     1   111.5100476 526.347200
  10380  10379  10401     1   107.9700462 569.024000
  10383  10384  10385     1   111.5100476 526.347200
  10383  10384  10390     1   110.1900474 564.840000
  10383  10380  10392     1   110.1900474 564.840000
  10384  10385  10389     1   107.9700462 569.024000
  10384  10385  10401     1   107.9700462 569.024000
  10384  10383  10391     1   110.1900474 564.840000
  10385  10384  10390     1   110.1900474 564.840000
  10389  10385  10401     1   108.2900466 608.353600
  10393  10379  10401     1   107.9700462 569.024000
  10402  10403  10406     1   111.5100476 526.347200
  10402  10403  10415     1   110.1900474 564.840000
  10402  10416  10422     1   110.1900474 564.840000
  10402  10424  10408     1   112.4800480 524.673600
  10403  10402  10416     1   111.5100476 526.347200
  10403  10402  10424     1   107.9700462 569.024000
  10403  10406  10407     1   111.5100476 526.347200
  10403  10406  10414     1   110.1900474 564.840000
  10406  10403  10415     1   110.1900474 564.840000
  10406  10407  10408     1   111.5100476 526.347200
  10406  10407  10413     1   110.1900474 564.840000
  10407  10406  10414     1   110.1900474 564.840000
  10407  10408  10412     1   107.9700462 569.024000
  10407  10408  10424     1   107.9700462 569.024000
  10408  10407  10413     1   110.1900474 564.840000
  10412  10408  10424     1   108.2900466 608.353600
  10416  10402  10424     1   107.9700462 569.024000
  10425  10426  10429     1   111.5100476 526.347200
  10425  10426  10438     1   110.1900474 564.840000
  10425  10439  10445     1   110.1900474 564.840000
  10425  10447  10431     1   112.4800480 524.673600
  10426  10429  10430     1   111.5100476 526.347200
  10426  10429  10437     1   110.1900474 564.840000
  10426  10425  10439     1   111.5100476 526.347200
  10426  10425  10447     1   107.9700462 569.024000
  10429  10430  10431     1   111.5100476 526.347200
  10429  10430  10436     1   110.1900474 564.840000
  10429  10426  10438     1   110.1900474 564.840000
  10430  10431  10435     1   107.9700462 569.024000
  10430  10431  10447     1   107.9700462 569.024000
  10430  10429  10437     1   110.1900474 564.840000
  10431  10430  10436     1   110.1900474 564.840000
  10435  10431  10447     1   108.2900466 608.353600
  10439  10425  10447     1   107.9700462 569.024000
  10448  10449  10452     1   111.5100476 526.347200
  10448  10449  10461     1   110.1900474 564.840000
  10448  10462  10468     1   110.1900474 564.840000
  10448  10470  10454     1   112.4800480 524.673600
  10449  10448  10462     1   111.5100476 526.347200
  10449  10448  10470     1   107.9700462 569.024000
  10449  10452  10453     1   111.5100476 526.347200
  10449  10452  10460     1   110.1900474 564.840000
  10452  10449  10461     1   110.1900474 564.840000
  10452  10453  10454     1   111.5100476 526.347200
  10452  10453  10459     1   110.1900474 564.840000
  10453  10452  10460     1   110.1900474 564.840000
  10453  10454  10458     1   107.9700462 569.024000
  10453  10454  10470     1   107.9700462 569.024000
  10454  10453  10459     1   110.1900474 564.840000
  10458  10454  10470     1   108.2900466 608.353600
  10462  10448  10470     1   107.9700462 569.024000
  10471  10472  10475     1   111.5100476 526.347200
  10471  10472  10484     1   110.1900474 564.840000
  10471  10485  10491     1   110.1900474 564.840000
  10471  10493  10477     1   112.4800480 524.673600
  10472  10475  10476     1   111.5100476 526.347200
  10472  10475  10483     1   110.1900474 564.840000
  10472  10471  10485     1   111.5100476 526.347200
  10472  10471  10493     1   107.9700462 569.024000
  10475  10476  10477     1   111.5100476 526.347200
  10475  10476  10482     1   110.1900474 564.840000
  10475  10472  10484     1   110.1900474 564.840000
  10476  10477  10481     1   107.9700462 569.024000
  10476  10477  10493     1   107.9700462 569.024000
  10476  10475  10483     1   110.1900474 564.840000
  10477  10476  10482     1   110.1900474 564.840000
  10481  10477  10493     1   108.2900466 608.353600
  10485  10471  10493     1   107.9700462 569.024000
  10494  10495  10498     1   111.5100476 526.347200
  10494  10495  10507     1   110.1900474 564.840000
  10494  10508  10514     1   110.1900474 564.840000
  10494  10516  10500     1   112.4800480 524.673600
  10495  10494  10508     1   111.5100476 526.347200
  10495  10494  10516     1   107.9700462 569.024000
  10495  10498  10499     1   111.5100476 526.347200
  10495  10498  10506     1   110.1900474 564.840000
  10498  10495  10507     1   110.1900474 564.840000
  10498  10499  10500     1   111.5100476 526.347200
  10498  10499  10505     1   110.1900474 564.840000
  10499  10498  10506     1   110.1900474 564.840000
  10499  10500  10504     1   107.9700462 569.024000
  10499  10500  10516     1   107.9700462 569.024000
  10500  10499  10505     1   110.1900474 564.840000
  10504  10500  10516     1   108.2900466 608.353600
  10508  10494  10516     1   107.9700462 569.024000
  10517  10518  10521     1   111.5100476 526.347200
  10517  10518  10530     1   110.1900474 564.840000
  10517  10531  10537     1   110.1900474 564.840000
  10517  10539  10523     1   112.4800480 524.673600
  10518  10521  10522     1   111.5100476 526.347200
  10518  10521  10529     1   110.1900474 564.840000
  10518  10517  10531     1   111.5100476 526.347200
  10518  10517  10539     1   107.9700462 569.024000
  10521  10522  10523     1   111.5100476 526.347200
  10521  10522  10528     1   110.1900474 564.840000
  10521  10518  10530     1   110.1900474 564.840000
  10522  10523  10527     1   107.9700462 569.024000
  10522  10523  10539     1   107.9700462 569.024000
  10522  10521  10529     1   110.1900474 564.840000
  10523  10522  10528     1   110.1900474 564.840000
  10527  10523  10539     1   108.2900466 608.353600
  10531  10517  10539     1   107.9700462 569.024000
  10540  10541  10544     1   111.5100476 526.347200
  10540  10541  10553     1   110.1900474 564.840000
  10540  10554  10560     1   110.1900474 564.840000
  10540  10562  10546     1   112.4800480 524.673600
  10541  10540  10554     1   111.5100476 526.347200
  10541  10540  10562     1   107.9700462 569.024000
  10541  10544  10545     1   111.5100476 526.347200
  10541  10544  10552     1   110.1900474 564.840000
  10544  10541  10553     1   110.1900474 564.840000
  10544  10545  10546     1   111.5100476 526.347200
  10544  10545  10551     1   110.1900474 564.840000
  10545  10544  10552     1   110.1900474 564.840000
  10545  10546  10550     1   107.9700462 569.024000
  10545  10546  10562     1   107.9700462 569.024000
  10546  10545  10551     1   110.1900474 564.840000
  10550  10546  10562     1   108.2900466 608.353600
  10554  10540  10562     1   107.9700462 569.024000
  10563  10564  10567     1   111.5100476 526.347200
  10563  10564  10576     1   110.1900474 564.840000
  10563  10577  10583     1   110.1900474 564.840000
  10563  10585  10569     1   112.4800480 524.673600
  10564  10567  10568     1   111.5100476 526.347200
  10564  10567  10575     1   110.1900474 564.840000
  10564  10563  10577     1   111.5100476 526.347200
  10564  10563  10585     1   107.9700462 569.024000
  10567  10568  10569     1   111.5100476 526.347200
  10567  10568  10574     1   110.1900474 564.840000
  10567  10564  10576     1   110.1900474 564.840000
  10568  10569  10573     1   107.9700462 569.024000
  10568  10569  10585     1   107.9700462 569.024000
  10568  10567  10575     1   110.1900474 564.840000
  10569  10568  10574     1   110.1900474 564.840000
  10573  10569  10585     1   108.2900466 608.353600
  10577  10563  10585     1   107.9700462 569.024000
  10586  10587  10590     1   111.5100476 526.347200
  10586  10587  10599     1   110.1900474 564.840000
  10586  10600  10606     1   110.1900474 564.840000
  10586  10608  10592     1   112.4800480 524.673600
  10587  10586  10600     1   111.5100476 526.347200
  10587  10586  10608     1   107.9700462 569.024000
  10587  10590  10591     1   111.5100476 526.347200
  10587  10590  10598     1   110.1900474 564.840000
  10590  10587  10599     1   110.1900474 564.840000
  10590  10591  10592     1   111.5100476 526.347200
  10590  10591  10597     1   110.1900474 564.840000
  10591  10590  10598     1   110.1900474 564.840000
  10591  10592  10596     1   107.9700462 569.024000
  10591  10592  10608     1   107.9700462 569.024000
  10592  10591  10597     1   110.1900474 564.840000
  10596  10592  10608     1   108.2900466 608.353600
  10600  10586  10608     1   107.9700462 569.024000
  10609  10610  10613     1   111.5100476 526.347200
  10609  10610  10622     1   110.1900474 564.840000
  10609  10623  10629     1   110.1900474 564.840000
  10609  10631  10615     1   112.4800480 524.673600
  10610  10613  10614     1   111.5100476 526.347200
  10610  10613  10621     1   110.1900474 564.840000
  10610  10609  10623     1   111.5100476 526.347200
  10610  10609  10631     1   107.9700462 569.024000
  10613  10614  10615     1   111.5100476 526.347200
  10613  10614  10620     1   110.1900474 564.840000
  10613  10610  10622     1   110.1900474 564.840000
  10614  10615  10619     1   107.9700462 569.024000
  10614  10615  10631     1   107.9700462 569.024000
  10614  10613  10621     1   110.1900474 564.840000
  10615  10614  10620     1   110.1900474 564.840000
  10619  10615  10631     1   108.2900466 608.353600
  10623  10609  10631     1   107.9700462 569.024000
  10632  10633  10636     1   111.5100476 526.347200
  10632  10633  10645     1   110.1900474 564.840000
  10632  10646  10652     1   110.1900474 564.840000
  10632  10654  10638     1   112.4800480 524.673600
  10633  10632  10646     1   111.5100476 526.347200
  10633  10632  10654     1   107.9700462 569.024000
  10633  10636  10637     1   111.5100476 526.347200
  10633  10636  10644     1   110.1900474 564.840000
  10636  10633  10645     1   110.1900474 564.840000
  10636  10637  10638     1   111.5100476 526.347200
  10636  10637  10643     1   110.1900474 564.840000
  10637  10636  10644     1   110.1900474 564.840000
  10637  10638  10642     1   107.9700462 569.024000
  10637  10638  10654     1   107.9700462 569.024000
  10638  10637  10643     1   110.1900474 564.840000
  10642  10638  10654     1   108.2900466 608.353600
  10646  10632  10654     1   107.9700462 569.024000
  10655  10656  10659     1   111.5100476 526.347200
  10655  10656  10668     1   110.1900474 564.840000
  10655  10669  10675     1   110.1900474 564.840000
  10655  10677  10661     1   112.4800480 524.673600
  10656  10659  10660     1   111.5100476 526.347200
  10656  10659  10667     1   110.1900474 564.840000
  10656  10655  10669     1   111.5100476 526.347200
  10656  10655  10677     1   107.9700462 569.024000
  10659  10660  10661     1   111.5100476 526.347200
  10659  10660  10666     1   110.1900474 564.840000
  10659  10656  10668     1   110.1900474 564.840000
  10660  10661  10665     1   107.9700462 569.024000
  10660  10661  10677     1   107.9700462 569.024000
  10660  10659  10667     1   110.1900474 564.840000
  10661  10660  10666     1   110.1900474 564.840000
  10665  10661  10677     1   108.2900466 608.353600
  10669  10655  10677     1   107.9700462 569.024000
  10678  10679  10682     1   111.5100476 526.347200
  10678  10679  10691     1   110.1900474 564.840000
  10678  10692  10698     1   110.1900474 564.840000
  10678  10700  10684     1   112.4800480 524.673600
  10679  10678  10692     1   111.5100476 526.347200
  10679  10678  10700     1   107.9700462 569.024000
  10679  10682  10683     1   111.5100476 526.347200
  10679  10682  10690     1   110.1900474 564.840000
  10682  10679  10691     1   110.1900474 564.840000
  10682  10683  10684     1   111.5100476 526.347200
  10682  10683  10689     1   110.1900474 564.840000
  10683  10682  10690     1   110.1900474 564.840000
  10683  10684  10688     1   107.9700462 569.024000
  10683  10684  10700     1   107.9700462 569.024000
  10684  10683  10689     1   110.1900474 564.840000
  10688  10684  10700     1   108.2900466 608.353600
  10692  10678  10700     1   107.9700462 569.024000
  10701  10702  10705     1   111.5100476 526.347200
  10701  10702  10714     1   110.1900474 564.840000
  10701  10715  10721     1   110.1900474 564.840000
  10701  10723  10707     1   112.4800480 524.673600
  10702  10705  10706     1   111.5100476 526.347200
  10702  10705  10713     1   110.1900474 564.840000
  10702  10701  10715     1   111.5100476 526.347200
  10702  10701  10723     1   107.9700462 569.024000
  10705  10706  10707     1   111.5100476 526.347200
  10705  10706  10712     1   110.1900474 564.840000
  10705  10702  10714     1   110.1900474 564.840000
  10706  10707  10711     1   107.9700462 569.024000
  10706  10707  10723     1   107.9700462 569.024000
  10706  10705  10713     1   110.1900474 564.840000
  10707  10706  10712     1   110.1900474 564.840000
  10711  10707  10723     1   108.2900466 608.353600
  10715  10701  10723     1   107.9700462 569.024000
  10724  10725  10728     1   111.5100476 526.347200
  10724  10725  10737     1   110.1900474 564.840000
  10724  10738  10744     1   110.1900474 564.840000
  10724  10746  10730     1   112.4800480 524.673600
  10725  10724  10738     1   111.5100476 526.347200
  10725  10724  10746     1   107.9700462 569.024000
  10725  10728  10729     1   111.5100476 526.347200
  10725  10728  10736     1   110.1900474 564.840000
  10728  10725  10737     1   110.1900474 564.840000
  10728  10729  10730     1   111.5100476 526.347200
  10728  10729  10735     1   110.1900474 564.840000
  10729  10728  10736     1   110.1900474 564.840000
  10729  10730  10734     1   107.9700462 569.024000
  10729  10730  10746     1   107.9700462 569.024000
  10730  10729  10735     1   110.1900474 564.840000
  10734  10730  10746     1   108.2900466 608.353600
  10738  10724  10746     1   107.9700462 569.024000
  10747  10748  10751     1   111.5100476 526.347200
  10747  10748  10760     1   110.1900474 564.840000
  10747  10761  10767     1   110.1900474 564.840000
  10747  10769  10753     1   112.4800480 524.673600
  10748  10751  10752     1   111.5100476 526.347200
  10748  10751  10759     1   110.1900474 564.840000
  10748  10747  10761     1   111.5100476 526.347200
  10748  10747  10769     1   107.9700462 569.024000
  10751  10752  10753     1   111.5100476 526.347200
  10751  10752  10758     1   110.1900474 564.840000
  10751  10748  10760     1   110.1900474 564.840000
  10752  10753  10757     1   107.9700462 569.024000
  10752  10753  10769     1   107.9700462 569.024000
  10752  10751  10759     1   110.1900474 564.840000
  10753  10752  10758     1   110.1900474 564.840000
  10757  10753  10769     1   108.2900466 608.353600
  10761  10747  10769     1   107.9700462 569.024000
  10770  10771  10774     1   111.5100476 526.347200
  10770  10771  10783     1   110.1900474 564.840000
  10770  10784  10790     1   110.1900474 564.840000
  10770  10792  10776     1   112.4800480 524.673600
  10771  10770  10784     1   111.5100476 526.347200
  10771  10770  10792     1   107.9700462 569.024000
  10771  10774  10775     1   111.5100476 526.347200
  10771  10774  10782     1   110.1900474 564.840000
  10774  10771  10783     1   110.1900474 564.840000
  10774  10775  10776     1   111.5100476 526.347200
  10774  10775  10781     1   110.1900474 564.840000
  10775  10774  10782     1   110.1900474 564.840000
  10775  10776  10780     1   107.9700462 569.024000
  10775  10776  10792     1   107.9700462 569.024000
  10776  10775  10781     1   110.1900474 564.840000
  10780  10776  10792     1   108.2900466 608.353600
  10784  10770  10792     1   107.9700462 569.024000
  10793  10794  10797     1   111.5100476 526.347200
  10793  10794  10806     1   110.1900474 564.840000
  10793  10807  10813     1   110.1900474 564.840000
  10793  10815  10799     1   112.4800480 524.673600
  10794  10797  10798     1   111.5100476 526.347200
  10794  10797  10805     1   110.1900474 564.840000
  10794  10793  10807     1   111.5100476 526.347200
  10794  10793  10815     1   107.9700462 569.024000
  10797  10798  10799     1   111.5100476 526.347200
  10797  10798  10804     1   110.1900474 564.840000
  10797  10794  10806     1   110.1900474 564.840000
  10798  10799  10803     1   107.9700462 569.024000
  10798  10799  10815     1   107.9700462 569.024000
  10798  10797  10805     1   110.1900474 564.840000
  10799  10798  10804     1   110.1900474 564.840000
  10803  10799  10815     1   108.2900466 608.353600
  10807  10793  10815     1   107.9700462 569.024000
  10816  10817  10820     1   111.5100476 526.347200
  10816  10817  10829     1   110.1900474 564.840000
  10816  10830  10836     1   110.1900474 564.840000
  10816  10838  10822     1   112.4800480 524.673600
  10817  10816  10830     1   111.5100476 526.347200
  10817  10816  10838     1   107.9700462 569.024000
  10817  10820  10821     1   111.5100476 526.347200
  10817  10820  10828     1   110.1900474 564.840000
  10820  10817  10829     1   110.1900474 564.840000
  10820  10821  10822     1   111.5100476 526.347200
  10820  10821  10827     1   110.1900474 564.840000
  10821  10820  10828     1   110.1900474 564.840000
  10821  10822  10826     1   107.9700462 569.024000
  10821  10822  10838     1   107.9700462 569.024000
  10822  10821  10827     1   110.1900474 564.840000
  10826  10822  10838     1   108.2900466 608.353600
  10830  10816  10838     1   107.9700462 569.024000
  10839  10840  10843     1   111.5100476 526.347200
  10839  10840  10852     1   110.1900474 564.840000
  10839  10853  10859     1   110.1900474 564.840000
  10839  10861  10845     1   112.4800480 524.673600
  10840  10843  10844     1   111.5100476 526.347200
  10840  10843  10851     1   110.1900474 564.840000
  10840  10839  10853     1   111.5100476 526.347200
  10840  10839  10861     1   107.9700462 569.024000
  10843  10844  10845     1   111.5100476 526.347200
  10843  10844  10850     1   110.1900474 564.840000
  10843  10840  10852     1   110.1900474 564.840000
  10844  10845  10849     1   107.9700462 569.024000
  10844  10845  10861     1   107.9700462 569.024000
  10844  10843  10851     1   110.1900474 564.840000
  10845  10844  10850     1   110.1900474 564.840000
  10849  10845  10861     1   108.2900466 608.353600
  10853  10839  10861     1   107.9700462 569.024000
  10862  10863  10866     1   111.5100476 526.347200
  10862  10863  10875     1   110.1900474 564.840000
  10862  10876  10882     1   110.1900474 564.840000
  10862  10884  10868     1   112.4800480 524.673600
  10863  10862  10876     1   111.5100476 526.347200
  10863  10862  10884     1   107.9700462 569.024000
  10863  10866  10867     1   111.5100476 526.347200
  10863  10866  10874     1   110.1900474 564.840000
  10866  10863  10875     1   110.1900474 564.840000
  10866  10867  10868     1   111.5100476 526.347200
  10866  10867  10873     1   110.1900474 564.840000
  10867  10866  10874     1   110.1900474 564.840000
  10867  10868  10872     1   107.9700462 569.024000
  10867  10868  10884     1   107.9700462 569.024000
  10868  10867  10873     1   110.1900474 564.840000
  10872  10868  10884     1   108.2900466 608.353600
  10876  10862  10884     1   107.9700462 569.024000
  10885  10886  10889     1   111.5100476 526.347200
  10885  10886  10898     1   110.1900474 564.840000
  10885  10899  10905     1   110.1900474 564.840000
  10885  10907  10891     1   112.4800480 524.673600
  10886  10889  10890     1   111.5100476 526.347200
  10886  10889  10897     1   110.1900474 564.840000
  10886  10885  10899     1   111.5100476 526.347200
  10886  10885  10907     1   107.9700462 569.024000
  10889  10890  10891     1   111.5100476 526.347200
  10889  10890  10896     1   110.1900474 564.840000
  10889  10886  10898     1   110.1900474 564.840000
  10890  10891  10895     1   107.9700462 569.024000
  10890  10891  10907     1   107.9700462 569.024000
  10890  10889  10897     1   110.1900474 564.840000
  10891  10890  10896     1   110.1900474 564.840000
  10895  10891  10907     1   108.2900466 608.353600
  10899  10885  10907     1   107.9700462 569.024000
  10908  10909  10912     1   111.5100476 526.347200
  10908  10909  10921     1   110.1900474 564.840000
  10908  10922  10928     1   110.1900474 564.840000
  10908  10930  10914     1   112.4800480 524.673600
  10909  10908  10922     1   111.5100476 526.347200
  10909  10908  10930     1   107.9700462 569.024000
  10909  10912  10913     1   111.5100476 526.347200
  10909  10912  10920     1   110.1900474 564.840000
  10912  10909  10921     1   110.1900474 564.840000
  10912  10913  10914     1   111.5100476 526.347200
  10912  10913  10919     1   110.1900474 564.840000
  10913  10912  10920     1   110.1900474 564.840000
  10913  10914  10918     1   107.9700462 569.024000
  10913  10914  10930     1   107.9700462 569.024000
  10914  10913  10919     1   110.1900474 564.840000
  10918  10914  10930     1   108.2900466 608.353600
  10922  10908  10930     1   107.9700462 569.024000
  10931  10932  10935     1   111.5100476 526.347200
  10931  10932  10944     1   110.1900474 564.840000
  10931  10945  10951     1   110.1900474 564.840000
  10931  10953  10937     1   112.4800480 524.673600
  10932  10935  10936     1   111.5100476 526.347200
  10932  10935  10943     1   110.1900474 564.840000
  10932  10931  10945     1   111.5100476 526.347200
  10932  10931  10953     1   107.9700462 569.024000
  10935  10936  10937     1   111.5100476 526.347200
  10935  10936  10942     1   110.1900474 564.840000
  10935  10932  10944     1   110.1900474 564.840000
  10936  10937  10941     1   107.9700462 569.024000
  10936  10937  10953     1   107.9700462 569.024000
  10936  10935  10943     1   110.1900474 564.840000
  10937  10936  10942     1   110.1900474 564.840000
  10941  10937  10953     1   108.2900466 608.353600
  10945  10931  10953     1   107.9700462 569.024000
  10954  10955  10958     1   111.5100476 526.347200
  10954  10955  10967     1   110.1900474 564.840000
  10954  10968  10974     1   110.1900474 564.840000
  10954  10976  10960     1   112.4800480 524.673600
  10955  10954  10968     1   111.5100476 526.347200
  10955  10954  10976     1   107.9700462 569.024000
  10955  10958  10959     1   111.5100476 526.347200
  10955  10958  10966     1   110.1900474 564.840000
  10958  10955  10967     1   110.1900474 564.840000
  10958  10959  10960     1   111.5100476 526.347200
  10958  10959  10965     1   110.1900474 564.840000
  10959  10958  10966     1   110.1900474 564.840000
  10959  10960  10964     1   107.9700462 569.024000
  10959  10960  10976     1   107.9700462 569.024000
  10960  10959  10965     1   110.1900474 564.840000
  10964  10960  10976     1   108.2900466 608.353600
  10968  10954  10976     1   107.9700462 569.024000
  10977  10978  10981     1   111.5100476 526.347200
  10977  10978  10990     1   110.1900474 564.840000
  10977  10991  10997     1   110.1900474 564.840000
  10977  10999  10983     1   112.4800480 524.673600
  10978  10981  10982     1   111.5100476 526.347200
  10978  10981  10989     1   110.1900474 564.840000
  10978  10977  10991     1   111.5100476 526.347200
  10978  10977  10999     1   107.9700462 569.024000
  10981  10982  10983     1   111.5100476 526.347200
  10981  10982  10988     1   110.1900474 564.840000
  10981  10978  10990     1   110.1900474 564.840000
  10982  10983  10987     1   107.9700462 569.024000
  10982  10983  10999     1   107.9700462 569.024000
  10982  10981  10989     1   110.1900474 564.840000
  10983  10982  10988     1   110.1900474 564.840000
  10987  10983  10999     1   108.2900466 608.353600
  10991  10977  10999     1   107.9700462 569.024000
  11000  11001  11004     1   111.5100476 526.347200
  11000  11001  11013     1   110.1900474 564.840000
  11000  11014  11020     1   110.1900474 564.840000
  11000  11022  11006     1   112.4800480 524.673600
  11001  11000  11014     1   111.5100476 526.347200
  11001  11000  11022     1   107.9700462 569.024000
  11001  11004  11005     1   111.5100476 526.347200
  11001  11004  11012     1   110.1900474 564.840000
  11004  11001  11013     1   110.1900474 564.840000
  11004  11005  11006     1   111.5100476 526.347200
  11004  11005  11011     1   110.1900474 564.840000
  11005  11004  11012     1   110.1900474 564.840000
  11005  11006  11010     1   107.9700462 569.024000
  11005  11006  11022     1   107.9700462 569.024000
  11006  11005  11011     1   110.1900474 564.840000
  11010  11006  11022     1   108.2900466 608.353600
  11014  11000  11022     1   107.9700462 569.024000
  11023  11024  11027     1   111.5100476 526.347200
  11023  11024  11036     1   110.1900474 564.840000
  11023  11037  11043     1   110.1900474 564.840000
  11023  11045  11029     1   112.4800480 524.673600
  11024  11027  11028     1   111.5100476 526.347200
  11024  11027  11035     1   110.1900474 564.840000
  11024  11023  11037     1   111.5100476 526.347200
  11024  11023  11045     1   107.9700462 569.024000
  11027  11028  11029     1   111.5100476 526.347200
  11027  11028  11034     1   110.1900474 564.840000
  11027  11024  11036     1   110.1900474 564.840000
  11028  11029  11033     1   107.9700462 569.024000
  11028  11029  11045     1   107.9700462 569.024000
  11028  11027  11035     1   110.1900474 564.840000
  11029  11028  11034     1   110.1900474 564.840000
  11033  11029  11045     1   108.2900466 608.353600
  11037  11023  11045     1   107.9700462 569.024000
  11046  11047  11050     1   111.5100476 526.347200
  11046  11047  11059     1   110.1900474 564.840000
  11046  11060  11066     1   110.1900474 564.840000
  11046  11068  11052     1   112.4800480 524.673600
  11047  11046  11060     1   111.5100476 526.347200
  11047  11046  11068     1   107.9700462 569.024000
  11047  11050  11051     1   111.5100476 526.347200
  11047  11050  11058     1   110.1900474 564.840000
  11050  11047  11059     1   110.1900474 564.840000
  11050  11051  11052     1   111.5100476 526.347200
  11050  11051  11057     1   110.1900474 564.840000
  11051  11050  11058     1   110.1900474 564.840000
  11051  11052  11056     1   107.9700462 569.024000
  11051  11052  11068     1   107.9700462 569.024000
  11052  11051  11057     1   110.1900474 564.840000
  11056  11052  11068     1   108.2900466 608.353600
  11060  11046  11068     1   107.9700462 569.024000
  11069  11070  11073     1   111.5100476 526.347200
  11069  11070  11082     1   110.1900474 564.840000
  11069  11083  11089     1   110.1900474 564.840000
  11069  11091  11075     1   112.4800480 524.673600
  11070  11073  11074     1   111.5100476 526.347200
  11070  11073  11081     1   110.1900474 564.840000
  11070  11069  11083     1   111.5100476 526.347200
  11070  11069  11091     1   107.9700462 569.024000
  11073  11074  11075     1   111.5100476 526.347200
  11073  11074  11080     1   110.1900474 564.840000
  11073  11070  11082     1   110.1900474 564.840000
  11074  11075  11079     1   107.9700462 569.024000
  11074  11075  11091     1   107.9700462 569.024000
  11074  11073  11081     1   110.1900474 564.840000
  11075  11074  11080     1   110.1900474 564.840000
  11079  11075  11091     1   108.2900466 608.353600
  11083  11069  11091     1   107.9700462 569.024000
  11092  11093  11096     1   111.5100476 526.347200
  11092  11093  11105     1   110.1900474 564.840000
  11092  11106  11112     1   110.1900474 564.840000
  11092  11114  11098     1   112.4800480 524.673600
  11093  11092  11106     1   111.5100476 526.347200
  11093  11092  11114     1   107.9700462 569.024000
  11093  11096  11097     1   111.5100476 526.347200
  11093  11096  11104     1   110.1900474 564.840000
  11096  11093  11105     1   110.1900474 564.840000
  11096  11097  11098     1   111.5100476 526.347200
  11096  11097  11103     1   110.1900474 564.840000
  11097  11096  11104     1   110.1900474 564.840000
  11097  11098  11102     1   107.9700462 569.024000
  11097  11098  11114     1   107.9700462 569.024000
  11098  11097  11103     1   110.1900474 564.840000
  11102  11098  11114     1   108.2900466 608.353600
  11106  11092  11114     1   107.9700462 569.024000
  11115  11116  11119     1   111.5100476 526.347200
  11115  11116  11128     1   110.1900474 564.840000
  11115  11129  11135     1   110.1900474 564.840000
  11115  11137  11121     1   112.4800480 524.673600
  11116  11119  11120     1   111.5100476 526.347200
  11116  11119  11127     1   110.1900474 564.840000
  11116  11115  11129     1   111.5100476 526.347200
  11116  11115  11137     1   107.9700462 569.024000
  11119  11120  11121     1   111.5100476 526.347200
  11119  11120  11126     1   110.1900474 564.840000
  11119  11116  11128     1   110.1900474 564.840000
  11120  11121  11125     1   107.9700462 569.024000
  11120  11121  11137     1   107.9700462 569.024000
  11120  11119  11127     1   110.1900474 564.840000
  11121  11120  11126     1   110.1900474 564.840000
  11125  11121  11137     1   108.2900466 608.353600
  11129  11115  11137     1   107.9700462 569.024000
  11138  11139  11142     1   111.5100476 526.347200
  11138  11139  11151     1   110.1900474 564.840000
  11138  11152  11158     1   110.1900474 564.840000
  11138  11160  11144     1   112.4800480 524.673600
  11139  11138  11152     1   111.5100476 526.347200
  11139  11138  11160     1   107.9700462 569.024000
  11139  11142  11143     1   111.5100476 526.347200
  11139  11142  11150     1   110.1900474 564.840000
  11142  11139  11151     1   110.1900474 564.840000
  11142  11143  11144     1   111.5100476 526.347200
  11142  11143  11149     1   110.1900474 564.840000
  11143  11142  11150     1   110.1900474 564.840000
  11143  11144  11148     1   107.9700462 569.024000
  11143  11144  11160     1   107.9700462 569.024000
  11144  11143  11149     1   110.1900474 564.840000
  11148  11144  11160     1   108.2900466 608.353600
  11152  11138  11160     1   107.9700462 569.024000
  11161  11162  11165     1   111.5100476 526.347200
  11161  11162  11174     1   110.1900474 564.840000
  11161  11175  11181     1   110.1900474 564.840000
  11161  11183  11167     1   112.4800480 524.673600
  11162  11165  11166     1   111.5100476 526.347200
  11162  11165  11173     1   110.1900474 564.840000
  11162  11161  11175     1   111.5100476 526.347200
  11162  11161  11183     1   107.9700462 569.024000
  11165  11166  11167     1   111.5100476 526.347200
  11165  11166  11172     1   110.1900474 564.840000
  11165  11162  11174     1   110.1900474 564.840000
  11166  11167  11171     1   107.9700462 569.024000
  11166  11167  11183     1   107.9700462 569.024000
  11166  11165  11173     1   110.1900474 564.840000
  11167  11166  11172     1   110.1900474 564.840000
  11171  11167  11183     1   108.2900466 608.353600
  11175  11161  11183     1   107.9700462 569.024000
  11184  11185  11188     1   111.5100476 526.347200
  11184  11185  11197     1   110.1900474 564.840000
  11184  11198  11204     1   110.1900474 564.840000
  11184  11206  11190     1   112.4800480 524.673600
  11185  11184  11198     1   111.5100476 526.347200
  11185  11184  11206     1   107.9700462 569.024000
  11185  11188  11189     1   111.5100476 526.347200
  11185  11188  11196     1   110.1900474 564.840000
  11188  11185  11197     1   110.1900474 564.840000
  11188  11189  11190     1   111.5100476 526.347200
  11188  11189  11195     1   110.1900474 564.840000
  11189  11188  11196     1   110.1900474 564.840000
  11189  11190  11194     1   107.9700462 569.024000
  11189  11190  11206     1   107.9700462 569.024000
  11190  11189  11195     1   110.1900474 564.840000
  11194  11190  11206     1   108.2900466 608.353600
  11198  11184  11206     1   107.9700462 569.024000
  11207  11208  11211     1   111.5100476 526.347200
  11207  11208  11220     1   110.1900474 564.840000
  11207  11221  11227     1   110.1900474 564.840000
  11207  11229  11213     1   112.4800480 524.673600
  11208  11211  11212     1   111.5100476 526.347200
  11208  11211  11219     1   110.1900474 564.840000
  11208  11207  11221     1   111.5100476 526.347200
  11208  11207  11229     1   107.9700462 569.024000
  11211  11212  11213     1   111.5100476 526.347200
  11211  11212  11218     1   110.1900474 564.840000
  11211  11208  11220     1   110.1900474 564.840000
  11212  11213  11217     1   107.9700462 569.024000
  11212  11213  11229     1   107.9700462 569.024000
  11212  11211  11219     1   110.1900474 564.840000
  11213  11212  11218     1   110.1900474 564.840000
  11217  11213  11229     1   108.2900466 608.353600
  11221  11207  11229     1   107.9700462 569.024000
  11230  11231  11234     1   111.5100476 526.347200
  11230  11231  11243     1   110.1900474 564.840000
  11230  11244  11250     1   110.1900474 564.840000
  11230  11252  11236     1   112.4800480 524.673600
  11231  11230  11244     1   111.5100476 526.347200
  11231  11230  11252     1   107.9700462 569.024000
  11231  11234  11235     1   111.5100476 526.347200
  11231  11234  11242     1   110.1900474 564.840000
  11234  11231  11243     1   110.1900474 564.840000
  11234  11235  11236     1   111.5100476 526.347200
  11234  11235  11241     1   110.1900474 564.840000
  11235  11234  11242     1   110.1900474 564.840000
  11235  11236  11240     1   107.9700462 569.024000
  11235  11236  11252     1   107.9700462 569.024000
  11236  11235  11241     1   110.1900474 564.840000
  11240  11236  11252     1   108.2900466 608.353600
  11244  11230  11252     1   107.9700462 569.024000
  11253  11254  11257     1   111.5100476 526.347200
  11253  11254  11266     1   110.1900474 564.840000
  11253  11267  11273     1   110.1900474 564.840000
  11253  11275  11259     1   112.4800480 524.673600
  11254  11257  11258     1   111.5100476 526.347200
  11254  11257  11265     1   110.1900474 564.840000
  11254  11253  11267     1   111.5100476 526.347200
  11254  11253  11275     1   107.9700462 569.024000
  11257  11258  11259     1   111.5100476 526.347200
  11257  11258  11264     1   110.1900474 564.840000
  11257  11254  11266     1   110.1900474 564.840000
  11258  11259  11263     1   107.9700462 569.024000
  11258  11259  11275     1   107.9700462 569.024000
  11258  11257  11265     1   110.1900474 564.840000
  11259  11258  11264     1   110.1900474 564.840000
  11263  11259  11275     1   108.2900466 608.353600
  11267  11253  11275     1   107.9700462 569.024000
  11276  11277  11280     1   111.5100476 526.347200
  11276  11277  11289     1   110.1900474 564.840000
  11276  11290  11296     1   110.1900474 564.840000
  11276  11298  11282     1   112.4800480 524.673600
  11277  11276  11290     1   111.5100476 526.347200
  11277  11276  11298     1   107.9700462 569.024000
  11277  11280  11281     1   111.5100476 526.347200
  11277  11280  11288     1   110.1900474 564.840000
  11280  11277  11289     1   110.1900474 564.840000
  11280  11281  11282     1   111.5100476 526.347200
  11280  11281  11287     1   110.1900474 564.840000
  11281  11280  11288     1   110.1900474 564.840000
  11281  11282  11286     1   107.9700462 569.024000
  11281  11282  11298     1   107.9700462 569.024000
  11282  11281  11287     1   110.1900474 564.840000
  11286  11282  11298     1   108.2900466 608.353600
  11290  11276  11298     1   107.9700462 569.024000
  11299  11300  11303     1   111.5100476 526.347200
  11299  11300  11312     1   110.1900474 564.840000
  11299  11313  11319     1   110.1900474 564.840000
  11299  11321  11305     1   112.4800480 524.673600
  11300  11303  11304     1   111.5100476 526.347200
  11300  11303  11311     1   110.1900474 564.840000
  11300  11299  11313     1   111.5100476 526.347200
  11300  11299  11321     1   107.9700462 569.024000
  11303  11304  11305     1   111.5100476 526.347200
  11303  11304  11310     1   110.1900474 564.840000
  11303  11300  11312     1   110.1900474 564.840000
  11304  11305  11309     1   107.9700462 569.024000
  11304  11305  11321     1   107.9700462 569.024000
  11304  11303  11311     1   110.1900474 564.840000
  11305  11304  11310     1   110.1900474 564.840000
  11309  11305  11321     1   108.2900466 608.353600
  11313  11299  11321     1   107.9700462 569.024000
  11322  11323  11326     1   111.5100476 526.347200
  11322  11323  11335     1   110.1900474 564.840000
  11322  11336  11342     1   110.1900474 564.840000
  11322  11344  11328     1   112.4800480 524.673600
  11323  11322  11336     1   111.5100476 526.347200
  11323  11322  11344     1   107.9700462 569.024000
  11323  11326  11327     1   111.5100476 526.347200
  11323  11326  11334     1   110.1900474 564.840000
  11326  11323  11335     1   110.1900474 564.840000
  11326  11327  11328     1   111.5100476 526.347200
  11326  11327  11333     1   110.1900474 564.840000
  11327  11326  11334     1   110.1900474 564.840000
  11327  11328  11332     1   107.9700462 569.024000
  11327  11328  11344     1   107.9700462 569.024000
  11328  11327  11333     1   110.1900474 564.840000
  11332  11328  11344     1   108.2900466 608.353600
  11336  11322  11344     1   107.9700462 569.024000
  11345  11346  11349     1   111.5100476 526.347200
  11345  11346  11358     1   110.1900474 564.840000
  11345  11359  11365     1   110.1900474 564.840000
  11345  11367  11351     1   112.4800480 524.673600
  11346  11349  11350     1   111.5100476 526.347200
  11346  11349  11357     1   110.1900474 564.840000
  11346  11345  11359     1   111.5100476 526.347200
  11346  11345  11367     1   107.9700462 569.024000
  11349  11350  11351     1   111.5100476 526.347200
  11349  11350  11356     1   110.1900474 564.840000
  11349  11346  11358     1   110.1900474 564.840000
  11350  11351  11355     1   107.9700462 569.024000
  11350  11351  11367     1   107.9700462 569.024000
  11350  11349  11357     1   110.1900474 564.840000
  11351  11350  11356     1   110.1900474 564.840000
  11355  11351  11367     1   108.2900466 608.353600
  11359  11345  11367     1   107.9700462 569.024000
  11368  11369  11372     1   111.5100476 526.347200
  11368  11369  11381     1   110.1900474 564.840000
  11368  11382  11388     1   110.1900474 564.840000
  11368  11390  11374     1   112.4800480 524.673600
  11369  11368  11382     1   111.5100476 526.347200
  11369  11368  11390     1   107.9700462 569.024000
  11369  11372  11373     1   111.5100476 526.347200
  11369  11372  11380     1   110.1900474 564.840000
  11372  11369  11381     1   110.1900474 564.840000
  11372  11373  11374     1   111.5100476 526.347200
  11372  11373  11379     1   110.1900474 564.840000
  11373  11372  11380     1   110.1900474 564.840000
  11373  11374  11378     1   107.9700462 569.024000
  11373  11374  11390     1   107.9700462 569.024000
  11374  11373  11379     1   110.1900474 564.840000
  11378  11374  11390     1   108.2900466 608.353600
  11382  11368  11390     1   107.9700462 569.024000
  11391  11392  11395     1   111.5100476 526.347200
  11391  11392  11404     1   110.1900474 564.840000
  11391  11405  11411     1   110.1900474 564.840000
  11391  11413  11397     1   112.4800480 524.673600
  11392  11395  11396     1   111.5100476 526.347200
  11392  11395  11403     1   110.1900474 564.840000
  11392  11391  11405     1   111.5100476 526.347200
  11392  11391  11413     1   107.9700462 569.024000
  11395  11396  11397     1   111.5100476 526.347200
  11395  11396  11402     1   110.1900474 564.840000
  11395  11392  11404     1   110.1900474 564.840000
  11396  11397  11401     1   107.9700462 569.024000
  11396  11397  11413     1   107.9700462 569.024000
  11396  11395  11403     1   110.1900474 564.840000
  11397  11396  11402     1   110.1900474 564.840000
  11401  11397  11413     1   108.2900466 608.353600
  11405  11391  11413     1   107.9700462 569.024000
  11414  11415  11418     1   111.5100476 526.347200
  11414  11415  11427     1   110.1900474 564.840000
  11414  11428  11434     1   110.1900474 564.840000
  11414  11436  11420     1   112.4800480 524.673600
  11415  11414  11428     1   111.5100476 526.347200
  11415  11414  11436     1   107.9700462 569.024000
  11415  11418  11419     1   111.5100476 526.347200
  11415  11418  11426     1   110.1900474 564.840000
  11418  11415  11427     1   110.1900474 564.840000
  11418  11419  11420     1   111.5100476 526.347200
  11418  11419  11425     1   110.1900474 564.840000
  11419  11418  11426     1   110.1900474 564.840000
  11419  11420  11424     1   107.9700462 569.024000
  11419  11420  11436     1   107.9700462 569.024000
  11420  11419  11425     1   110.1900474 564.840000
  11424  11420  11436     1   108.2900466 608.353600
  11428  11414  11436     1   107.9700462 569.024000
  11437  11438  11441     1   111.5100476 526.347200
  11437  11438  11450     1   110.1900474 564.840000
  11437  11451  11457     1   110.1900474 564.840000
  11437  11459  11443     1   112.4800480 524.673600
  11438  11441  11442     1   111.5100476 526.347200
  11438  11441  11449     1   110.1900474 564.840000
  11438  11437  11451     1   111.5100476 526.347200
  11438  11437  11459     1   107.9700462 569.024000
  11441  11442  11443     1   111.5100476 526.347200
  11441  11442  11448     1   110.1900474 564.840000
  11441  11438  11450     1   110.1900474 564.840000
  11442  11443  11447     1   107.9700462 569.024000
  11442  11443  11459     1   107.9700462 569.024000
  11442  11441  11449     1   110.1900474 564.840000
  11443  11442  11448     1   110.1900474 564.840000
  11447  11443  11459     1   108.2900466 608.353600
  11451  11437  11459     1   107.9700462 569.024000
  11460  11461  11464     1   111.5100476 526.347200
  11460  11461  11473     1   110.1900474 564.840000
  11460  11474  11480     1   110.1900474 564.840000
  11460  11482  11466     1   112.4800480 524.673600
  11461  11460  11474     1   111.5100476 526.347200
  11461  11460  11482     1   107.9700462 569.024000
  11461  11464  11465     1   111.5100476 526.347200
  11461  11464  11472     1   110.1900474 564.840000
  11464  11461  11473     1   110.1900474 564.840000
  11464  11465  11466     1   111.5100476 526.347200
  11464  11465  11471     1   110.1900474 564.840000
  11465  11464  11472     1   110.1900474 564.840000
  11465  11466  11470     1   107.9700462 569.024000
  11465  11466  11482     1   107.9700462 569.024000
  11466  11465  11471     1   110.1900474 564.840000
  11470  11466  11482     1   108.2900466 608.353600
  11474  11460  11482     1   107.9700462 569.024000
  11483  11484  11487     1   111.5100476 526.347200
  11483  11484  11496     1   110.1900474 564.840000
  11483  11497  11503     1   110.1900474 564.840000
  11483  11505  11489     1   112.4800480 524.673600
  11484  11487  11488     1   111.5100476 526.347200
  11484  11487  11495     1   110.1900474 564.840000
  11484  11483  11497     1   111.5100476 526.347200
  11484  11483  11505     1   107.9700462 569.024000
  11487  11488  11489     1   111.5100476 526.347200
  11487  11488  11494     1   110.1900474 564.840000
  11487  11484  11496     1   110.1900474 564.840000
  11488  11489  11493     1   107.9700462 569.024000
  11488  11489  11505     1   107.9700462 569.024000
  11488  11487  11495     1   110.1900474 564.840000
  11489  11488  11494     1   110.1900474 564.840000
  11493  11489  11505     1   108.2900466 608.353600
  11497  11483  11505     1   107.9700462 569.024000
  11506  11507  11510     1   111.5100476 526.347200
  11506  11507  11519     1   110.1900474 564.840000
  11506  11520  11526     1   110.1900474 564.840000
  11506  11528  11512     1   112.4800480 524.673600
  11507  11506  11520     1   111.5100476 526.347200
  11507  11506  11528     1   107.9700462 569.024000
  11507  11510  11511     1   111.5100476 526.347200
  11507  11510  11518     1   110.1900474 564.840000
  11510  11507  11519     1   110.1900474 564.840000
  11510  11511  11512     1   111.5100476 526.347200
  11510  11511  11517     1   110.1900474 564.840000
  11511  11510  11518     1   110.1900474 564.840000
  11511  11512  11516     1   107.9700462 569.024000
  11511  11512  11528     1   107.9700462 569.024000
  11512  11511  11517     1   110.1900474 564.840000
  11516  11512  11528     1   108.2900466 608.353600
  11520  11506  11528     1   107.9700462 569.024000
  11529  11530  11533     1   111.5100476 526.347200
  11529  11530  11542     1   110.1900474 564.840000
  11529  11543  11549     1   110.1900474 564.840000
  11529  11551  11535     1   112.4800480 524.673600
  11530  11533  11534     1   111.5100476 526.347200
  11530  11533  11541     1   110.1900474 564.840000
  11530  11529  11543     1   111.5100476 526.347200
  11530  11529  11551     1   107.9700462 569.024000
  11533  11534  11535     1   111.5100476 526.347200
  11533  11534  11540     1   110.1900474 564.840000
  11533  11530  11542     1   110.1900474 564.840000
  11534  11535  11539     1   107.9700462 569.024000
  11534  11535  11551     1   107.9700462 569.024000
  11534  11533  11541     1   110.1900474 564.840000
  11535  11534  11540     1   110.1900474 564.840000
  11539  11535  11551     1   108.2900466 608.353600
  11543  11529  11551     1   107.9700462 569.024000
  11552  11553  11556     1   111.5100476 526.347200
  11552  11553  11565     1   110.1900474 564.840000
  11552  11566  11572     1   110.1900474 564.840000
  11552  11574  11558     1   112.4800480 524.673600
  11553  11552  11566     1   111.5100476 526.347200
  11553  11552  11574     1   107.9700462 569.024000
  11553  11556  11557     1   111.5100476 526.347200
  11553  11556  11564     1   110.1900474 564.840000
  11556  11553  11565     1   110.1900474 564.840000
  11556  11557  11558     1   111.5100476 526.347200
  11556  11557  11563     1   110.1900474 564.840000
  11557  11556  11564     1   110.1900474 564.840000
  11557  11558  11562     1   107.9700462 569.024000
  11557  11558  11574     1   107.9700462 569.024000
  11558  11557  11563     1   110.1900474 564.840000
  11562  11558  11574     1   108.2900466 608.353600
  11566  11552  11574     1   107.9700462 569.024000
  11575  11576  11579     1   111.5100476 526.347200
  11575  11576  11588     1   110.1900474 564.840000
  11575  11589  11595     1   110.1900474 564.840000
  11575  11597  11581     1   112.4800480 524.673600
  11576  11579  11580     1   111.5100476 526.347200
  11576  11579  11587     1   110.1900474 564.840000
  11576  11575  11589     1   111.5100476 526.347200
  11576  11575  11597     1   107.9700462 569.024000
  11579  11580  11581     1   111.5100476 526.347200
  11579  11580  11586     1   110.1900474 564.840000
  11579  11576  11588     1   110.1900474 564.840000
  11580  11581  11585     1   107.9700462 569.024000
  11580  11581  11597     1   107.9700462 569.024000
  11580  11579  11587     1   110.1900474 564.840000
  11581  11580  11586     1   110.1900474 564.840000
  11585  11581  11597     1   108.2900466 608.353600
  11589  11575  11597     1   107.9700462 569.024000
  11598  11599  11602     1   111.5100476 526.347200
  11598  11599  11611     1   110.1900474 564.840000
  11598  11612  11618     1   110.1900474 564.840000
  11598  11620  11604     1   112.4800480 524.673600
  11599  11598  11612     1   111.5100476 526.347200
  11599  11598  11620     1   107.9700462 569.024000
  11599  11602  11603     1   111.5100476 526.347200
  11599  11602  11610     1   110.1900474 564.840000
  11602  11599  11611     1   110.1900474 564.840000
  11602  11603  11604     1   111.5100476 526.347200
  11602  11603  11609     1   110.1900474 564.840000
  11603  11602  11610     1   110.1900474 564.840000
  11603  11604  11608     1   107.9700462 569.024000
  11603  11604  11620     1   107.9700462 569.024000
  11604  11603  11609     1   110.1900474 564.840000
  11608  11604  11620     1   108.2900466 608.353600
  11612  11598  11620     1   107.9700462 569.024000
  11621  11622  11625     1   111.5100476 526.347200
  11621  11622  11634     1   110.1900474 564.840000
  11621  11635  11641     1   110.1900474 564.840000
  11621  11643  11627     1   112.4800480 524.673600
  11622  11625  11626     1   111.5100476 526.347200
  11622  11625  11633     1   110.1900474 564.840000
  11622  11621  11635     1   111.5100476 526.347200
  11622  11621  11643     1   107.9700462 569.024000
  11625  11626  11627     1   111.5100476 526.347200
  11625  11626  11632     1   110.1900474 564.840000
  11625  11622  11634     1   110.1900474 564.840000
  11626  11627  11631     1   107.9700462 569.024000
  11626  11627  11643     1   107.9700462 569.024000
  11626  11625  11633     1   110.1900474 564.840000
  11627  11626  11632     1   110.1900474 564.840000
  11631  11627  11643     1   108.2900466 608.353600
  11635  11621  11643     1   107.9700462 569.024000
  11644  11645  11648     1   111.5100476 526.347200
  11644  11645  11657     1   110.1900474 564.840000
  11644  11658  11664     1   110.1900474 564.840000
  11644  11666  11650     1   112.4800480 524.673600
  11645  11644  11658     1   111.5100476 526.347200
  11645  11644  11666     1   107.9700462 569.024000
  11645  11648  11649     1   111.5100476 526.347200
  11645  11648  11656     1   110.1900474 564.840000
  11648  11645  11657     1   110.1900474 564.840000
  11648  11649  11650     1   111.5100476 526.347200
  11648  11649  11655     1   110.1900474 564.840000
  11649  11648  11656     1   110.1900474 564.840000
  11649  11650  11654     1   107.9700462 569.024000
  11649  11650  11666     1   107.9700462 569.024000
  11650  11649  11655     1   110.1900474 564.840000
  11654  11650  11666     1   108.2900466 608.353600
  11658  11644  11666     1   107.9700462 569.024000
  11667  11668  11671     1   111.5100476 526.347200
  11667  11668  11680     1   110.1900474 564.840000
  11667  11681  11687     1   110.1900474 564.840000
  11667  11689  11673     1   112.4800480 524.673600
  11668  11671  11672     1   111.5100476 526.347200
  11668  11671  11679     1   110.1900474 564.840000
  11668  11667  11681     1   111.5100476 526.347200
  11668  11667  11689     1   107.9700462 569.024000
  11671  11672  11673     1   111.5100476 526.347200
  11671  11672  11678     1   110.1900474 564.840000
  11671  11668  11680     1   110.1900474 564.840000
  11672  11673  11677     1   107.9700462 569.024000
  11672  11673  11689     1   107.9700462 569.024000
  11672  11671  11679     1   110.1900474 564.840000
  11673  11672  11678     1   110.1900474 564.840000
  11677  11673  11689     1   108.2900466 608.353600
  11681  11667  11689     1   107.9700462 569.024000
  11690  11691  11694     1   111.5100476 526.347200
  11690  11691  11703     1   110.1900474 564.840000
  11690  11704  11710     1   110.1900474 564.840000
  11690  11712  11696     1   112.4800480 524.673600
  11691  11690  11704     1   111.5100476 526.347200
  11691  11690  11712     1   107.9700462 569.024000
  11691  11694  11695     1   111.5100476 526.347200
  11691  11694  11702     1   110.1900474 564.840000
  11694  11691  11703     1   110.1900474 564.840000
  11694  11695  11696     1   111.5100476 526.347200
  11694  11695  11701     1   110.1900474 564.840000
  11695  11694  11702     1   110.1900474 564.840000
  11695  11696  11700     1   107.9700462 569.024000
  11695  11696  11712     1   107.9700462 569.024000
  11696  11695  11701     1   110.1900474 564.840000
  11700  11696  11712     1   108.2900466 608.353600
  11704  11690  11712     1   107.9700462 569.024000
  11713  11714  11717     1   111.5100476 526.347200
  11713  11714  11726     1   110.1900474 564.840000
  11713  11727  11733     1   110.1900474 564.840000
  11713  11735  11719     1   112.4800480 524.673600
  11714  11717  11718     1   111.5100476 526.347200
  11714  11717  11725     1   110.1900474 564.840000
  11714  11713  11727     1   111.5100476 526.347200
  11714  11713  11735     1   107.9700462 569.024000
  11717  11718  11719     1   111.5100476 526.347200
  11717  11718  11724     1   110.1900474 564.840000
  11717  11714  11726     1   110.1900474 564.840000
  11718  11719  11723     1   107.9700462 569.024000
  11718  11719  11735     1   107.9700462 569.024000
  11718  11717  11725     1   110.1900474 564.840000
  11719  11718  11724     1   110.1900474 564.840000
  11723  11719  11735     1   108.2900466 608.353600
  11727  11713  11735     1   107.9700462 569.024000
  11736  11737  11740     1   111.5100476 526.347200
  11736  11737  11749     1   110.1900474 564.840000
  11736  11750  11756     1   110.1900474 564.840000
  11736  11758  11742     1   112.4800480 524.673600
  11737  11736  11750     1   111.5100476 526.347200
  11737  11736  11758     1   107.9700462 569.024000
  11737  11740  11741     1   111.5100476 526.347200
  11737  11740  11748     1   110.1900474 564.840000
  11740  11737  11749     1   110.1900474 564.840000
  11740  11741  11742     1   111.5100476 526.347200
  11740  11741  11747     1   110.1900474 564.840000
  11741  11740  11748     1   110.1900474 564.840000
  11741  11742  11746     1   107.9700462 569.024000
  11741  11742  11758     1   107.9700462 569.024000
  11742  11741  11747     1   110.1900474 564.840000
  11746  11742  11758     1   108.2900466 608.353600
  11750  11736  11758     1   107.9700462 569.024000
  11759  11760  11763     1   111.5100476 526.347200
  11759  11760  11772     1   110.1900474 564.840000
  11759  11773  11779     1   110.1900474 564.840000
  11759  11781  11765     1   112.4800480 524.673600
  11760  11763  11764     1   111.5100476 526.347200
  11760  11763  11771     1   110.1900474 564.840000
  11760  11759  11773     1   111.5100476 526.347200
  11760  11759  11781     1   107.9700462 569.024000
  11763  11764  11765     1   111.5100476 526.347200
  11763  11764  11770     1   110.1900474 564.840000
  11763  11760  11772     1   110.1900474 564.840000
  11764  11765  11769     1   107.9700462 569.024000
  11764  11765  11781     1   107.9700462 569.024000
  11764  11763  11771     1   110.1900474 564.840000
  11765  11764  11770     1   110.1900474 564.840000
  11769  11765  11781     1   108.2900466 608.353600
  11773  11759  11781     1   107.9700462 569.024000
  11782  11783  11786     1   111.5100476 526.347200
  11782  11783  11795     1   110.1900474 564.840000
  11782  11796  11802     1   110.1900474 564.840000
  11782  11804  11788     1   112.4800480 524.673600
  11783  11782  11796     1   111.5100476 526.347200
  11783  11782  11804     1   107.9700462 569.024000
  11783  11786  11787     1   111.5100476 526.347200
  11783  11786  11794     1   110.1900474 564.840000
  11786  11783  11795     1   110.1900474 564.840000
  11786  11787  11788     1   111.5100476 526.347200
  11786  11787  11793     1   110.1900474 564.840000
  11787  11786  11794     1   110.1900474 564.840000
  11787  11788  11792     1   107.9700462 569.024000
  11787  11788  11804     1   107.9700462 569.024000
  11788  11787  11793     1   110.1900474 564.840000
  11792  11788  11804     1   108.2900466 608.353600
  11796  11782  11804     1   107.9700462 569.024000
  11805  11806  11809     1   111.5100476 526.347200
  11805  11806  11818     1   110.1900474 564.840000
  11805  11819  11825     1   110.1900474 564.840000
  11805  11827  11811     1   112.4800480 524.673600
  11806  11809  11810     1   111.5100476 526.347200
  11806  11809  11817     1   110.1900474 564.840000
  11806  11805  11819     1   111.5100476 526.347200
  11806  11805  11827     1   107.9700462 569.024000
  11809  11810  11811     1   111.5100476 526.347200
  11809  11810  11816     1   110.1900474 564.840000
  11809  11806  11818     1   110.1900474 564.840000
  11810  11811  11815     1   107.9700462 569.024000
  11810  11811  11827     1   107.9700462 569.024000
  11810  11809  11817     1   110.1900474 564.840000
  11811  11810  11816     1   110.1900474 564.840000
  11815  11811  11827     1   108.2900466 608.353600
  11819  11805  11827     1   107.9700462 569.024000
  11828  11829  11832     1   111.5100476 526.347200
  11828  11829  11841     1   110.1900474 564.840000
  11828  11842  11848     1   110.1900474 564.840000
  11828  11850  11834     1   112.4800480 524.673600
  11829  11828  11842     1   111.5100476 526.347200
  11829  11828  11850     1   107.9700462 569.024000
  11829  11832  11833     1   111.5100476 526.347200
  11829  11832  11840     1   110.1900474 564.840000
  11832  11829  11841     1   110.1900474 564.840000
  11832  11833  11834     1   111.5100476 526.347200
  11832  11833  11839     1   110.1900474 564.840000
  11833  11832  11840     1   110.1900474 564.840000
  11833  11834  11838     1   107.9700462 569.024000
  11833  11834  11850     1   107.9700462 569.024000
  11834  11833  11839     1   110.1900474 564.840000
  11838  11834  11850     1   108.2900466 608.353600
  11842  11828  11850     1   107.9700462 569.024000
  11851  11852  11855     1   111.5100476 526.347200
  11851  11852  11864     1   110.1900474 564.840000
  11851  11865  11871     1   110.1900474 564.840000
  11851  11873  11857     1   112.4800480 524.673600
  11852  11855  11856     1   111.5100476 526.347200
  11852  11855  11863     1   110.1900474 564.840000
  11852  11851  11865     1   111.5100476 526.347200
  11852  11851  11873     1   107.9700462 569.024000
  11855  11856  11857     1   111.5100476 526.347200
  11855  11856  11862     1   110.1900474 564.840000
  11855  11852  11864     1   110.1900474 564.840000
  11856  11857  11861     1   107.9700462 569.024000
  11856  11857  11873     1   107.9700462 569.024000
  11856  11855  11863     1   110.1900474 564.840000
  11857  11856  11862     1   110.1900474 564.840000
  11861  11857  11873     1   108.2900466 608.353600
  11865  11851  11873     1   107.9700462 569.024000
  11874  11875  11878     1   111.5100476 526.347200
  11874  11875  11887     1   110.1900474 564.840000
  11874  11888  11894     1   110.1900474 564.840000
  11874  11896  11880     1   112.4800480 524.673600
  11875  11874  11888     1   111.5100476 526.347200
  11875  11874  11896     1   107.9700462 569.024000
  11875  11878  11879     1   111.5100476 526.347200
  11875  11878  11886     1   110.1900474 564.840000
  11878  11875  11887     1   110.1900474 564.840000
  11878  11879  11880     1   111.5100476 526.347200
  11878  11879  11885     1   110.1900474 564.840000
  11879  11878  11886     1   110.1900474 564.840000
  11879  11880  11884     1   107.9700462 569.024000
  11879  11880  11896     1   107.9700462 569.024000
  11880  11879  11885     1   110.1900474 564.840000
  11884  11880  11896     1   108.2900466 608.353600
  11888  11874  11896     1   107.9700462 569.024000
  11897  11898  11901     1   111.5100476 526.347200
  11897  11898  11910     1   110.1900474 564.840000
  11897  11911  11917     1   110.1900474 564.840000
  11897  11919  11903     1   112.4800480 524.673600
  11898  11901  11902     1   111.5100476 526.347200
  11898  11901  11909     1   110.1900474 564.840000
  11898  11897  11911     1   111.5100476 526.347200
  11898  11897  11919     1   107.9700462 569.024000
  11901  11902  11903     1   111.5100476 526.347200
  11901  11902  11908     1   110.1900474 564.840000
  11901  11898  11910     1   110.1900474 564.840000
  11902  11903  11907     1   107.9700462 569.024000
  11902  11903  11919     1   107.9700462 569.024000
  11902  11901  11909     1   110.1900474 564.840000
  11903  11902  11908     1   110.1900474 564.840000
  11907  11903  11919     1   108.2900466 608.353600
  11911  11897  11919     1   107.9700462 569.024000
  11920  11921  11924     1   111.5100476 526.347200
  11920  11921  11933     1   110.1900474 564.840000
  11920  11934  11940     1   110.1900474 564.840000
  11920  11942  11926     1   112.4800480 524.673600
  11921  11920  11934     1   111.5100476 526.347200
  11921  11920  11942     1   107.9700462 569.024000
  11921  11924  11925     1   111.5100476 526.347200
  11921  11924  11932     1   110.1900474 564.840000
  11924  11921  11933     1   110.1900474 564.840000
  11924  11925  11926     1   111.5100476 526.347200
  11924  11925  11931     1   110.1900474 564.840000
  11925  11924  11932     1   110.1900474 564.840000
  11925  11926  11930     1   107.9700462 569.024000
  11925  11926  11942     1   107.9700462 569.024000
  11926  11925  11931     1   110.1900474 564.840000
  11930  11926  11942     1   108.2900466 608.353600
  11934  11920  11942     1   107.9700462 569.024000
  11943  11944  11947     1   111.5100476 526.347200
  11943  11944  11956     1   110.1900474 564.840000
  11943  11957  11963     1   110.1900474 564.840000
  11943  11965  11949     1   112.4800480 524.673600
  11944  11947  11948     1   111.5100476 526.347200
  11944  11947  11955     1   110.1900474 564.840000
  11944  11943  11957     1   111.5100476 526.347200
  11944  11943  11965     1   107.9700462 569.024000
  11947  11948  11949     1   111.5100476 526.347200
  11947  11948  11954     1   110.1900474 564.840000
  11947  11944  11956     1   110.1900474 564.840000
  11948  11949  11953     1   107.9700462 569.024000
  11948  11949  11965     1   107.9700462 569.024000
  11948  11947  11955     1   110.1900474 564.840000
  11949  11948  11954     1   110.1900474 564.840000
  11953  11949  11965     1   108.2900466 608.353600
  11957  11943  11965     1   107.9700462 569.024000
  11966  11967  11970     1   111.5100476 526.347200
  11966  11967  11979     1   110.1900474 564.840000
  11966  11980  11986     1   110.1900474 564.840000
  11966  11988  11972     1   112.4800480 524.673600
  11967  11966  11980     1   111.5100476 526.347200
  11967  11966  11988     1   107.9700462 569.024000
  11967  11970  11971     1   111.5100476 526.347200
  11967  11970  11978     1   110.1900474 564.840000
  11970  11967  11979     1   110.1900474 564.840000
  11970  11971  11972     1   111.5100476 526.347200
  11970  11971  11977     1   110.1900474 564.840000
  11971  11970  11978     1   110.1900474 564.840000
  11971  11972  11976     1   107.9700462 569.024000
  11971  11972  11988     1   107.9700462 569.024000
  11972  11971  11977     1   110.1900474 564.840000
  11976  11972  11988     1   108.2900466 608.353600
  11980  11966  11988     1   107.9700462 569.024000
  11989  11990  11993     1   111.5100476 526.347200
  11989  11990  12002     1   110.1900474 564.840000
  11989  12003  12009     1   110.1900474 564.840000
  11989  12011  11995     1   112.4800480 524.673600
  11990  11993  11994     1   111.5100476 526.347200
  11990  11993  12001     1   110.1900474 564.840000
  11990  11989  12003     1   111.5100476 526.347200
  11990  11989  12011     1   107.9700462 569.024000
  11993  11994  11995     1   111.5100476 526.347200
  11993  11994  12000     1   110.1900474 564.840000
  11993  11990  12002     1   110.1900474 564.840000
  11994  11995  11999     1   107.9700462 569.024000
  11994  11995  12011     1   107.9700462 569.024000
  11994  11993  12001     1   110.1900474 564.840000
  11995  11994  12000     1   110.1900474 564.840000
  11999  11995  12011     1   108.2900466 608.353600
  12003  11989  12011     1   107.9700462 569.024000
  12012  12013  12016     1   111.5100476 526.347200
  12012  12013  12025     1   110.1900474 564.840000
  12012  12026  12032     1   110.1900474 564.840000
  12012  12034  12018     1   112.4800480 524.673600
  12013  12012  12026     1   111.5100476 526.347200
  12013  12012  12034     1   107.9700462 569.024000
  12013  12016  12017     1   111.5100476 526.347200
  12013  12016  12024     1   110.1900474 564.840000
  12016  12013  12025     1   110.1900474 564.840000
  12016  12017  12018     1   111.5100476 526.347200
  12016  12017  12023     1   110.1900474 564.840000
  12017  12016  12024     1   110.1900474 564.840000
  12017  12018  12022     1   107.9700462 569.024000
  12017  12018  12034     1   107.9700462 569.024000
  12018  12017  12023     1   110.1900474 564.840000
  12022  12018  12034     1   108.2900466 608.353600
  12026  12012  12034     1   107.9700462 569.024000
  12035  12036  12039     1   111.5100476 526.347200
  12035  12036  12048     1   110.1900474 564.840000
  12035  12049  12055     1   110.1900474 564.840000
  12035  12057  12041     1   112.4800480 524.673600
  12036  12039  12040     1   111.5100476 526.347200
  12036  12039  12047     1   110.1900474 564.840000
  12036  12035  12049     1   111.5100476 526.347200
  12036  12035  12057     1   107.9700462 569.024000
  12039  12040  12041     1   111.5100476 526.347200
  12039  12040  12046     1   110.1900474 564.840000
  12039  12036  12048     1   110.1900474 564.840000
  12040  12041  12045     1   107.9700462 569.024000
  12040  12041  12057     1   107.9700462 569.024000
  12040  12039  12047     1   110.1900474 564.840000
  12041  12040  12046     1   110.1900474 564.840000
  12045  12041  12057     1   108.2900466 608.353600
  12049  12035  12057     1   107.9700462 569.024000
  12058  12059  12062     1   111.5100476 526.347200
  12058  12059  12071     1   110.1900474 564.840000
  12058  12072  12078     1   110.1900474 564.840000
  12058  12080  12064     1   112.4800480 524.673600
  12059  12058  12072     1   111.5100476 526.347200
  12059  12058  12080     1   107.9700462 569.024000
  12059  12062  12063     1   111.5100476 526.347200
  12059  12062  12070     1   110.1900474 564.840000
  12062  12059  12071     1   110.1900474 564.840000
  12062  12063  12064     1   111.5100476 526.347200
  12062  12063  12069     1   110.1900474 564.840000
  12063  12062  12070     1   110.1900474 564.840000
  12063  12064  12068     1   107.9700462 569.024000
  12063  12064  12080     1   107.9700462 569.024000
  12064  12063  12069     1   110.1900474 564.840000
  12068  12064  12080     1   108.2900466 608.353600
  12072  12058  12080     1   107.9700462 569.024000
  12081  12082  12085     1   111.5100476 526.347200
  12081  12082  12094     1   110.1900474 564.840000
  12081  12095  12101     1   110.1900474 564.840000
  12081  12103  12087     1   112.4800480 524.673600
  12082  12085  12086     1   111.5100476 526.347200
  12082  12085  12093     1   110.1900474 564.840000
  12082  12081  12095     1   111.5100476 526.347200
  12082  12081  12103     1   107.9700462 569.024000
  12085  12086  12087     1   111.5100476 526.347200
  12085  12086  12092     1   110.1900474 564.840000
  12085  12082  12094     1   110.1900474 564.840000
  12086  12087  12091     1   107.9700462 569.024000
  12086  12087  12103     1   107.9700462 569.024000
  12086  12085  12093     1   110.1900474 564.840000
  12087  12086  12092     1   110.1900474 564.840000
  12091  12087  12103     1   108.2900466 608.353600
  12095  12081  12103     1   107.9700462 569.024000
  12104  12105  12108     1   111.5100476 526.347200
  12104  12105  12117     1   110.1900474 564.840000
  12104  12118  12124     1   110.1900474 564.840000
  12104  12126  12110     1   112.4800480 524.673600
  12105  12104  12118     1   111.5100476 526.347200
  12105  12104  12126     1   107.9700462 569.024000
  12105  12108  12109     1   111.5100476 526.347200
  12105  12108  12116     1   110.1900474 564.840000
  12108  12105  12117     1   110.1900474 564.840000
  12108  12109  12110     1   111.5100476 526.347200
  12108  12109  12115     1   110.1900474 564.840000
  12109  12108  12116     1   110.1900474 564.840000
  12109  12110  12114     1   107.9700462 569.024000
  12109  12110  12126     1   107.9700462 569.024000
  12110  12109  12115     1   110.1900474 564.840000
  12114  12110  12126     1   108.2900466 608.353600
  12118  12104  12126     1   107.9700462 569.024000
  12127  12128  12131     1   111.5100476 526.347200
  12127  12128  12140     1   110.1900474 564.840000
  12127  12141  12147     1   110.1900474 564.840000
  12127  12149  12133     1   112.4800480 524.673600
  12128  12131  12132     1   111.5100476 526.347200
  12128  12131  12139     1   110.1900474 564.840000
  12128  12127  12141     1   111.5100476 526.347200
  12128  12127  12149     1   107.9700462 569.024000
  12131  12132  12133     1   111.5100476 526.347200
  12131  12132  12138     1   110.1900474 564.840000
  12131  12128  12140     1   110.1900474 564.840000
  12132  12133  12137     1   107.9700462 569.024000
  12132  12133  12149     1   107.9700462 569.024000
  12132  12131  12139     1   110.1900474 564.840000
  12133  12132  12138     1   110.1900474 564.840000
  12137  12133  12149     1   108.2900466 608.353600
  12141  12127  12149     1   107.9700462 569.024000
  12150  12151  12154     1   111.5100476 526.347200
  12150  12151  12163     1   110.1900474 564.840000
  12150  12164  12170     1   110.1900474 564.840000
  12150  12172  12156     1   112.4800480 524.673600
  12151  12150  12164     1   111.5100476 526.347200
  12151  12150  12172     1   107.9700462 569.024000
  12151  12154  12155     1   111.5100476 526.347200
  12151  12154  12162     1   110.1900474 564.840000
  12154  12151  12163     1   110.1900474 564.840000
  12154  12155  12156     1   111.5100476 526.347200
  12154  12155  12161     1   110.1900474 564.840000
  12155  12154  12162     1   110.1900474 564.840000
  12155  12156  12160     1   107.9700462 569.024000
  12155  12156  12172     1   107.9700462 569.024000
  12156  12155  12161     1   110.1900474 564.840000
  12160  12156  12172     1   108.2900466 608.353600
  12164  12150  12172     1   107.9700462 569.024000
  12173  12174  12177     1   111.5100476 526.347200
  12173  12174  12186     1   110.1900474 564.840000
  12173  12187  12193     1   110.1900474 564.840000
  12173  12195  12179     1   112.4800480 524.673600
  12174  12177  12178     1   111.5100476 526.347200
  12174  12177  12185     1   110.1900474 564.840000
  12174  12173  12187     1   111.5100476 526.347200
  12174  12173  12195     1   107.9700462 569.024000
  12177  12178  12179     1   111.5100476 526.347200
  12177  12178  12184     1   110.1900474 564.840000
  12177  12174  12186     1   110.1900474 564.840000
  12178  12179  12183     1   107.9700462 569.024000
  12178  12179  12195     1   107.9700462 569.024000
  12178  12177  12185     1   110.1900474 564.840000
  12179  12178  12184     1   110.1900474 564.840000
  12183  12179  12195     1   108.2900466 608.353600
  12187  12173  12195     1   107.9700462 569.024000
  12196  12197  12200     1   111.5100476 526.347200
  12196  12197  12209     1   110.1900474 564.840000
  12196  12210  12216     1   110.1900474 564.840000
  12196  12218  12202     1   112.4800480 524.673600
  12197  12196  12210     1   111.5100476 526.347200
  12197  12196  12218     1   107.9700462 569.024000
  12197  12200  12201     1   111.5100476 526.347200
  12197  12200  12208     1   110.1900474 564.840000
  12200  12197  12209     1   110.1900474 564.840000
  12200  12201  12202     1   111.5100476 526.347200
  12200  12201  12207     1   110.1900474 564.840000
  12201  12200  12208     1   110.1900474 564.840000
  12201  12202  12206     1   107.9700462 569.024000
  12201  12202  12218     1   107.9700462 569.024000
  12202  12201  12207     1   110.1900474 564.840000
  12206  12202  12218     1   108.2900466 608.353600
  12210  12196  12218     1   107.9700462 569.024000
  12219  12220  12223     1   111.5100476 526.347200
  12219  12220  12232     1   110.1900474 564.840000
  12219  12233  12239     1   110.1900474 564.840000
  12219  12241  12225     1   112.4800480 524.673600
  12220  12223  12224     1   111.5100476 526.347200
  12220  12223  12231     1   110.1900474 564.840000
  12220  12219  12233     1   111.5100476 526.347200
  12220  12219  12241     1   107.9700462 569.024000
  12223  12224  12225     1   111.5100476 526.347200
  12223  12224  12230     1   110.1900474 564.840000
  12223  12220  12232     1   110.1900474 564.840000
  12224  12225  12229     1   107.9700462 569.024000
  12224  12225  12241     1   107.9700462 569.024000
  12224  12223  12231     1   110.1900474 564.840000
  12225  12224  12230     1   110.1900474 564.840000
  12229  12225  12241     1   108.2900466 608.353600
  12233  12219  12241     1   107.9700462 569.024000
  12242  12243  12246     1   111.5100476 526.347200
  12242  12243  12255     1   110.1900474 564.840000
  12242  12256  12262     1   110.1900474 564.840000
  12242  12264  12248     1   112.4800480 524.673600
  12243  12242  12256     1   111.5100476 526.347200
  12243  12242  12264     1   107.9700462 569.024000
  12243  12246  12247     1   111.5100476 526.347200
  12243  12246  12254     1   110.1900474 564.840000
  12246  12243  12255     1   110.1900474 564.840000
  12246  12247  12248     1   111.5100476 526.347200
  12246  12247  12253     1   110.1900474 564.840000
  12247  12246  12254     1   110.1900474 564.840000
  12247  12248  12252     1   107.9700462 569.024000
  12247  12248  12264     1   107.9700462 569.024000
  12248  12247  12253     1   110.1900474 564.840000
  12252  12248  12264     1   108.2900466 608.353600
  12256  12242  12264     1   107.9700462 569.024000
  12265  12266  12269     1   111.5100476 526.347200
  12265  12266  12278     1   110.1900474 564.840000
  12265  12279  12285     1   110.1900474 564.840000
  12265  12287  12271     1   112.4800480 524.673600
  12266  12269  12270     1   111.5100476 526.347200
  12266  12269  12277     1   110.1900474 564.840000
  12266  12265  12279     1   111.5100476 526.347200
  12266  12265  12287     1   107.9700462 569.024000
  12269  12270  12271     1   111.5100476 526.347200
  12269  12270  12276     1   110.1900474 564.840000
  12269  12266  12278     1   110.1900474 564.840000
  12270  12271  12275     1   107.9700462 569.024000
  12270  12271  12287     1   107.9700462 569.024000
  12270  12269  12277     1   110.1900474 564.840000
  12271  12270  12276     1   110.1900474 564.840000
  12275  12271  12287     1   108.2900466 608.353600
  12279  12265  12287     1   107.9700462 569.024000
  12288  12289  12292     1   111.5100476 526.347200
  12288  12289  12301     1   110.1900474 564.840000
  12288  12302  12308     1   110.1900474 564.840000
  12288  12310  12294     1   112.4800480 524.673600
  12289  12288  12302     1   111.5100476 526.347200
  12289  12288  12310     1   107.9700462 569.024000
  12289  12292  12293     1   111.5100476 526.347200
  12289  12292  12300     1   110.1900474 564.840000
  12292  12289  12301     1   110.1900474 564.840000
  12292  12293  12294     1   111.5100476 526.347200
  12292  12293  12299     1   110.1900474 564.840000
  12293  12292  12300     1   110.1900474 564.840000
  12293  12294  12298     1   107.9700462 569.024000
  12293  12294  12310     1   107.9700462 569.024000
  12294  12293  12299     1   110.1900474 564.840000
  12298  12294  12310     1   108.2900466 608.353600
  12302  12288  12310     1   107.9700462 569.024000
  12311  12312  12315     1   111.5100476 526.347200
  12311  12312  12324     1   110.1900474 564.840000
  12311  12325  12331     1   110.1900474 564.840000
  12311  12333  12317     1   112.4800480 524.673600
  12312  12315  12316     1   111.5100476 526.347200
  12312  12315  12323     1   110.1900474 564.840000
  12312  12311  12325     1   111.5100476 526.347200
  12312  12311  12333     1   107.9700462 569.024000
  12315  12316  12317     1   111.5100476 526.347200
  12315  12316  12322     1   110.1900474 564.840000
  12315  12312  12324     1   110.1900474 564.840000
  12316  12317  12321     1   107.9700462 569.024000
  12316  12317  12333     1   107.9700462 569.024000
  12316  12315  12323     1   110.1900474 564.840000
  12317  12316  12322     1   110.1900474 564.840000
  12321  12317  12333     1   108.2900466 608.353600
  12325  12311  12333     1   107.9700462 569.024000
  12334  12335  12338     1   111.5100476 526.347200
  12334  12335  12347     1   110.1900474 564.840000
  12334  12348  12354     1   110.1900474 564.840000
  12334  12356  12340     1   112.4800480 524.673600
  12335  12334  12348     1   111.5100476 526.347200
  12335  12334  12356     1   107.9700462 569.024000
  12335  12338  12339     1   111.5100476 526.347200
  12335  12338  12346     1   110.1900474 564.840000
  12338  12335  12347     1   110.1900474 564.840000
  12338  12339  12340     1   111.5100476 526.347200
  12338  12339  12345     1   110.1900474 564.840000
  12339  12338  12346     1   110.1900474 564.840000
  12339  12340  12344     1   107.9700462 569.024000
  12339  12340  12356     1   107.9700462 569.024000
  12340  12339  12345     1   110.1900474 564.840000
  12344  12340  12356     1   108.2900466 608.353600
  12348  12334  12356     1   107.9700462 569.024000
  12357  12358  12361     1   111.5100476 526.347200
  12357  12358  12370     1   110.1900474 564.840000
  12357  12371  12377     1   110.1900474 564.840000
  12357  12379  12363     1   112.4800480 524.673600
  12358  12361  12362     1   111.5100476 526.347200
  12358  12361  12369     1   110.1900474 564.840000
  12358  12357  12371     1   111.5100476 526.347200
  12358  12357  12379     1   107.9700462 569.024000
  12361  12362  12363     1   111.5100476 526.347200
  12361  12362  12368     1   110.1900474 564.840000
  12361  12358  12370     1   110.1900474 564.840000
  12362  12363  12367     1   107.9700462 569.024000
  12362  12363  12379     1   107.9700462 569.024000
  12362  12361  12369     1   110.1900474 564.840000
  12363  12362  12368     1   110.1900474 564.840000
  12367  12363  12379     1   108.2900466 608.353600
  12371  12357  12379     1   107.9700462 569.024000
  12380  12381  12384     1   111.5100476 526.347200
  12380  12381  12393     1   110.1900474 564.840000
  12380  12394  12400     1   110.1900474 564.840000
  12380  12402  12386     1   112.4800480 524.673600
  12381  12380  12394     1   111.5100476 526.347200
  12381  12380  12402     1   107.9700462 569.024000
  12381  12384  12385     1   111.5100476 526.347200
  12381  12384  12392     1   110.1900474 564.840000
  12384  12381  12393     1   110.1900474 564.840000
  12384  12385  12386     1   111.5100476 526.347200
  12384  12385  12391     1   110.1900474 564.840000
  12385  12384  12392     1   110.1900474 564.840000
  12385  12386  12390     1   107.9700462 569.024000
  12385  12386  12402     1   107.9700462 569.024000
  12386  12385  12391     1   110.1900474 564.840000
  12390  12386  12402     1   108.2900466 608.353600
  12394  12380  12402     1   107.9700462 569.024000
  12403  12404  12407     1   111.5100476 526.347200
  12403  12404  12416     1   110.1900474 564.840000
  12403  12417  12423     1   110.1900474 564.840000
  12403  12425  12409     1   112.4800480 524.673600
  12404  12407  12408     1   111.5100476 526.347200
  12404  12407  12415     1   110.1900474 564.840000
  12404  12403  12417     1   111.5100476 526.347200
  12404  12403  12425     1   107.9700462 569.024000
  12407  12408  12409     1   111.5100476 526.347200
  12407  12408  12414     1   110.1900474 564.840000
  12407  12404  12416     1   110.1900474 564.840000
  12408  12409  12413     1   107.9700462 569.024000
  12408  12409  12425     1   107.9700462 569.024000
  12408  12407  12415     1   110.1900474 564.840000
  12409  12408  12414     1   110.1900474 564.840000
  12413  12409  12425     1   108.2900466 608.353600
  12417  12403  12425     1   107.9700462 569.024000
  12426  12427  12430     1   111.5100476 526.347200
  12426  12427  12439     1   110.1900474 564.840000
  12426  12440  12446     1   110.1900474 564.840000
  12426  12448  12432     1   112.4800480 524.673600
  12427  12426  12440     1   111.5100476 526.347200
  12427  12426  12448     1   107.9700462 569.024000
  12427  12430  12431     1   111.5100476 526.347200
  12427  12430  12438     1   110.1900474 564.840000
  12430  12427  12439     1   110.1900474 564.840000
  12430  12431  12432     1   111.5100476 526.347200
  12430  12431  12437     1   110.1900474 564.840000
  12431  12430  12438     1   110.1900474 564.840000
  12431  12432  12436     1   107.9700462 569.024000
  12431  12432  12448     1   107.9700462 569.024000
  12432  12431  12437     1   110.1900474 564.840000
  12436  12432  12448     1   108.2900466 608.353600
  12440  12426  12448     1   107.9700462 569.024000
  12449  12450  12453     1   111.5100476 526.347200
  12449  12450  12462     1   110.1900474 564.840000
  12449  12463  12469     1   110.1900474 564.840000
  12449  12471  12455     1   112.4800480 524.673600
  12450  12453  12454     1   111.5100476 526.347200
  12450  12453  12461     1   110.1900474 564.840000
  12450  12449  12463     1   111.5100476 526.347200
  12450  12449  12471     1   107.9700462 569.024000
  12453  12454  12455     1   111.5100476 526.347200
  12453  12454  12460     1   110.1900474 564.840000
  12453  12450  12462     1   110.1900474 564.840000
  12454  12455  12459     1   107.9700462 569.024000
  12454  12455  12471     1   107.9700462 569.024000
  12454  12453  12461     1   110.1900474 564.840000
  12455  12454  12460     1   110.1900474 564.840000
  12459  12455  12471     1   108.2900466 608.353600
  12463  12449  12471     1   107.9700462 569.024000
  12472  12473  12476     1   111.5100476 526.347200
  12472  12473  12485     1   110.1900474 564.840000
  12472  12486  12492     1   110.1900474 564.840000
  12472  12494  12478     1   112.4800480 524.673600
  12473  12472  12486     1   111.5100476 526.347200
  12473  12472  12494     1   107.9700462 569.024000
  12473  12476  12477     1   111.5100476 526.347200
  12473  12476  12484     1   110.1900474 564.840000
  12476  12473  12485     1   110.1900474 564.840000
  12476  12477  12478     1   111.5100476 526.347200
  12476  12477  12483     1   110.1900474 564.840000
  12477  12476  12484     1   110.1900474 564.840000
  12477  12478  12482     1   107.9700462 569.024000
  12477  12478  12494     1   107.9700462 569.024000
  12478  12477  12483     1   110.1900474 564.840000
  12482  12478  12494     1   108.2900466 608.353600
  12486  12472  12494     1   107.9700462 569.024000
  12495  12496  12499     1   111.5100476 526.347200
  12495  12496  12508     1   110.1900474 564.840000
  12495  12509  12515     1   110.1900474 564.840000
  12495  12517  12501     1   112.4800480 524.673600
  12496  12499  12500     1   111.5100476 526.347200
  12496  12499  12507     1   110.1900474 564.840000
  12496  12495  12509     1   111.5100476 526.347200
  12496  12495  12517     1   107.9700462 569.024000
  12499  12500  12501     1   111.5100476 526.347200
  12499  12500  12506     1   110.1900474 564.840000
  12499  12496  12508     1   110.1900474 564.840000
  12500  12501  12505     1   107.9700462 569.024000
  12500  12501  12517     1   107.9700462 569.024000
  12500  12499  12507     1   110.1900474 564.840000
  12501  12500  12506     1   110.1900474 564.840000
  12505  12501  12517     1   108.2900466 608.353600
  12509  12495  12517     1   107.9700462 569.024000
  12518  12519  12522     1   111.5100476 526.347200
  12518  12519  12531     1   110.1900474 564.840000
  12518  12532  12538     1   110.1900474 564.840000
  12518  12540  12524     1   112.4800480 524.673600
  12519  12518  12532     1   111.5100476 526.347200
  12519  12518  12540     1   107.9700462 569.024000
  12519  12522  12523     1   111.5100476 526.347200
  12519  12522  12530     1   110.1900474 564.840000
  12522  12519  12531     1   110.1900474 564.840000
  12522  12523  12524     1   111.5100476 526.347200
  12522  12523  12529     1   110.1900474 564.840000
  12523  12522  12530     1   110.1900474 564.840000
  12523  12524  12528     1   107.9700462 569.024000
  12523  12524  12540     1   107.9700462 569.024000
  12524  12523  12529     1   110.1900474 564.840000
  12528  12524  12540     1   108.2900466 608.353600
  12532  12518  12540     1   107.9700462 569.024000
  12541  12542  12545     1   111.5100476 526.347200
  12541  12542  12554     1   110.1900474 564.840000
  12541  12555  12561     1   110.1900474 564.840000
  12541  12563  12547     1   112.4800480 524.673600
  12542  12545  12546     1   111.5100476 526.347200
  12542  12545  12553     1   110.1900474 564.840000
  12542  12541  12555     1   111.5100476 526.347200
  12542  12541  12563     1   107.9700462 569.024000
  12545  12546  12547     1   111.5100476 526.347200
  12545  12546  12552     1   110.1900474 564.840000
  12545  12542  12554     1   110.1900474 564.840000
  12546  12547  12551     1   107.9700462 569.024000
  12546  12547  12563     1   107.9700462 569.024000
  12546  12545  12553     1   110.1900474 564.840000
  12547  12546  12552     1   110.1900474 564.840000
  12551  12547  12563     1   108.2900466 608.353600
  12555  12541  12563     1   107.9700462 569.024000
  12564  12565  12568     1   111.5100476 526.347200
  12564  12565  12577     1   110.1900474 564.840000
  12564  12578  12584     1   110.1900474 564.840000
  12564  12586  12570     1   112.4800480 524.673600
  12565  12564  12578     1   111.5100476 526.347200
  12565  12564  12586     1   107.9700462 569.024000
  12565  12568  12569     1   111.5100476 526.347200
  12565  12568  12576     1   110.1900474 564.840000
  12568  12565  12577     1   110.1900474 564.840000
  12568  12569  12570     1   111.5100476 526.347200
  12568  12569  12575     1   110.1900474 564.840000
  12569  12568  12576     1   110.1900474 564.840000
  12569  12570  12574     1   107.9700462 569.024000
  12569  12570  12586     1   107.9700462 569.024000
  12570  12569  12575     1   110.1900474 564.840000
  12574  12570  12586     1   108.2900466 608.353600
  12578  12564  12586     1   107.9700462 569.024000
  12587  12588  12591     1   111.5100476 526.347200
  12587  12588  12600     1   110.1900474 564.840000
  12587  12601  12607     1   110.1900474 564.840000
  12587  12609  12593     1   112.4800480 524.673600
  12588  12591  12592     1   111.5100476 526.347200
  12588  12591  12599     1   110.1900474 564.840000
  12588  12587  12601     1   111.5100476 526.347200
  12588  12587  12609     1   107.9700462 569.024000
  12591  12592  12593     1   111.5100476 526.347200
  12591  12592  12598     1   110.1900474 564.840000
  12591  12588  12600     1   110.1900474 564.840000
  12592  12593  12597     1   107.9700462 569.024000
  12592  12593  12609     1   107.9700462 569.024000
  12592  12591  12599     1   110.1900474 564.840000
  12593  12592  12598     1   110.1900474 564.840000
  12597  12593  12609     1   108.2900466 608.353600
  12601  12587  12609     1   107.9700462 569.024000
  12610  12611  12614     1   111.5100476 526.347200
  12610  12611  12623     1   110.1900474 564.840000
  12610  12624  12630     1   110.1900474 564.840000
  12610  12632  12616     1   112.4800480 524.673600
  12611  12610  12624     1   111.5100476 526.347200
  12611  12610  12632     1   107.9700462 569.024000
  12611  12614  12615     1   111.5100476 526.347200
  12611  12614  12622     1   110.1900474 564.840000
  12614  12611  12623     1   110.1900474 564.840000
  12614  12615  12616     1   111.5100476 526.347200
  12614  12615  12621     1   110.1900474 564.840000
  12615  12614  12622     1   110.1900474 564.840000
  12615  12616  12620     1   107.9700462 569.024000
  12615  12616  12632     1   107.9700462 569.024000
  12616  12615  12621     1   110.1900474 564.840000
  12620  12616  12632     1   108.2900466 608.353600
  12624  12610  12632     1   107.9700462 569.024000
  12633  12634  12637     1   111.5100476 526.347200
  12633  12634  12646     1   110.1900474 564.840000
  12633  12647  12653     1   110.1900474 564.840000
  12633  12655  12639     1   112.4800480 524.673600
  12634  12637  12638     1   111.5100476 526.347200
  12634  12637  12645     1   110.1900474 564.840000
  12634  12633  12647     1   111.5100476 526.347200
  12634  12633  12655     1   107.9700462 569.024000
  12637  12638  12639     1   111.5100476 526.347200
  12637  12638  12644     1   110.1900474 564.840000
  12637  12634  12646     1   110.1900474 564.840000
  12638  12639  12643     1   107.9700462 569.024000
  12638  12639  12655     1   107.9700462 569.024000
  12638  12637  12645     1   110.1900474 564.840000
  12639  12638  12644     1   110.1900474 564.840000
  12643  12639  12655     1   108.2900466 608.353600
  12647  12633  12655     1   107.9700462 569.024000
  12656  12657  12660     1   111.5100476 526.347200
  12656  12657  12669     1   110.1900474 564.840000
  12656  12670  12676     1   110.1900474 564.840000
  12656  12678  12662     1   112.4800480 524.673600
  12657  12656  12670     1   111.5100476 526.347200
  12657  12656  12678     1   107.9700462 569.024000
  12657  12660  12661     1   111.5100476 526.347200
  12657  12660  12668     1   110.1900474 564.840000
  12660  12657  12669     1   110.1900474 564.840000
  12660  12661  12662     1   111.5100476 526.347200
  12660  12661  12667     1   110.1900474 564.840000
  12661  12660  12668     1   110.1900474 564.840000
  12661  12662  12666     1   107.9700462 569.024000
  12661  12662  12678     1   107.9700462 569.024000
  12662  12661  12667     1   110.1900474 564.840000
  12666  12662  12678     1   108.2900466 608.353600
  12670  12656  12678     1   107.9700462 569.024000
  12679  12680  12683     1   111.5100476 526.347200
  12679  12680  12692     1   110.1900474 564.840000
  12679  12693  12699     1   110.1900474 564.840000
  12679  12701  12685     1   112.4800480 524.673600
  12680  12683  12684     1   111.5100476 526.347200
  12680  12683  12691     1   110.1900474 564.840000
  12680  12679  12693     1   111.5100476 526.347200
  12680  12679  12701     1   107.9700462 569.024000
  12683  12684  12685     1   111.5100476 526.347200
  12683  12684  12690     1   110.1900474 564.840000
  12683  12680  12692     1   110.1900474 564.840000
  12684  12685  12689     1   107.9700462 569.024000
  12684  12685  12701     1   107.9700462 569.024000
  12684  12683  12691     1   110.1900474 564.840000
  12685  12684  12690     1   110.1900474 564.840000
  12689  12685  12701     1   108.2900466 608.353600
  12693  12679  12701     1   107.9700462 569.024000
  12702  12703  12706     1   111.5100476 526.347200
  12702  12703  12715     1   110.1900474 564.840000
  12702  12716  12722     1   110.1900474 564.840000
  12702  12724  12708     1   112.4800480 524.673600
  12703  12702  12716     1   111.5100476 526.347200
  12703  12702  12724     1   107.9700462 569.024000
  12703  12706  12707     1   111.5100476 526.347200
  12703  12706  12714     1   110.1900474 564.840000
  12706  12703  12715     1   110.1900474 564.840000
  12706  12707  12708     1   111.5100476 526.347200
  12706  12707  12713     1   110.1900474 564.840000
  12707  12706  12714     1   110.1900474 564.840000
  12707  12708  12712     1   107.9700462 569.024000
  12707  12708  12724     1   107.9700462 569.024000
  12708  12707  12713     1   110.1900474 564.840000
  12712  12708  12724     1   108.2900466 608.353600
  12716  12702  12724     1   107.9700462 569.024000
  12725  12726  12729     1   111.5100476 526.347200
  12725  12726  12738     1   110.1900474 564.840000
  12725  12739  12745     1   110.1900474 564.840000
  12725  12747  12731     1   112.4800480 524.673600
  12726  12729  12730     1   111.5100476 526.347200
  12726  12729  12737     1   110.1900474 564.840000
  12726  12725  12739     1   111.5100476 526.347200
  12726  12725  12747     1   107.9700462 569.024000
  12729  12730  12731     1   111.5100476 526.347200
  12729  12730  12736     1   110.1900474 564.840000
  12729  12726  12738     1   110.1900474 564.840000
  12730  12731  12735     1   107.9700462 569.024000
  12730  12731  12747     1   107.9700462 569.024000
  12730  12729  12737     1   110.1900474 564.840000
  12731  12730  12736     1   110.1900474 564.840000
  12735  12731  12747     1   108.2900466 608.353600
  12739  12725  12747     1   107.9700462 569.024000
  12748  12749  12752     1   111.5100476 526.347200
  12748  12749  12761     1   110.1900474 564.840000
  12748  12762  12768     1   110.1900474 564.840000
  12748  12770  12754     1   112.4800480 524.673600
  12749  12748  12762     1   111.5100476 526.347200
  12749  12748  12770     1   107.9700462 569.024000
  12749  12752  12753     1   111.5100476 526.347200
  12749  12752  12760     1   110.1900474 564.840000
  12752  12749  12761     1   110.1900474 564.840000
  12752  12753  12754     1   111.5100476 526.347200
  12752  12753  12759     1   110.1900474 564.840000
  12753  12752  12760     1   110.1900474 564.840000
  12753  12754  12758     1   107.9700462 569.024000
  12753  12754  12770     1   107.9700462 569.024000
  12754  12753  12759     1   110.1900474 564.840000
  12758  12754  12770     1   108.2900466 608.353600
  12762  12748  12770     1   107.9700462 569.024000
  12771  12772  12775     1   111.5100476 526.347200
  12771  12772  12784     1   110.1900474 564.840000
  12771  12785  12791     1   110.1900474 564.840000
  12771  12793  12777     1   112.4800480 524.673600
  12772  12775  12776     1   111.5100476 526.347200
  12772  12775  12783     1   110.1900474 564.840000
  12772  12771  12785     1   111.5100476 526.347200
  12772  12771  12793     1   107.9700462 569.024000
  12775  12776  12777     1   111.5100476 526.347200
  12775  12776  12782     1   110.1900474 564.840000
  12775  12772  12784     1   110.1900474 564.840000
  12776  12777  12781     1   107.9700462 569.024000
  12776  12777  12793     1   107.9700462 569.024000
  12776  12775  12783     1   110.1900474 564.840000
  12777  12776  12782     1   110.1900474 564.840000
  12781  12777  12793     1   108.2900466 608.353600
  12785  12771  12793     1   107.9700462 569.024000
  12794  12795  12798     1   111.5100476 526.347200
  12794  12795  12807     1   110.1900474 564.840000
  12794  12808  12814     1   110.1900474 564.840000
  12794  12816  12800     1   112.4800480 524.673600
  12795  12794  12808     1   111.5100476 526.347200
  12795  12794  12816     1   107.9700462 569.024000
  12795  12798  12799     1   111.5100476 526.347200
  12795  12798  12806     1   110.1900474 564.840000
  12798  12795  12807     1   110.1900474 564.840000
  12798  12799  12800     1   111.5100476 526.347200
  12798  12799  12805     1   110.1900474 564.840000
  12799  12798  12806     1   110.1900474 564.840000
  12799  12800  12804     1   107.9700462 569.024000
  12799  12800  12816     1   107.9700462 569.024000
  12800  12799  12805     1   110.1900474 564.840000
  12804  12800  12816     1   108.2900466 608.353600
  12808  12794  12816     1   107.9700462 569.024000
  12817  12818  12821     1   111.5100476 526.347200
  12817  12818  12830     1   110.1900474 564.840000
  12817  12831  12837     1   110.1900474 564.840000
  12817  12839  12823     1   112.4800480 524.673600
  12818  12821  12822     1   111.5100476 526.347200
  12818  12821  12829     1   110.1900474 564.840000
  12818  12817  12831     1   111.5100476 526.347200
  12818  12817  12839     1   107.9700462 569.024000
  12821  12822  12823     1   111.5100476 526.347200
  12821  12822  12828     1   110.1900474 564.840000
  12821  12818  12830     1   110.1900474 564.840000
  12822  12823  12827     1   107.9700462 569.024000
  12822  12823  12839     1   107.9700462 569.024000
  12822  12821  12829     1   110.1900474 564.840000
  12823  12822  12828     1   110.1900474 564.840000
  12827  12823  12839     1   108.2900466 608.353600
  12831  12817  12839     1   107.9700462 569.024000
  12840  12841  12844     1   111.5100476 526.347200
  12840  12841  12853     1   110.1900474 564.840000
  12840  12854  12860     1   110.1900474 564.840000
  12840  12862  12846     1   112.4800480 524.673600
  12841  12840  12854     1   111.5100476 526.347200
  12841  12840  12862     1   107.9700462 569.024000
  12841  12844  12845     1   111.5100476 526.347200
  12841  12844  12852     1   110.1900474 564.840000
  12844  12841  12853     1   110.1900474 564.840000
  12844  12845  12846     1   111.5100476 526.347200
  12844  12845  12851     1   110.1900474 564.840000
  12845  12844  12852     1   110.1900474 564.840000
  12845  12846  12850     1   107.9700462 569.024000
  12845  12846  12862     1   107.9700462 569.024000
  12846  12845  12851     1   110.1900474 564.840000
  12850  12846  12862     1   108.2900466 608.353600
  12854  12840  12862     1   107.9700462 569.024000
  12863  12864  12867     1   111.5100476 526.347200
  12863  12864  12876     1   110.1900474 564.840000
  12863  12877  12883     1   110.1900474 564.840000
  12863  12885  12869     1   112.4800480 524.673600
  12864  12867  12868     1   111.5100476 526.347200
  12864  12867  12875     1   110.1900474 564.840000
  12864  12863  12877     1   111.5100476 526.347200
  12864  12863  12885     1   107.9700462 569.024000
  12867  12868  12869     1   111.5100476 526.347200
  12867  12868  12874     1   110.1900474 564.840000
  12867  12864  12876     1   110.1900474 564.840000
  12868  12869  12873     1   107.9700462 569.024000
  12868  12869  12885     1   107.9700462 569.024000
  12868  12867  12875     1   110.1900474 564.840000
  12869  12868  12874     1   110.1900474 564.840000
  12873  12869  12885     1   108.2900466 608.353600
  12877  12863  12885     1   107.9700462 569.024000
  12886  12887  12890     1   111.5100476 526.347200
  12886  12887  12899     1   110.1900474 564.840000
  12886  12900  12906     1   110.1900474 564.840000
  12886  12908  12892     1   112.4800480 524.673600
  12887  12886  12900     1   111.5100476 526.347200
  12887  12886  12908     1   107.9700462 569.024000
  12887  12890  12891     1   111.5100476 526.347200
  12887  12890  12898     1   110.1900474 564.840000
  12890  12887  12899     1   110.1900474 564.840000
  12890  12891  12892     1   111.5100476 526.347200
  12890  12891  12897     1   110.1900474 564.840000
  12891  12890  12898     1   110.1900474 564.840000
  12891  12892  12896     1   107.9700462 569.024000
  12891  12892  12908     1   107.9700462 569.024000
  12892  12891  12897     1   110.1900474 564.840000
  12896  12892  12908     1   108.2900466 608.353600
  12900  12886  12908     1   107.9700462 569.024000
  12909  12910  12913     1   111.5100476 526.347200
  12909  12910  12922     1   110.1900474 564.840000
  12909  12923  12929     1   110.1900474 564.840000
  12909  12931  12915     1   112.4800480 524.673600
  12910  12913  12914     1   111.5100476 526.347200
  12910  12913  12921     1   110.1900474 564.840000
  12910  12909  12923     1   111.5100476 526.347200
  12910  12909  12931     1   107.9700462 569.024000
  12913  12914  12915     1   111.5100476 526.347200
  12913  12914  12920     1   110.1900474 564.840000
  12913  12910  12922     1   110.1900474 564.840000
  12914  12915  12919     1   107.9700462 569.024000
  12914  12915  12931     1   107.9700462 569.024000
  12914  12913  12921     1   110.1900474 564.840000
  12915  12914  12920     1   110.1900474 564.840000
  12919  12915  12931     1   108.2900466 608.353600
  12923  12909  12931     1   107.9700462 569.024000
  12932  12933  12936     1   111.5100476 526.347200
  12932  12933  12945     1   110.1900474 564.840000
  12932  12946  12952     1   110.1900474 564.840000
  12932  12954  12938     1   112.4800480 524.673600
  12933  12932  12946     1   111.5100476 526.347200
  12933  12932  12954     1   107.9700462 569.024000
  12933  12936  12937     1   111.5100476 526.347200
  12933  12936  12944     1   110.1900474 564.840000
  12936  12933  12945     1   110.1900474 564.840000
  12936  12937  12938     1   111.5100476 526.347200
  12936  12937  12943     1   110.1900474 564.840000
  12937  12936  12944     1   110.1900474 564.840000
  12937  12938  12942     1   107.9700462 569.024000
  12937  12938  12954     1   107.9700462 569.024000
  12938  12937  12943     1   110.1900474 564.840000
  12942  12938  12954     1   108.2900466 608.353600
  12946  12932  12954     1   107.9700462 569.024000
  12955  12956  12959     1   111.5100476 526.347200
  12955  12956  12968     1   110.1900474 564.840000
  12955  12969  12975     1   110.1900474 564.840000
  12955  12977  12961     1   112.4800480 524.673600
  12956  12959  12960     1   111.5100476 526.347200
  12956  12959  12967     1   110.1900474 564.840000
  12956  12955  12969     1   111.5100476 526.347200
  12956  12955  12977     1   107.9700462 569.024000
  12959  12960  12961     1   111.5100476 526.347200
  12959  12960  12966     1   110.1900474 564.840000
  12959  12956  12968     1   110.1900474 564.840000
  12960  12961  12965     1   107.9700462 569.024000
  12960  12961  12977     1   107.9700462 569.024000
  12960  12959  12967     1   110.1900474 564.840000
  12961  12960  12966     1   110.1900474 564.840000
  12965  12961  12977     1   108.2900466 608.353600
  12969  12955  12977     1   107.9700462 569.024000
  12978  12979  12982     1   111.5100476 526.347200
  12978  12979  12991     1   110.1900474 564.840000
  12978  12992  12998     1   110.1900474 564.840000
  12978  13000  12984     1   112.4800480 524.673600
  12979  12978  12992     1   111.5100476 526.347200
  12979  12978  13000     1   107.9700462 569.024000
  12979  12982  12983     1   111.5100476 526.347200
  12979  12982  12990     1   110.1900474 564.840000
  12982  12979  12991     1   110.1900474 564.840000
  12982  12983  12984     1   111.5100476 526.347200
  12982  12983  12989     1   110.1900474 564.840000
  12983  12982  12990     1   110.1900474 564.840000
  12983  12984  12988     1   107.9700462 569.024000
  12983  12984  13000     1   107.9700462 569.024000
  12984  12983  12989     1   110.1900474 564.840000
  12988  12984  13000     1   108.2900466 608.353600
  12992  12978  13000     1   107.9700462 569.024000
  13001  13002  13005     1   111.5100476 526.347200
  13001  13002  13014     1   110.1900474 564.840000
  13001  13015  13021     1   110.1900474 564.840000
  13001  13023  13007     1   112.4800480 524.673600
  13002  13005  13006     1   111.5100476 526.347200
  13002  13005  13013     1   110.1900474 564.840000
  13002  13001  13015     1   111.5100476 526.347200
  13002  13001  13023     1   107.9700462 569.024000
  13005  13006  13007     1   111.5100476 526.347200
  13005  13006  13012     1   110.1900474 564.840000
  13005  13002  13014     1   110.1900474 564.840000
  13006  13007  13011     1   107.9700462 569.024000
  13006  13007  13023     1   107.9700462 569.024000
  13006  13005  13013     1   110.1900474 564.840000
  13007  13006  13012     1   110.1900474 564.840000
  13011  13007  13023     1   108.2900466 608.353600
  13015  13001  13023     1   107.9700462 569.024000
  13024  13025  13028     1   111.5100476 526.347200
  13024  13025  13037     1   110.1900474 564.840000
  13024  13038  13044     1   110.1900474 564.840000
  13024  13046  13030     1   112.4800480 524.673600
  13025  13024  13038     1   111.5100476 526.347200
  13025  13024  13046     1   107.9700462 569.024000
  13025  13028  13029     1   111.5100476 526.347200
  13025  13028  13036     1   110.1900474 564.840000
  13028  13025  13037     1   110.1900474 564.840000
  13028  13029  13030     1   111.5100476 526.347200
  13028  13029  13035     1   110.1900474 564.840000
  13029  13028  13036     1   110.1900474 564.840000
  13029  13030  13034     1   107.9700462 569.024000
  13029  13030  13046     1   107.9700462 569.024000
  13030  13029  13035     1   110.1900474 564.840000
  13034  13030  13046     1   108.2900466 608.353600
  13038  13024  13046     1   107.9700462 569.024000
  13047  13048  13051     1   111.5100476 526.347200
  13047  13048  13060     1   110.1900474 564.840000
  13047  13061  13067     1   110.1900474 564.840000
  13047  13069  13053     1   112.4800480 524.673600
  13048  13051  13052     1   111.5100476 526.347200
  13048  13051  13059     1   110.1900474 564.840000
  13048  13047  13061     1   111.5100476 526.347200
  13048  13047  13069     1   107.9700462 569.024000
  13051  13052  13053     1   111.5100476 526.347200
  13051  13052  13058     1   110.1900474 564.840000
  13051  13048  13060     1   110.1900474 564.840000
  13052  13053  13057     1   107.9700462 569.024000
  13052  13053  13069     1   107.9700462 569.024000
  13052  13051  13059     1   110.1900474 564.840000
  13053  13052  13058     1   110.1900474 564.840000
  13057  13053  13069     1   108.2900466 608.353600
  13061  13047  13069     1   107.9700462 569.024000
  13070  13071  13074     1   111.5100476 526.347200
  13070  13071  13083     1   110.1900474 564.840000
  13070  13084  13090     1   110.1900474 564.840000
  13070  13092  13076     1   112.4800480 524.673600
  13071  13070  13084     1   111.5100476 526.347200
  13071  13070  13092     1   107.9700462 569.024000
  13071  13074  13075     1   111.5100476 526.347200
  13071  13074  13082     1   110.1900474 564.840000
  13074  13071  13083     1   110.1900474 564.840000
  13074  13075  13076     1   111.5100476 526.347200
  13074  13075  13081     1   110.1900474 564.840000
  13075  13074  13082     1   110.1900474 564.840000
  13075  13076  13080     1   107.9700462 569.024000
  13075  13076  13092     1   107.9700462 569.024000
  13076  13075  13081     1   110.1900474 564.840000
  13080  13076  13092     1   108.2900466 608.353600
  13084  13070  13092     1   107.9700462 569.024000
  13093  13094  13097     1   111.5100476 526.347200
  13093  13094  13106     1   110.1900474 564.840000
  13093  13107  13113     1   110.1900474 564.840000
  13093  13115  13099     1   112.4800480 524.673600
  13094  13097  13098     1   111.5100476 526.347200
  13094  13097  13105     1   110.1900474 564.840000
  13094  13093  13107     1   111.5100476 526.347200
  13094  13093  13115     1   107.9700462 569.024000
  13097  13098  13099     1   111.5100476 526.347200
  13097  13098  13104     1   110.1900474 564.840000
  13097  13094  13106     1   110.1900474 564.840000
  13098  13099  13103     1   107.9700462 569.024000
  13098  13099  13115     1   107.9700462 569.024000
  13098  13097  13105     1   110.1900474 564.840000
  13099  13098  13104     1   110.1900474 564.840000
  13103  13099  13115     1   108.2900466 608.353600
  13107  13093  13115     1   107.9700462 569.024000
  13116  13117  13120     1   111.5100476 526.347200
  13116  13117  13129     1   110.1900474 564.840000
  13116  13130  13136     1   110.1900474 564.840000
  13116  13138  13122     1   112.4800480 524.673600
  13117  13116  13130     1   111.5100476 526.347200
  13117  13116  13138     1   107.9700462 569.024000
  13117  13120  13121     1   111.5100476 526.347200
  13117  13120  13128     1   110.1900474 564.840000
  13120  13117  13129     1   110.1900474 564.840000
  13120  13121  13122     1   111.5100476 526.347200
  13120  13121  13127     1   110.1900474 564.840000
  13121  13120  13128     1   110.1900474 564.840000
  13121  13122  13126     1   107.9700462 569.024000
  13121  13122  13138     1   107.9700462 569.024000
  13122  13121  13127     1   110.1900474 564.840000
  13126  13122  13138     1   108.2900466 608.353600
  13130  13116  13138     1   107.9700462 569.024000
  13139  13140  13143     1   111.5100476 526.347200
  13139  13140  13152     1   110.1900474 564.840000
  13139  13153  13159     1   110.1900474 564.840000
  13139  13161  13145     1   112.4800480 524.673600
  13140  13143  13144     1   111.5100476 526.347200
  13140  13143  13151     1   110.1900474 564.840000
  13140  13139  13153     1   111.5100476 526.347200
  13140  13139  13161     1   107.9700462 569.024000
  13143  13144  13145     1   111.5100476 526.347200
  13143  13144  13150     1   110.1900474 564.840000
  13143  13140  13152     1   110.1900474 564.840000
  13144  13145  13149     1   107.9700462 569.024000
  13144  13145  13161     1   107.9700462 569.024000
  13144  13143  13151     1   110.1900474 564.840000
  13145  13144  13150     1   110.1900474 564.840000
  13149  13145  13161     1   108.2900466 608.353600
  13153  13139  13161     1   107.9700462 569.024000
  13162  13163  13166     1   111.5100476 526.347200
  13162  13163  13175     1   110.1900474 564.840000
  13162  13176  13182     1   110.1900474 564.840000
  13162  13184  13168     1   112.4800480 524.673600
  13163  13162  13176     1   111.5100476 526.347200
  13163  13162  13184     1   107.9700462 569.024000
  13163  13166  13167     1   111.5100476 526.347200
  13163  13166  13174     1   110.1900474 564.840000
  13166  13163  13175     1   110.1900474 564.840000
  13166  13167  13168     1   111.5100476 526.347200
  13166  13167  13173     1   110.1900474 564.840000
  13167  13166  13174     1   110.1900474 564.840000
  13167  13168  13172     1   107.9700462 569.024000
  13167  13168  13184     1   107.9700462 569.024000
  13168  13167  13173     1   110.1900474 564.840000
  13172  13168  13184     1   108.2900466 608.353600
  13176  13162  13184     1   107.9700462 569.024000
  13185  13186  13189     1   111.5100476 526.347200
  13185  13186  13198     1   110.1900474 564.840000
  13185  13199  13205     1   110.1900474 564.840000
  13185  13207  13191     1   112.4800480 524.673600
  13186  13189  13190     1   111.5100476 526.347200
  13186  13189  13197     1   110.1900474 564.840000
  13186  13185  13199     1   111.5100476 526.347200
  13186  13185  13207     1   107.9700462 569.024000
  13189  13190  13191     1   111.5100476 526.347200
  13189  13190  13196     1   110.1900474 564.840000
  13189  13186  13198     1   110.1900474 564.840000
  13190  13191  13195     1   107.9700462 569.024000
  13190  13191  13207     1   107.9700462 569.024000
  13190  13189  13197     1   110.1900474 564.840000
  13191  13190  13196     1   110.1900474 564.840000
  13195  13191  13207     1   108.2900466 608.353600
  13199  13185  13207     1   107.9700462 569.024000
  13208  13209  13212     1   111.5100476 526.347200
  13208  13209  13221     1   110.1900474 564.840000
  13208  13222  13228     1   110.1900474 564.840000
  13208  13230  13214     1   112.4800480 524.673600
  13209  13208  13222     1   111.5100476 526.347200
  13209  13208  13230     1   107.9700462 569.024000
  13209  13212  13213     1   111.5100476 526.347200
  13209  13212  13220     1   110.1900474 564.840000
  13212  13209  13221     1   110.1900474 564.840000
  13212  13213  13214     1   111.5100476 526.347200
  13212  13213  13219     1   110.1900474 564.840000
  13213  13212  13220     1   110.1900474 564.840000
  13213  13214  13218     1   107.9700462 569.024000
  13213  13214  13230     1   107.9700462 569.024000
  13214  13213  13219     1   110.1900474 564.840000
  13218  13214  13230     1   108.2900466 608.353600
  13222  13208  13230     1   107.9700462 569.024000
  13231  13232  13235     1   111.5100476 526.347200
  13231  13232  13244     1   110.1900474 564.840000
  13231  13245  13251     1   110.1900474 564.840000
  13231  13253  13237     1   112.4800480 524.673600
  13232  13235  13236     1   111.5100476 526.347200
  13232  13235  13243     1   110.1900474 564.840000
  13232  13231  13245     1   111.5100476 526.347200
  13232  13231  13253     1   107.9700462 569.024000
  13235  13236  13237     1   111.5100476 526.347200
  13235  13236  13242     1   110.1900474 564.840000
  13235  13232  13244     1   110.1900474 564.840000
  13236  13237  13241     1   107.9700462 569.024000
  13236  13237  13253     1   107.9700462 569.024000
  13236  13235  13243     1   110.1900474 564.840000
  13237  13236  13242     1   110.1900474 564.840000
  13241  13237  13253     1   108.2900466 608.353600
  13245  13231  13253     1   107.9700462 569.024000
      1      2      3     1   109.7800468 425.094400
      1      2      4     1   109.7800468 425.094400
      1      5      6     1   109.7800468 425.094400
      1      5      7     1   109.7800468 425.094400
      2      8      9     1   109.8000471 387.438400
      2      8     10     1   109.8000471 387.438400
      3      2      8     1   109.5600471 388.275200
      3      2      4     1   108.4600466 328.025600
      4      2      8     1   109.5600471 388.275200
      5     11     12     1   109.8000471 387.438400
      5     11     13     1   109.8000471 387.438400
      6      5     11     1   109.5600471 388.275200
      6      5      7     1   108.4600466 328.025600
      7      5     11     1   109.5600471 388.275200
      8     14     15     1   109.5600471 388.275200
      8     14     16     1   109.5600471 388.275200
      9      8     14     1   109.8000471 387.438400
      9      8     10     1   107.5800459 329.699200
     10      8     14     1   109.8000471 387.438400
     11     17     18     1   109.5600471 388.275200
     11     17     19     1   109.5600471 388.275200
     12     11     17     1   109.8000471 387.438400
     12     11     13     1   107.5800459 329.699200
     13     11     17     1   109.8000471 387.438400
     15     14     20     1   109.8800469 414.216000
     15     14     16     1   108.4600466 328.025600
     16     14     20     1   109.8800469 414.216000
     18     17     21     1   109.8800469 414.216000
     18     17     19     1   108.4600466 328.025600
     19     17     21     1   109.8800469 414.216000
     20     28     29     1   109.8800469 414.216000
     20     28     30     1   109.8800469 414.216000
     20     31     32     1   109.8800469 414.216000
     20     31     33     1   109.8800469 414.216000
     21     22     23     1   109.8800469 414.216000
     21     22     24     1   109.8800469 414.216000
     21     25     26     1   109.8800469 414.216000
     21     25     27     1   109.8800469 414.216000
     22     34     35     1   109.8000471 387.438400
     22     34     36     1   109.8000471 387.438400
     23     22     34     1   109.5600471 388.275200
     23     22     24     1   108.4600466 328.025600
     24     22     34     1   109.5600471 388.275200
     25     37     38     1   109.8000471 387.438400
     25     37     39     1   109.8000471 387.438400
     26     25     37     1   109.5600471 388.275200
     26     25     27     1   108.4600466 328.025600
     27     25     37     1   109.5600471 388.275200
     28     40     41     1   109.8000471 387.438400
     28     40     42     1   109.8000471 387.438400
     29     28     40     1   109.5600471 388.275200
     29     28     30     1   108.4600466 328.025600
     30     28     40     1   109.5600471 388.275200
     31     43     44     1   109.8000471 387.438400
     31     43     45     1   109.8000471 387.438400
     32     31     43     1   109.5600471 388.275200
     32     31     33     1   108.4600466 328.025600
     33     31     43     1   109.5600471 388.275200
     34     55     56     1   109.5600471 388.275200
     34     55     57     1   109.5600471 388.275200
     35     34     55     1   109.8000471 387.438400
     35     34     36     1   107.5800459 329.699200
     36     34     55     1   109.8000471 387.438400
     37     52     53     1   109.5600471 388.275200
     37     52     54     1   109.5600471 388.275200
     38     37     52     1   109.8000471 387.438400
     38     37     39     1   107.5800459 329.699200
     39     37     52     1   109.8000471 387.438400
     40     49     50     1   109.5600471 388.275200
     40     49     51     1   109.5600471 388.275200
     41     40     49     1   109.8000471 387.438400
     41     40     42     1   107.5800459 329.699200
     42     40     49     1   109.8000471 387.438400
     43     46     47     1   109.5600471 388.275200
     43     46     48     1   109.5600471 388.275200
     44     43     46     1   109.8000471 387.438400
     44     43     45     1   107.5800459 329.699200
     45     43     46     1   109.8000471 387.438400
     47     46     86     1   109.7800468 425.094400
     47     46     48     1   108.4600466 328.025600
     48     46     86     1   109.7800468 425.094400
     50     49    115     1   109.7800468 425.094400
     50     49     51     1   108.4600466 328.025600
     51     49    115     1   109.7800468 425.094400
     53     52    144     1   109.7800468 425.094400
     53     52     54     1   108.4600466 328.025600
     54     52    144     1   109.7800468 425.094400
     56     55    173     1   109.7800468 425.094400
     56     55     57     1   108.4600466 328.025600
     57     55    173     1   109.7800468 425.094400
     58     59     60     1   109.8800469 414.216000
     58     59     61     1   109.8800469 414.216000
     58     62     63     1   109.8800469 414.216000
     58     62     64     1   109.8800469 414.216000
     58     65     66     1   109.8800469 414.216000
     58     65     67     1   109.8800469 414.216000
     59     71     72     1   109.8000471 387.438400
     59     71     73     1   109.8000471 387.438400
     60     59     71     1   109.5600471 388.275200
     60     59     61     1   108.4600466 328.025600
     61     59     71     1   109.5600471 388.275200
     62     74     75     1   109.8000471 387.438400
     62     74     76     1   109.8000471 387.438400
     63     62     74     1   109.5600471 388.275200
     63     62     64     1   108.4600466 328.025600
     64     62     74     1   109.5600471 388.275200
     65     68     69     1   109.8000471 387.438400
     65     68     70     1   109.8000471 387.438400
     66     65     68     1   109.5600471 388.275200
     66     65     67     1   108.4600466 328.025600
     67     65     68     1   109.5600471 388.275200
     68     77     78     1   109.5600471 388.275200
     68     77     79     1   109.5600471 388.275200
     69     68     77     1   109.8000471 387.438400
     69     68     70     1   107.5800459 329.699200
     70     68     77     1   109.8000471 387.438400
     71     83     84     1   109.5600471 388.275200
     71     83     85     1   109.5600471 388.275200
     72     71     83     1   109.8000471 387.438400
     72     71     73     1   107.5800459 329.699200
     73     71     83     1   109.8000471 387.438400
     74     80     81     1   109.5600471 388.275200
     74     80     82     1   109.5600471 388.275200
     75     74     80     1   109.8000471 387.438400
     75     74     76     1   107.5800459 329.699200
     76     74     80     1   109.8000471 387.438400
     78     77     86     1   109.7800468 425.094400
     78     77     79     1   108.4600466 328.025600
     79     77     86     1   109.7800468 425.094400
     81     80    202     1   109.7800468 425.094400
     81     80     82     1   108.4600466 328.025600
     82     80    202     1   109.7800468 425.094400
     84     83    231     1   109.7800468 425.094400
     84     83     85     1   108.4600466 328.025600
     85     83    231     1   109.7800468 425.094400
     87     88     89     1   109.8800469 414.216000
     87     88     90     1   109.8800469 414.216000
     87     91     92     1   109.8800469 414.216000
     87     91     93     1   109.8800469 414.216000
     87     94     95     1   109.8800469 414.216000
     87     94     96     1   109.8800469 414.216000
     88    100    101     1   109.8000471 387.438400
     88    100    102     1   109.8000471 387.438400
     89     88    100     1   109.5600471 388.275200
     89     88     90     1   108.4600466 328.025600
     90     88    100     1   109.5600471 388.275200
     91    103    104     1   109.8000471 387.438400
     91    103    105     1   109.8000471 387.438400
     92     91    103     1   109.5600471 388.275200
     92     91     93     1   108.4600466 328.025600
     93     91    103     1   109.5600471 388.275200
     94     97     98     1   109.8000471 387.438400
     94     97     99     1   109.8000471 387.438400
     95     94     97     1   109.5600471 388.275200
     95     94     96     1   108.4600466 328.025600
     96     94     97     1   109.5600471 388.275200
     97    106    107     1   109.5600471 388.275200
     97    106    108     1   109.5600471 388.275200
     98     97    106     1   109.8000471 387.438400
     98     97     99     1   107.5800459 329.699200
     99     97    106     1   109.8000471 387.438400
    100    112    113     1   109.5600471 388.275200
    100    112    114     1   109.5600471 388.275200
    101    100    112     1   109.8000471 387.438400
    101    100    102     1   107.5800459 329.699200
    102    100    112     1   109.8000471 387.438400
    103    109    110     1   109.5600471 388.275200
    103    109    111     1   109.5600471 388.275200
    104    103    109     1   109.8000471 387.438400
    104    103    105     1   107.5800459 329.699200
    105    103    109     1   109.8000471 387.438400
    107    106    115     1   109.7800468 425.094400
    107    106    108     1   108.4600466 328.025600
    108    106    115     1   109.7800468 425.094400
    110    109    260     1   109.7800468 425.094400
    110    109    111     1   108.4600466 328.025600
    111    109    260     1   109.7800468 425.094400
    113    112    289     1   109.7800468 425.094400
    113    112    114     1   108.4600466 328.025600
    114    112    289     1   109.7800468 425.094400
    116    117    118     1   109.8800469 414.216000
    116    117    119     1   109.8800469 414.216000
    116    120    121     1   109.8800469 414.216000
    116    120    122     1   109.8800469 414.216000
    116    123    124     1   109.8800469 414.216000
    116    123    125     1   109.8800469 414.216000
    117    129    130     1   109.8000471 387.438400
    117    129    131     1   109.8000471 387.438400
    118    117    129     1   109.5600471 388.275200
    118    117    119     1   108.4600466 328.025600
    119    117    129     1   109.5600471 388.275200
    120    132    133     1   109.8000471 387.438400
    120    132    134     1   109.8000471 387.438400
    121    120    132     1   109.5600471 388.275200
    121    120    122     1   108.4600466 328.025600
    122    120    132     1   109.5600471 388.275200
    123    126    127     1   109.8000471 387.438400
    123    126    128     1   109.8000471 387.438400
    124    123    126     1   109.5600471 388.275200
    124    123    125     1   108.4600466 328.025600
    125    123    126     1   109.5600471 388.275200
    126    135    136     1   109.5600471 388.275200
    126    135    137     1   109.5600471 388.275200
    127    126    135     1   109.8000471 387.438400
    127    126    128     1   107.5800459 329.699200
    128    126    135     1   109.8000471 387.438400
    129    141    142     1   109.5600471 388.275200
    129    141    143     1   109.5600471 388.275200
    130    129    141     1   109.8000471 387.438400
    130    129    131     1   107.5800459 329.699200
    131    129    141     1   109.8000471 387.438400
    132    138    139     1   109.5600471 388.275200
    132    138    140     1   109.5600471 388.275200
    133    132    138     1   109.8000471 387.438400
    133    132    134     1   107.5800459 329.699200
    134    132    138     1   109.8000471 387.438400
    136    135    144     1   109.7800468 425.094400
    136    135    137     1   108.4600466 328.025600
    137    135    144     1   109.7800468 425.094400
    139    138    318     1   109.7800468 425.094400
    139    138    140     1   108.4600466 328.025600
    140    138    318     1   109.7800468 425.094400
    142    141    347     1   109.7800468 425.094400
    142    141    143     1   108.4600466 328.025600
    143    141    347     1   109.7800468 425.094400
    145    146    147     1   109.8800469 414.216000
    145    146    148     1   109.8800469 414.216000
    145    149    150     1   109.8800469 414.216000
    145    149    151     1   109.8800469 414.216000
    145    152    153     1   109.8800469 414.216000
    145    152    154     1   109.8800469 414.216000
    146    158    159     1   109.8000471 387.438400
    146    158    160     1   109.8000471 387.438400
    147    146    158     1   109.5600471 388.275200
    147    146    148     1   108.4600466 328.025600
    148    146    158     1   109.5600471 388.275200
    149    161    162     1   109.8000471 387.438400
    149    161    163     1   109.8000471 387.438400
    150    149    161     1   109.5600471 388.275200
    150    149    151     1   108.4600466 328.025600
    151    149    161     1   109.5600471 388.275200
    152    155    156     1   109.8000471 387.438400
    152    155    157     1   109.8000471 387.438400
    153    152    155     1   109.5600471 388.275200
    153    152    154     1   108.4600466 328.025600
    154    152    155     1   109.5600471 388.275200
    155    164    165     1   109.5600471 388.275200
    155    164    166     1   109.5600471 388.275200
    156    155    164     1   109.8000471 387.438400
    156    155    157     1   107.5800459 329.699200
    157    155    164     1   109.8000471 387.438400
    158    170    171     1   109.5600471 388.275200
    158    170    172     1   109.5600471 388.275200
    159    158    170     1   109.8000471 387.438400
    159    158    160     1   107.5800459 329.699200
    160    158    170     1   109.8000471 387.438400
    161    167    168     1   109.5600471 388.275200
    161    167    169     1   109.5600471 388.275200
    162    161    167     1   109.8000471 387.438400
    162    161    163     1   107.5800459 329.699200
    163    161    167     1   109.8000471 387.438400
    165    164    173     1   109.7800468 425.094400
    165    164    166     1   108.4600466 328.025600
    166    164    173     1   109.7800468 425.094400
    168    167    376     1   109.7800468 425.094400
    168    167    169     1   108.4600466 328.025600
    169    167    376     1   109.7800468 425.094400
    171    170    405     1   109.7800468 425.094400
    171    170    172     1   108.4600466 328.025600
    172    170    405     1   109.7800468 425.094400
    174    175    176     1   109.8800469 414.216000
    174    175    177     1   109.8800469 414.216000
    174    178    179     1   109.8800469 414.216000
    174    178    180     1   109.8800469 414.216000
    174    181    182     1   109.8800469 414.216000
    174    181    183     1   109.8800469 414.216000
    175    187    188     1   109.8000471 387.438400
    175    187    189     1   109.8000471 387.438400
    176    175    187     1   109.5600471 388.275200
    176    175    177     1   108.4600466 328.025600
    177    175    187     1   109.5600471 388.275200
    178    190    191     1   109.8000471 387.438400
    178    190    192     1   109.8000471 387.438400
    179    178    190     1   109.5600471 388.275200
    179    178    180     1   108.4600466 328.025600
    180    178    190     1   109.5600471 388.275200
    181    184    185     1   109.8000471 387.438400
    181    184    186     1   109.8000471 387.438400
    182    181    184     1   109.5600471 388.275200
    182    181    183     1   108.4600466 328.025600
    183    181    184     1   109.5600471 388.275200
    184    193    194     1   109.5600471 388.275200
    184    193    195     1   109.5600471 388.275200
    185    184    193     1   109.8000471 387.438400
    185    184    186     1   107.5800459 329.699200
    186    184    193     1   109.8000471 387.438400
    187    199    200     1   109.5600471 388.275200
    187    199    201     1   109.5600471 388.275200
    188    187    199     1   109.8000471 387.438400
    188    187    189     1   107.5800459 329.699200
    189    187    199     1   109.8000471 387.438400
    190    196    197     1   109.5600471 388.275200
    190    196    198     1   109.5600471 388.275200
    191    190    196     1   109.8000471 387.438400
    191    190    192     1   107.5800459 329.699200
    192    190    196     1   109.8000471 387.438400
    194    193    202     1   109.7800468 425.094400
    194    193    195     1   108.4600466 328.025600
    195    193    202     1   109.7800468 425.094400
    197    196    434     1   109.7800468 425.094400
    197    196    198     1   108.4600466 328.025600
    198    196    434     1   109.7800468 425.094400
    200    199    463     1   109.7800468 425.094400
    200    199    201     1   108.4600466 328.025600
    201    199    463     1   109.7800468 425.094400
    203    204    205     1   109.8800469 414.216000
    203    204    206     1   109.8800469 414.216000
    203    207    208     1   109.8800469 414.216000
    203    207    209     1   109.8800469 414.216000
    203    210    211     1   109.8800469 414.216000
    203    210    212     1   109.8800469 414.216000
    204    216    217     1   109.8000471 387.438400
    204    216    218     1   109.8000471 387.438400
    205    204    216     1   109.5600471 388.275200
    205    204    206     1   108.4600466 328.025600
    206    204    216     1   109.5600471 388.275200
    207    219    220     1   109.8000471 387.438400
    207    219    221     1   109.8000471 387.438400
    208    207    219     1   109.5600471 388.275200
    208    207    209     1   108.4600466 328.025600
    209    207    219     1   109.5600471 388.275200
    210    213    214     1   109.8000471 387.438400
    210    213    215     1   109.8000471 387.438400
    211    210    213     1   109.5600471 388.275200
    211    210    212     1   108.4600466 328.025600
    212    210    213     1   109.5600471 388.275200
    213    222    223     1   109.5600471 388.275200
    213    222    224     1   109.5600471 388.275200
    214    213    222     1   109.8000471 387.438400
    214    213    215     1   107.5800459 329.699200
    215    213    222     1   109.8000471 387.438400
    216    228    229     1   109.5600471 388.275200
    216    228    230     1   109.5600471 388.275200
    217    216    228     1   109.8000471 387.438400
    217    216    218     1   107.5800459 329.699200
    218    216    228     1   109.8000471 387.438400
    219    225    226     1   109.5600471 388.275200
    219    225    227     1   109.5600471 388.275200
    220    219    225     1   109.8000471 387.438400
    220    219    221     1   107.5800459 329.699200
    221    219    225     1   109.8000471 387.438400
    223    222    231     1   109.7800468 425.094400
    223    222    224     1   108.4600466 328.025600
    224    222    231     1   109.7800468 425.094400
    226    225    492     1   109.7800468 425.094400
    226    225    227     1   108.4600466 328.025600
    227    225    492     1   109.7800468 425.094400
    229    228    521     1   109.7800468 425.094400
    229    228    230     1   108.4600466 328.025600
    230    228    521     1   109.7800468 425.094400
    232    233    234     1   109.8800469 414.216000
    232    233    235     1   109.8800469 414.216000
    232    236    237     1   109.8800469 414.216000
    232    236    238     1   109.8800469 414.216000
    232    239    240     1   109.8800469 414.216000
    232    239    241     1   109.8800469 414.216000
    233    245    246     1   109.8000471 387.438400
    233    245    247     1   109.8000471 387.438400
    234    233    245     1   109.5600471 388.275200
    234    233    235     1   108.4600466 328.025600
    235    233    245     1   109.5600471 388.275200
    236    248    249     1   109.8000471 387.438400
    236    248    250     1   109.8000471 387.438400
    237    236    248     1   109.5600471 388.275200
    237    236    238     1   108.4600466 328.025600
    238    236    248     1   109.5600471 388.275200
    239    242    243     1   109.8000471 387.438400
    239    242    244     1   109.8000471 387.438400
    240    239    242     1   109.5600471 388.275200
    240    239    241     1   108.4600466 328.025600
    241    239    242     1   109.5600471 388.275200
    242    251    252     1   109.5600471 388.275200
    242    251    253     1   109.5600471 388.275200
    243    242    251     1   109.8000471 387.438400
    243    242    244     1   107.5800459 329.699200
    244    242    251     1   109.8000471 387.438400
    245    257    258     1   109.5600471 388.275200
    245    257    259     1   109.5600471 388.275200
    246    245    257     1   109.8000471 387.438400
    246    245    247     1   107.5800459 329.699200
    247    245    257     1   109.8000471 387.438400
    248    254    255     1   109.5600471 388.275200
    248    254    256     1   109.5600471 388.275200
    249    248    254     1   109.8000471 387.438400
    249    248    250     1   107.5800459 329.699200
    250    248    254     1   109.8000471 387.438400
    252    251    260     1   109.7800468 425.094400
    252    251    253     1   108.4600466 328.025600
    253    251    260     1   109.7800468 425.094400
    255    254    550     1   109.7800468 425.094400
    255    254    256     1   108.4600466 328.025600
    256    254    550     1   109.7800468 425.094400
    258    257    579     1   109.7800468 425.094400
    258    257    259     1   108.4600466 328.025600
    259    257    579     1   109.7800468 425.094400
    261    262    263     1   109.8800469 414.216000
    261    262    264     1   109.8800469 414.216000
    261    265    266     1   109.8800469 414.216000
    261    265    267     1   109.8800469 414.216000
    261    268    269     1   109.8800469 414.216000
    261    268    270     1   109.8800469 414.216000
    262    274    275     1   109.8000471 387.438400
    262    274    276     1   109.8000471 387.438400
    263    262    274     1   109.5600471 388.275200
    263    262    264     1   108.4600466 328.025600
    264    262    274     1   109.5600471 388.275200
    265    277    278     1   109.8000471 387.438400
    265    277    279     1   109.8000471 387.438400
    266    265    277     1   109.5600471 388.275200
    266    265    267     1   108.4600466 328.025600
    267    265    277     1   109.5600471 388.275200
    268    271    272     1   109.8000471 387.438400
    268    271    273     1   109.8000471 387.438400
    269    268    271     1   109.5600471 388.275200
    269    268    270     1   108.4600466 328.025600
    270    268    271     1   109.5600471 388.275200
    271    280    281     1   109.5600471 388.275200
    271    280    282     1   109.5600471 388.275200
    272    271    280     1   109.8000471 387.438400
    272    271    273     1   107.5800459 329.699200
    273    271    280     1   109.8000471 387.438400
    274    286    287     1   109.5600471 388.275200
    274    286    288     1   109.5600471 388.275200
    275    274    286     1   109.8000471 387.438400
    275    274    276     1   107.5800459 329.699200
    276    274    286     1   109.8000471 387.438400
    277    283    284     1   109.5600471 388.275200
    277    283    285     1   109.5600471 388.275200
    278    277    283     1   109.8000471 387.438400
    278    277    279     1   107.5800459 329.699200
    279    277    283     1   109.8000471 387.438400
    281    280    289     1   109.7800468 425.094400
    281    280    282     1   108.4600466 328.025600
    282    280    289     1   109.7800468 425.094400
    284    283    608     1   109.7800468 425.094400
    284    283    285     1   108.4600466 328.025600
    285    283    608     1   109.7800468 425.094400
    287    286    637     1   109.7800468 425.094400
    287    286    288     1   108.4600466 328.025600
    288    286    637     1   109.7800468 425.094400
    290    291    292     1   109.8800469 414.216000
    290    291    293     1   109.8800469 414.216000
    290    294    295     1   109.8800469 414.216000
    290    294    296     1   109.8800469 414.216000
    290    297    298     1   109.8800469 414.216000
    290    297    299     1   109.8800469 414.216000
    291    303    304     1   109.8000471 387.438400
    291    303    305     1   109.8000471 387.438400
    292    291    303     1   109.5600471 388.275200
    292    291    293     1   108.4600466 328.025600
    293    291    303     1   109.5600471 388.275200
    294    306    307     1   109.8000471 387.438400
    294    306    308     1   109.8000471 387.438400
    295    294    306     1   109.5600471 388.275200
    295    294    296     1   108.4600466 328.025600
    296    294    306     1   109.5600471 388.275200
    297    300    301     1   109.8000471 387.438400
    297    300    302     1   109.8000471 387.438400
    298    297    300     1   109.5600471 388.275200
    298    297    299     1   108.4600466 328.025600
    299    297    300     1   109.5600471 388.275200
    300    309    310     1   109.5600471 388.275200
    300    309    311     1   109.5600471 388.275200
    301    300    309     1   109.8000471 387.438400
    301    300    302     1   107.5800459 329.699200
    302    300    309     1   109.8000471 387.438400
    303    315    316     1   109.5600471 388.275200
    303    315    317     1   109.5600471 388.275200
    304    303    315     1   109.8000471 387.438400
    304    303    305     1   107.5800459 329.699200
    305    303    315     1   109.8000471 387.438400
    306    312    313     1   109.5600471 388.275200
    306    312    314     1   109.5600471 388.275200
    307    306    312     1   109.8000471 387.438400
    307    306    308     1   107.5800459 329.699200
    308    306    312     1   109.8000471 387.438400
    310    309    318     1   109.7800468 425.094400
    310    309    311     1   108.4600466 328.025600
    311    309    318     1   109.7800468 425.094400
    313    312    666     1   109.7800468 425.094400
    313    312    314     1   108.4600466 328.025600
    314    312    666     1   109.7800468 425.094400
    316    315    695     1   109.7800468 425.094400
    316    315    317     1   108.4600466 328.025600
    317    315    695     1   109.7800468 425.094400
    319    320    321     1   109.8800469 414.216000
    319    320    322     1   109.8800469 414.216000
    319    323    324     1   109.8800469 414.216000
    319    323    325     1   109.8800469 414.216000
    319    326    327     1   109.8800469 414.216000
    319    326    328     1   109.8800469 414.216000
    320    332    333     1   109.8000471 387.438400
    320    332    334     1   109.8000471 387.438400
    321    320    332     1   109.5600471 388.275200
    321    320    322     1   108.4600466 328.025600
    322    320    332     1   109.5600471 388.275200
    323    335    336     1   109.8000471 387.438400
    323    335    337     1   109.8000471 387.438400
    324    323    335     1   109.5600471 388.275200
    324    323    325     1   108.4600466 328.025600
    325    323    335     1   109.5600471 388.275200
    326    329    330     1   109.8000471 387.438400
    326    329    331     1   109.8000471 387.438400
    327    326    329     1   109.5600471 388.275200
    327    326    328     1   108.4600466 328.025600
    328    326    329     1   109.5600471 388.275200
    329    338    339     1   109.5600471 388.275200
    329    338    340     1   109.5600471 388.275200
    330    329    338     1   109.8000471 387.438400
    330    329    331     1   107.5800459 329.699200
    331    329    338     1   109.8000471 387.438400
    332    344    345     1   109.5600471 388.275200
    332    344    346     1   109.5600471 388.275200
    333    332    344     1   109.8000471 387.438400
    333    332    334     1   107.5800459 329.699200
    334    332    344     1   109.8000471 387.438400
    335    341    342     1   109.5600471 388.275200
    335    341    343     1   109.5600471 388.275200
    336    335    341     1   109.8000471 387.438400
    336    335    337     1   107.5800459 329.699200
    337    335    341     1   109.8000471 387.438400
    339    338    347     1   109.7800468 425.094400
    339    338    340     1   108.4600466 328.025600
    340    338    347     1   109.7800468 425.094400
    342    341    724     1   109.7800468 425.094400
    342    341    343     1   108.4600466 328.025600
    343    341    724     1   109.7800468 425.094400
    345    344    753     1   109.7800468 425.094400
    345    344    346     1   108.4600466 328.025600
    346    344    753     1   109.7800468 425.094400
    348    349    350     1   109.8800469 414.216000
    348    349    351     1   109.8800469 414.216000
    348    352    353     1   109.8800469 414.216000
    348    352    354     1   109.8800469 414.216000
    348    355    356     1   109.8800469 414.216000
    348    355    357     1   109.8800469 414.216000
    349    361    362     1   109.8000471 387.438400
    349    361    363     1   109.8000471 387.438400
    350    349    361     1   109.5600471 388.275200
    350    349    351     1   108.4600466 328.025600
    351    349    361     1   109.5600471 388.275200
    352    364    365     1   109.8000471 387.438400
    352    364    366     1   109.8000471 387.438400
    353    352    364     1   109.5600471 388.275200
    353    352    354     1   108.4600466 328.025600
    354    352    364     1   109.5600471 388.275200
    355    358    359     1   109.8000471 387.438400
    355    358    360     1   109.8000471 387.438400
    356    355    358     1   109.5600471 388.275200
    356    355    357     1   108.4600466 328.025600
    357    355    358     1   109.5600471 388.275200
    358    367    368     1   109.5600471 388.275200
    358    367    369     1   109.5600471 388.275200
    359    358    367     1   109.8000471 387.438400
    359    358    360     1   107.5800459 329.699200
    360    358    367     1   109.8000471 387.438400
    361    373    374     1   109.5600471 388.275200
    361    373    375     1   109.5600471 388.275200
    362    361    373     1   109.8000471 387.438400
    362    361    363     1   107.5800459 329.699200
    363    361    373     1   109.8000471 387.438400
    364    370    371     1   109.5600471 388.275200
    364    370    372     1   109.5600471 388.275200
    365    364    370     1   109.8000471 387.438400
    365    364    366     1   107.5800459 329.699200
    366    364    370     1   109.8000471 387.438400
    368    367    376     1   109.7800468 425.094400
    368    367    369     1   108.4600466 328.025600
    369    367    376     1   109.7800468 425.094400
    371    370    782     1   109.7800468 425.094400
    371    370    372     1   108.4600466 328.025600
    372    370    782     1   109.7800468 425.094400
    374    373    811     1   109.7800468 425.094400
    374    373    375     1   108.4600466 328.025600
    375    373    811     1   109.7800468 425.094400
    377    378    379     1   109.8800469 414.216000
    377    378    380     1   109.8800469 414.216000
    377    381    382     1   109.8800469 414.216000
    377    381    383     1   109.8800469 414.216000
    377    384    385     1   109.8800469 414.216000
    377    384    386     1   109.8800469 414.216000
    378    390    391     1   109.8000471 387.438400
    378    390    392     1   109.8000471 387.438400
    379    378    390     1   109.5600471 388.275200
    379    378    380     1   108.4600466 328.025600
    380    378    390     1   109.5600471 388.275200
    381    393    394     1   109.8000471 387.438400
    381    393    395     1   109.8000471 387.438400
    382    381    393     1   109.5600471 388.275200
    382    381    383     1   108.4600466 328.025600
    383    381    393     1   109.5600471 388.275200
    384    387    388     1   109.8000471 387.438400
    384    387    389     1   109.8000471 387.438400
    385    384    387     1   109.5600471 388.275200
    385    384    386     1   108.4600466 328.025600
    386    384    387     1   109.5600471 388.275200
    387    396    397     1   109.5600471 388.275200
    387    396    398     1   109.5600471 388.275200
    388    387    396     1   109.8000471 387.438400
    388    387    389     1   107.5800459 329.699200
    389    387    396     1   109.8000471 387.438400
    390    402    403     1   109.5600471 388.275200
    390    402    404     1   109.5600471 388.275200
    391    390    402     1   109.8000471 387.438400
    391    390    392     1   107.5800459 329.699200
    392    390    402     1   109.8000471 387.438400
    393    399    400     1   109.5600471 388.275200
    393    399    401     1   109.5600471 388.275200
    394    393    399     1   109.8000471 387.438400
    394    393    395     1   107.5800459 329.699200
    395    393    399     1   109.8000471 387.438400
    397    396    405     1   109.7800468 425.094400
    397    396    398     1   108.4600466 328.025600
    398    396    405     1   109.7800468 425.094400
    400    399    840     1   109.7800468 425.094400
    400    399    401     1   108.4600466 328.025600
    401    399    840     1   109.7800468 425.094400
    403    402    869     1   109.7800468 425.094400
    403    402    404     1   108.4600466 328.025600
    404    402    869     1   109.7800468 425.094400
    406    407    408     1   109.8800469 414.216000
    406    407    409     1   109.8800469 414.216000
    406    410    411     1   109.8800469 414.216000
    406    410    412     1   109.8800469 414.216000
    406    413    414     1   109.8800469 414.216000
    406    413    415     1   109.8800469 414.216000
    407    419    420     1   109.8000471 387.438400
    407    419    421     1   109.8000471 387.438400
    408    407    419     1   109.5600471 388.275200
    408    407    409     1   108.4600466 328.025600
    409    407    419     1   109.5600471 388.275200
    410    422    423     1   109.8000471 387.438400
    410    422    424     1   109.8000471 387.438400
    411    410    422     1   109.5600471 388.275200
    411    410    412     1   108.4600466 328.025600
    412    410    422     1   109.5600471 388.275200
    413    416    417     1   109.8000471 387.438400
    413    416    418     1   109.8000471 387.438400
    414    413    416     1   109.5600471 388.275200
    414    413    415     1   108.4600466 328.025600
    415    413    416     1   109.5600471 388.275200
    416    425    426     1   109.5600471 388.275200
    416    425    427     1   109.5600471 388.275200
    417    416    425     1   109.8000471 387.438400
    417    416    418     1   107.5800459 329.699200
    418    416    425     1   109.8000471 387.438400
    419    431    432     1   109.5600471 388.275200
    419    431    433     1   109.5600471 388.275200
    420    419    431     1   109.8000471 387.438400
    420    419    421     1   107.5800459 329.699200
    421    419    431     1   109.8000471 387.438400
    422    428    429     1   109.5600471 388.275200
    422    428    430     1   109.5600471 388.275200
    423    422    428     1   109.8000471 387.438400
    423    422    424     1   107.5800459 329.699200
    424    422    428     1   109.8000471 387.438400
    426    425    434     1   109.7800468 425.094400
    426    425    427     1   108.4600466 328.025600
    427    425    434     1   109.7800468 425.094400
    429    428    898     1   109.7800468 425.094400
    429    428    430     1   108.4600466 328.025600
    430    428    898     1   109.7800468 425.094400
    432    431    927     1   109.7800468 425.094400
    432    431    433     1   108.4600466 328.025600
    433    431    927     1   109.7800468 425.094400
    435    436    437     1   109.8800469 414.216000
    435    436    438     1   109.8800469 414.216000
    435    439    440     1   109.8800469 414.216000
    435    439    441     1   109.8800469 414.216000
    435    442    443     1   109.8800469 414.216000
    435    442    444     1   109.8800469 414.216000
    436    448    449     1   109.8000471 387.438400
    436    448    450     1   109.8000471 387.438400
    437    436    448     1   109.5600471 388.275200
    437    436    438     1   108.4600466 328.025600
    438    436    448     1   109.5600471 388.275200
    439    451    452     1   109.8000471 387.438400
    439    451    453     1   109.8000471 387.438400
    440    439    451     1   109.5600471 388.275200
    440    439    441     1   108.4600466 328.025600
    441    439    451     1   109.5600471 388.275200
    442    445    446     1   109.8000471 387.438400
    442    445    447     1   109.8000471 387.438400
    443    442    445     1   109.5600471 388.275200
    443    442    444     1   108.4600466 328.025600
    444    442    445     1   109.5600471 388.275200
    445    454    455     1   109.5600471 388.275200
    445    454    456     1   109.5600471 388.275200
    446    445    454     1   109.8000471 387.438400
    446    445    447     1   107.5800459 329.699200
    447    445    454     1   109.8000471 387.438400
    448    460    461     1   109.5600471 388.275200
    448    460    462     1   109.5600471 388.275200
    449    448    460     1   109.8000471 387.438400
    449    448    450     1   107.5800459 329.699200
    450    448    460     1   109.8000471 387.438400
    451    457    458     1   109.5600471 388.275200
    451    457    459     1   109.5600471 388.275200
    452    451    457     1   109.8000471 387.438400
    452    451    453     1   107.5800459 329.699200
    453    451    457     1   109.8000471 387.438400
    455    454    463     1   109.7800468 425.094400
    455    454    456     1   108.4600466 328.025600
    456    454    463     1   109.7800468 425.094400
    458    457    956     1   109.7800468 425.094400
    458    457    459     1   108.4600466 328.025600
    459    457    956     1   109.7800468 425.094400
    461    460    985     1   109.7800468 425.094400
    461    460    462     1   108.4600466 328.025600
    462    460    985     1   109.7800468 425.094400
    464    465    466     1   109.8800469 414.216000
    464    465    467     1   109.8800469 414.216000
    464    468    469     1   109.8800469 414.216000
    464    468    470     1   109.8800469 414.216000
    464    471    472     1   109.8800469 414.216000
    464    471    473     1   109.8800469 414.216000
    465    477    478     1   109.8000471 387.438400
    465    477    479     1   109.8000471 387.438400
    466    465    477     1   109.5600471 388.275200
    466    465    467     1   108.4600466 328.025600
    467    465    477     1   109.5600471 388.275200
    468    480    481     1   109.8000471 387.438400
    468    480    482     1   109.8000471 387.438400
    469    468    480     1   109.5600471 388.275200
    469    468    470     1   108.4600466 328.025600
    470    468    480     1   109.5600471 388.275200
    471    474    475     1   109.8000471 387.438400
    471    474    476     1   109.8000471 387.438400
    472    471    474     1   109.5600471 388.275200
    472    471    473     1   108.4600466 328.025600
    473    471    474     1   109.5600471 388.275200
    474    483    484     1   109.5600471 388.275200
    474    483    485     1   109.5600471 388.275200
    475    474    483     1   109.8000471 387.438400
    475    474    476     1   107.5800459 329.699200
    476    474    483     1   109.8000471 387.438400
    477    489    490     1   109.5600471 388.275200
    477    489    491     1   109.5600471 388.275200
    478    477    489     1   109.8000471 387.438400
    478    477    479     1   107.5800459 329.699200
    479    477    489     1   109.8000471 387.438400
    480    486    487     1   109.5600471 388.275200
    480    486    488     1   109.5600471 388.275200
    481    480    486     1   109.8000471 387.438400
    481    480    482     1   107.5800459 329.699200
    482    480    486     1   109.8000471 387.438400
    484    483    492     1   109.7800468 425.094400
    484    483    485     1   108.4600466 328.025600
    485    483    492     1   109.7800468 425.094400
    487    486   1014     1   109.7800468 425.094400
    487    486    488     1   108.4600466 328.025600
    488    486   1014     1   109.7800468 425.094400
    490    489   1043     1   109.7800468 425.094400
    490    489    491     1   108.4600466 328.025600
    491    489   1043     1   109.7800468 425.094400
    493    494    495     1   109.8800469 414.216000
    493    494    496     1   109.8800469 414.216000
    493    497    498     1   109.8800469 414.216000
    493    497    499     1   109.8800469 414.216000
    493    500    501     1   109.8800469 414.216000
    493    500    502     1   109.8800469 414.216000
    494    506    507     1   109.8000471 387.438400
    494    506    508     1   109.8000471 387.438400
    495    494    506     1   109.5600471 388.275200
    495    494    496     1   108.4600466 328.025600
    496    494    506     1   109.5600471 388.275200
    497    509    510     1   109.8000471 387.438400
    497    509    511     1   109.8000471 387.438400
    498    497    509     1   109.5600471 388.275200
    498    497    499     1   108.4600466 328.025600
    499    497    509     1   109.5600471 388.275200
    500    503    504     1   109.8000471 387.438400
    500    503    505     1   109.8000471 387.438400
    501    500    503     1   109.5600471 388.275200
    501    500    502     1   108.4600466 328.025600
    502    500    503     1   109.5600471 388.275200
    503    512    513     1   109.5600471 388.275200
    503    512    514     1   109.5600471 388.275200
    504    503    512     1   109.8000471 387.438400
    504    503    505     1   107.5800459 329.699200
    505    503    512     1   109.8000471 387.438400
    506    518    519     1   109.5600471 388.275200
    506    518    520     1   109.5600471 388.275200
    507    506    518     1   109.8000471 387.438400
    507    506    508     1   107.5800459 329.699200
    508    506    518     1   109.8000471 387.438400
    509    515    516     1   109.5600471 388.275200
    509    515    517     1   109.5600471 388.275200
    510    509    515     1   109.8000471 387.438400
    510    509    511     1   107.5800459 329.699200
    511    509    515     1   109.8000471 387.438400
    513    512    521     1   109.7800468 425.094400
    513    512    514     1   108.4600466 328.025600
    514    512    521     1   109.7800468 425.094400
    516    515   1072     1   109.7800468 425.094400
    516    515    517     1   108.4600466 328.025600
    517    515   1072     1   109.7800468 425.094400
    519    518   1101     1   109.7800468 425.094400
    519    518    520     1   108.4600466 328.025600
    520    518   1101     1   109.7800468 425.094400
    522    523    524     1   109.8800469 414.216000
    522    523    525     1   109.8800469 414.216000
    522    526    527     1   109.8800469 414.216000
    522    526    528     1   109.8800469 414.216000
    522    529    530     1   109.8800469 414.216000
    522    529    531     1   109.8800469 414.216000
    523    535    536     1   109.8000471 387.438400
    523    535    537     1   109.8000471 387.438400
    524    523    535     1   109.5600471 388.275200
    524    523    525     1   108.4600466 328.025600
    525    523    535     1   109.5600471 388.275200
    526    538    539     1   109.8000471 387.438400
    526    538    540     1   109.8000471 387.438400
    527    526    538     1   109.5600471 388.275200
    527    526    528     1   108.4600466 328.025600
    528    526    538     1   109.5600471 388.275200
    529    532    533     1   109.8000471 387.438400
    529    532    534     1   109.8000471 387.438400
    530    529    532     1   109.5600471 388.275200
    530    529    531     1   108.4600466 328.025600
    531    529    532     1   109.5600471 388.275200
    532    541    542     1   109.5600471 388.275200
    532    541    543     1   109.5600471 388.275200
    533    532    541     1   109.8000471 387.438400
    533    532    534     1   107.5800459 329.699200
    534    532    541     1   109.8000471 387.438400
    535    547    548     1   109.5600471 388.275200
    535    547    549     1   109.5600471 388.275200
    536    535    547     1   109.8000471 387.438400
    536    535    537     1   107.5800459 329.699200
    537    535    547     1   109.8000471 387.438400
    538    544    545     1   109.5600471 388.275200
    538    544    546     1   109.5600471 388.275200
    539    538    544     1   109.8000471 387.438400
    539    538    540     1   107.5800459 329.699200
    540    538    544     1   109.8000471 387.438400
    542    541    550     1   109.7800468 425.094400
    542    541    543     1   108.4600466 328.025600
    543    541    550     1   109.7800468 425.094400
    545    544   1130     1   109.7800468 425.094400
    545    544    546     1   108.4600466 328.025600
    546    544   1130     1   109.7800468 425.094400
    548    547   1159     1   109.7800468 425.094400
    548    547    549     1   108.4600466 328.025600
    549    547   1159     1   109.7800468 425.094400
    551    552    553     1   109.8800469 414.216000
    551    552    554     1   109.8800469 414.216000
    551    555    556     1   109.8800469 414.216000
    551    555    557     1   109.8800469 414.216000
    551    558    559     1   109.8800469 414.216000
    551    558    560     1   109.8800469 414.216000
    552    564    565     1   109.8000471 387.438400
    552    564    566     1   109.8000471 387.438400
    553    552    564     1   109.5600471 388.275200
    553    552    554     1   108.4600466 328.025600
    554    552    564     1   109.5600471 388.275200
    555    567    568     1   109.8000471 387.438400
    555    567    569     1   109.8000471 387.438400
    556    555    567     1   109.5600471 388.275200
    556    555    557     1   108.4600466 328.025600
    557    555    567     1   109.5600471 388.275200
    558    561    562     1   109.8000471 387.438400
    558    561    563     1   109.8000471 387.438400
    559    558    561     1   109.5600471 388.275200
    559    558    560     1   108.4600466 328.025600
    560    558    561     1   109.5600471 388.275200
    561    570    571     1   109.5600471 388.275200
    561    570    572     1   109.5600471 388.275200
    562    561    570     1   109.8000471 387.438400
    562    561    563     1   107.5800459 329.699200
    563    561    570     1   109.8000471 387.438400
    564    576    577     1   109.5600471 388.275200
    564    576    578     1   109.5600471 388.275200
    565    564    576     1   109.8000471 387.438400
    565    564    566     1   107.5800459 329.699200
    566    564    576     1   109.8000471 387.438400
    567    573    574     1   109.5600471 388.275200
    567    573    575     1   109.5600471 388.275200
    568    567    573     1   109.8000471 387.438400
    568    567    569     1   107.5800459 329.699200
    569    567    573     1   109.8000471 387.438400
    571    570    579     1   109.7800468 425.094400
    571    570    572     1   108.4600466 328.025600
    572    570    579     1   109.7800468 425.094400
    574    573   1188     1   109.7800468 425.094400
    574    573    575     1   108.4600466 328.025600
    575    573   1188     1   109.7800468 425.094400
    577    576   1217     1   109.7800468 425.094400
    577    576    578     1   108.4600466 328.025600
    578    576   1217     1   109.7800468 425.094400
    580    581    582     1   109.8800469 414.216000
    580    581    583     1   109.8800469 414.216000
    580    584    585     1   109.8800469 414.216000
    580    584    586     1   109.8800469 414.216000
    580    587    588     1   109.8800469 414.216000
    580    587    589     1   109.8800469 414.216000
    581    593    594     1   109.8000471 387.438400
    581    593    595     1   109.8000471 387.438400
    582    581    593     1   109.5600471 388.275200
    582    581    583     1   108.4600466 328.025600
    583    581    593     1   109.5600471 388.275200
    584    596    597     1   109.8000471 387.438400
    584    596    598     1   109.8000471 387.438400
    585    584    596     1   109.5600471 388.275200
    585    584    586     1   108.4600466 328.025600
    586    584    596     1   109.5600471 388.275200
    587    590    591     1   109.8000471 387.438400
    587    590    592     1   109.8000471 387.438400
    588    587    590     1   109.5600471 388.275200
    588    587    589     1   108.4600466 328.025600
    589    587    590     1   109.5600471 388.275200
    590    599    600     1   109.5600471 388.275200
    590    599    601     1   109.5600471 388.275200
    591    590    599     1   109.8000471 387.438400
    591    590    592     1   107.5800459 329.699200
    592    590    599     1   109.8000471 387.438400
    593    605    606     1   109.5600471 388.275200
    593    605    607     1   109.5600471 388.275200
    594    593    605     1   109.8000471 387.438400
    594    593    595     1   107.5800459 329.699200
    595    593    605     1   109.8000471 387.438400
    596    602    603     1   109.5600471 388.275200
    596    602    604     1   109.5600471 388.275200
    597    596    602     1   109.8000471 387.438400
    597    596    598     1   107.5800459 329.699200
    598    596    602     1   109.8000471 387.438400
    600    599    608     1   109.7800468 425.094400
    600    599    601     1   108.4600466 328.025600
    601    599    608     1   109.7800468 425.094400
    603    602   1246     1   109.7800468 425.094400
    603    602    604     1   108.4600466 328.025600
    604    602   1246     1   109.7800468 425.094400
    606    605   1275     1   109.7800468 425.094400
    606    605    607     1   108.4600466 328.025600
    607    605   1275     1   109.7800468 425.094400
    609    610    611     1   109.8800469 414.216000
    609    610    612     1   109.8800469 414.216000
    609    613    614     1   109.8800469 414.216000
    609    613    615     1   109.8800469 414.216000
    609    616    617     1   109.8800469 414.216000
    609    616    618     1   109.8800469 414.216000
    610    622    623     1   109.8000471 387.438400
    610    622    624     1   109.8000471 387.438400
    611    610    622     1   109.5600471 388.275200
    611    610    612     1   108.4600466 328.025600
    612    610    622     1   109.5600471 388.275200
    613    625    626     1   109.8000471 387.438400
    613    625    627     1   109.8000471 387.438400
    614    613    625     1   109.5600471 388.275200
    614    613    615     1   108.4600466 328.025600
    615    613    625     1   109.5600471 388.275200
    616    619    620     1   109.8000471 387.438400
    616    619    621     1   109.8000471 387.438400
    617    616    619     1   109.5600471 388.275200
    617    616    618     1   108.4600466 328.025600
    618    616    619     1   109.5600471 388.275200
    619    628    629     1   109.5600471 388.275200
    619    628    630     1   109.5600471 388.275200
    620    619    628     1   109.8000471 387.438400
    620    619    621     1   107.5800459 329.699200
    621    619    628     1   109.8000471 387.438400
    622    634    635     1   109.5600471 388.275200
    622    634    636     1   109.5600471 388.275200
    623    622    634     1   109.8000471 387.438400
    623    622    624     1   107.5800459 329.699200
    624    622    634     1   109.8000471 387.438400
    625    631    632     1   109.5600471 388.275200
    625    631    633     1   109.5600471 388.275200
    626    625    631     1   109.8000471 387.438400
    626    625    627     1   107.5800459 329.699200
    627    625    631     1   109.8000471 387.438400
    629    628    637     1   109.7800468 425.094400
    629    628    630     1   108.4600466 328.025600
    630    628    637     1   109.7800468 425.094400
    632    631   1304     1   109.7800468 425.094400
    632    631    633     1   108.4600466 328.025600
    633    631   1304     1   109.7800468 425.094400
    635    634   1333     1   109.7800468 425.094400
    635    634    636     1   108.4600466 328.025600
    636    634   1333     1   109.7800468 425.094400
    638    639    640     1   109.8800469 414.216000
    638    639    641     1   109.8800469 414.216000
    638    642    643     1   109.8800469 414.216000
    638    642    644     1   109.8800469 414.216000
    638    645    646     1   109.8800469 414.216000
    638    645    647     1   109.8800469 414.216000
    639    651    652     1   109.8000471 387.438400
    639    651    653     1   109.8000471 387.438400
    640    639    651     1   109.5600471 388.275200
    640    639    641     1   108.4600466 328.025600
    641    639    651     1   109.5600471 388.275200
    642    654    655     1   109.8000471 387.438400
    642    654    656     1   109.8000471 387.438400
    643    642    654     1   109.5600471 388.275200
    643    642    644     1   108.4600466 328.025600
    644    642    654     1   109.5600471 388.275200
    645    648    649     1   109.8000471 387.438400
    645    648    650     1   109.8000471 387.438400
    646    645    648     1   109.5600471 388.275200
    646    645    647     1   108.4600466 328.025600
    647    645    648     1   109.5600471 388.275200
    648    657    658     1   109.5600471 388.275200
    648    657    659     1   109.5600471 388.275200
    649    648    657     1   109.8000471 387.438400
    649    648    650     1   107.5800459 329.699200
    650    648    657     1   109.8000471 387.438400
    651    663    664     1   109.5600471 388.275200
    651    663    665     1   109.5600471 388.275200
    652    651    663     1   109.8000471 387.438400
    652    651    653     1   107.5800459 329.699200
    653    651    663     1   109.8000471 387.438400
    654    660    661     1   109.5600471 388.275200
    654    660    662     1   109.5600471 388.275200
    655    654    660     1   109.8000471 387.438400
    655    654    656     1   107.5800459 329.699200
    656    654    660     1   109.8000471 387.438400
    658    657    666     1   109.7800468 425.094400
    658    657    659     1   108.4600466 328.025600
    659    657    666     1   109.7800468 425.094400
    661    660   1362     1   109.7800468 425.094400
    661    660    662     1   108.4600466 328.025600
    662    660   1362     1   109.7800468 425.094400
    664    663   1391     1   109.7800468 425.094400
    664    663    665     1   108.4600466 328.025600
    665    663   1391     1   109.7800468 425.094400
    667    668    669     1   109.8800469 414.216000
    667    668    670     1   109.8800469 414.216000
    667    671    672     1   109.8800469 414.216000
    667    671    673     1   109.8800469 414.216000
    667    674    675     1   109.8800469 414.216000
    667    674    676     1   109.8800469 414.216000
    668    680    681     1   109.8000471 387.438400
    668    680    682     1   109.8000471 387.438400
    669    668    680     1   109.5600471 388.275200
    669    668    670     1   108.4600466 328.025600
    670    668    680     1   109.5600471 388.275200
    671    683    684     1   109.8000471 387.438400
    671    683    685     1   109.8000471 387.438400
    672    671    683     1   109.5600471 388.275200
    672    671    673     1   108.4600466 328.025600
    673    671    683     1   109.5600471 388.275200
    674    677    678     1   109.8000471 387.438400
    674    677    679     1   109.8000471 387.438400
    675    674    677     1   109.5600471 388.275200
    675    674    676     1   108.4600466 328.025600
    676    674    677     1   109.5600471 388.275200
    677    686    687     1   109.5600471 388.275200
    677    686    688     1   109.5600471 388.275200
    678    677    686     1   109.8000471 387.438400
    678    677    679     1   107.5800459 329.699200
    679    677    686     1   109.8000471 387.438400
    680    692    693     1   109.5600471 388.275200
    680    692    694     1   109.5600471 388.275200
    681    680    692     1   109.8000471 387.438400
    681    680    682     1   107.5800459 329.699200
    682    680    692     1   109.8000471 387.438400
    683    689    690     1   109.5600471 388.275200
    683    689    691     1   109.5600471 388.275200
    684    683    689     1   109.8000471 387.438400
    684    683    685     1   107.5800459 329.699200
    685    683    689     1   109.8000471 387.438400
    687    686    695     1   109.7800468 425.094400
    687    686    688     1   108.4600466 328.025600
    688    686    695     1   109.7800468 425.094400
    690    689   1420     1   109.7800468 425.094400
    690    689    691     1   108.4600466 328.025600
    691    689   1420     1   109.7800468 425.094400
    693    692   1449     1   109.7800468 425.094400
    693    692    694     1   108.4600466 328.025600
    694    692   1449     1   109.7800468 425.094400
    696    697    698     1   109.8800469 414.216000
    696    697    699     1   109.8800469 414.216000
    696    700    701     1   109.8800469 414.216000
    696    700    702     1   109.8800469 414.216000
    696    703    704     1   109.8800469 414.216000
    696    703    705     1   109.8800469 414.216000
    697    709    710     1   109.8000471 387.438400
    697    709    711     1   109.8000471 387.438400
    698    697    709     1   109.5600471 388.275200
    698    697    699     1   108.4600466 328.025600
    699    697    709     1   109.5600471 388.275200
    700    712    713     1   109.8000471 387.438400
    700    712    714     1   109.8000471 387.438400
    701    700    712     1   109.5600471 388.275200
    701    700    702     1   108.4600466 328.025600
    702    700    712     1   109.5600471 388.275200
    703    706    707     1   109.8000471 387.438400
    703    706    708     1   109.8000471 387.438400
    704    703    706     1   109.5600471 388.275200
    704    703    705     1   108.4600466 328.025600
    705    703    706     1   109.5600471 388.275200
    706    715    716     1   109.5600471 388.275200
    706    715    717     1   109.5600471 388.275200
    707    706    715     1   109.8000471 387.438400
    707    706    708     1   107.5800459 329.699200
    708    706    715     1   109.8000471 387.438400
    709    721    722     1   109.5600471 388.275200
    709    721    723     1   109.5600471 388.275200
    710    709    721     1   109.8000471 387.438400
    710    709    711     1   107.5800459 329.699200
    711    709    721     1   109.8000471 387.438400
    712    718    719     1   109.5600471 388.275200
    712    718    720     1   109.5600471 388.275200
    713    712    718     1   109.8000471 387.438400
    713    712    714     1   107.5800459 329.699200
    714    712    718     1   109.8000471 387.438400
    716    715    724     1   109.7800468 425.094400
    716    715    717     1   108.4600466 328.025600
    717    715    724     1   109.7800468 425.094400
    719    718   1478     1   109.7800468 425.094400
    719    718    720     1   108.4600466 328.025600
    720    718   1478     1   109.7800468 425.094400
    722    721   1507     1   109.7800468 425.094400
    722    721    723     1   108.4600466 328.025600
    723    721   1507     1   109.7800468 425.094400
    725    726    727     1   109.8800469 414.216000
    725    726    728     1   109.8800469 414.216000
    725    729    730     1   109.8800469 414.216000
    725    729    731     1   109.8800469 414.216000
    725    732    733     1   109.8800469 414.216000
    725    732    734     1   109.8800469 414.216000
    726    738    739     1   109.8000471 387.438400
    726    738    740     1   109.8000471 387.438400
    727    726    738     1   109.5600471 388.275200
    727    726    728     1   108.4600466 328.025600
    728    726    738     1   109.5600471 388.275200
    729    741    742     1   109.8000471 387.438400
    729    741    743     1   109.8000471 387.438400
    730    729    741     1   109.5600471 388.275200
    730    729    731     1   108.4600466 328.025600
    731    729    741     1   109.5600471 388.275200
    732    735    736     1   109.8000471 387.438400
    732    735    737     1   109.8000471 387.438400
    733    732    735     1   109.5600471 388.275200
    733    732    734     1   108.4600466 328.025600
    734    732    735     1   109.5600471 388.275200
    735    744    745     1   109.5600471 388.275200
    735    744    746     1   109.5600471 388.275200
    736    735    744     1   109.8000471 387.438400
    736    735    737     1   107.5800459 329.699200
    737    735    744     1   109.8000471 387.438400
    738    750    751     1   109.5600471 388.275200
    738    750    752     1   109.5600471 388.275200
    739    738    750     1   109.8000471 387.438400
    739    738    740     1   107.5800459 329.699200
    740    738    750     1   109.8000471 387.438400
    741    747    748     1   109.5600471 388.275200
    741    747    749     1   109.5600471 388.275200
    742    741    747     1   109.8000471 387.438400
    742    741    743     1   107.5800459 329.699200
    743    741    747     1   109.8000471 387.438400
    745    744    753     1   109.7800468 425.094400
    745    744    746     1   108.4600466 328.025600
    746    744    753     1   109.7800468 425.094400
    748    747   1536     1   109.7800468 425.094400
    748    747    749     1   108.4600466 328.025600
    749    747   1536     1   109.7800468 425.094400
    751    750   1565     1   109.7800468 425.094400
    751    750    752     1   108.4600466 328.025600
    752    750   1565     1   109.7800468 425.094400
    754    755    756     1   109.8800469 414.216000
    754    755    757     1   109.8800469 414.216000
    754    758    759     1   109.8800469 414.216000
    754    758    760     1   109.8800469 414.216000
    754    761    762     1   109.8800469 414.216000
    754    761    763     1   109.8800469 414.216000
    755    767    768     1   109.8000471 387.438400
    755    767    769     1   109.8000471 387.438400
    756    755    767     1   109.5600471 388.275200
    756    755    757     1   108.4600466 328.025600
    757    755    767     1   109.5600471 388.275200
    758    770    771     1   109.8000471 387.438400
    758    770    772     1   109.8000471 387.438400
    759    758    770     1   109.5600471 388.275200
    759    758    760     1   108.4600466 328.025600
    760    758    770     1   109.5600471 388.275200
    761    764    765     1   109.8000471 387.438400
    761    764    766     1   109.8000471 387.438400
    762    761    764     1   109.5600471 388.275200
    762    761    763     1   108.4600466 328.025600
    763    761    764     1   109.5600471 388.275200
    764    773    774     1   109.5600471 388.275200
    764    773    775     1   109.5600471 388.275200
    765    764    773     1   109.8000471 387.438400
    765    764    766     1   107.5800459 329.699200
    766    764    773     1   109.8000471 387.438400
    767    779    780     1   109.5600471 388.275200
    767    779    781     1   109.5600471 388.275200
    768    767    779     1   109.8000471 387.438400
    768    767    769     1   107.5800459 329.699200
    769    767    779     1   109.8000471 387.438400
    770    776    777     1   109.5600471 388.275200
    770    776    778     1   109.5600471 388.275200
    771    770    776     1   109.8000471 387.438400
    771    770    772     1   107.5800459 329.699200
    772    770    776     1   109.8000471 387.438400
    774    773    782     1   109.7800468 425.094400
    774    773    775     1   108.4600466 328.025600
    775    773    782     1   109.7800468 425.094400
    777    776   1594     1   109.7800468 425.094400
    777    776    778     1   108.4600466 328.025600
    778    776   1594     1   109.7800468 425.094400
    780    779   1623     1   109.7800468 425.094400
    780    779    781     1   108.4600466 328.025600
    781    779   1623     1   109.7800468 425.094400
    783    784    785     1   109.8800469 414.216000
    783    784    786     1   109.8800469 414.216000
    783    787    788     1   109.8800469 414.216000
    783    787    789     1   109.8800469 414.216000
    783    790    791     1   109.8800469 414.216000
    783    790    792     1   109.8800469 414.216000
    784    796    797     1   109.8000471 387.438400
    784    796    798     1   109.8000471 387.438400
    785    784    796     1   109.5600471 388.275200
    785    784    786     1   108.4600466 328.025600
    786    784    796     1   109.5600471 388.275200
    787    799    800     1   109.8000471 387.438400
    787    799    801     1   109.8000471 387.438400
    788    787    799     1   109.5600471 388.275200
    788    787    789     1   108.4600466 328.025600
    789    787    799     1   109.5600471 388.275200
    790    793    794     1   109.8000471 387.438400
    790    793    795     1   109.8000471 387.438400
    791    790    793     1   109.5600471 388.275200
    791    790    792     1   108.4600466 328.025600
    792    790    793     1   109.5600471 388.275200
    793    802    803     1   109.5600471 388.275200
    793    802    804     1   109.5600471 388.275200
    794    793    802     1   109.8000471 387.438400
    794    793    795     1   107.5800459 329.699200
    795    793    802     1   109.8000471 387.438400
    796    808    809     1   109.5600471 388.275200
    796    808    810     1   109.5600471 388.275200
    797    796    808     1   109.8000471 387.438400
    797    796    798     1   107.5800459 329.699200
    798    796    808     1   109.8000471 387.438400
    799    805    806     1   109.5600471 388.275200
    799    805    807     1   109.5600471 388.275200
    800    799    805     1   109.8000471 387.438400
    800    799    801     1   107.5800459 329.699200
    801    799    805     1   109.8000471 387.438400
    803    802    811     1   109.7800468 425.094400
    803    802    804     1   108.4600466 328.025600
    804    802    811     1   109.7800468 425.094400
    806    805   1652     1   109.7800468 425.094400
    806    805    807     1   108.4600466 328.025600
    807    805   1652     1   109.7800468 425.094400
    809    808   1681     1   109.7800468 425.094400
    809    808    810     1   108.4600466 328.025600
    810    808   1681     1   109.7800468 425.094400
    812    813    814     1   109.8800469 414.216000
    812    813    815     1   109.8800469 414.216000
    812    816    817     1   109.8800469 414.216000
    812    816    818     1   109.8800469 414.216000
    812    819    820     1   109.8800469 414.216000
    812    819    821     1   109.8800469 414.216000
    813    825    826     1   109.8000471 387.438400
    813    825    827     1   109.8000471 387.438400
    814    813    825     1   109.5600471 388.275200
    814    813    815     1   108.4600466 328.025600
    815    813    825     1   109.5600471 388.275200
    816    828    829     1   109.8000471 387.438400
    816    828    830     1   109.8000471 387.438400
    817    816    828     1   109.5600471 388.275200
    817    816    818     1   108.4600466 328.025600
    818    816    828     1   109.5600471 388.275200
    819    822    823     1   109.8000471 387.438400
    819    822    824     1   109.8000471 387.438400
    820    819    822     1   109.5600471 388.275200
    820    819    821     1   108.4600466 328.025600
    821    819    822     1   109.5600471 388.275200
    822    831    832     1   109.5600471 388.275200
    822    831    833     1   109.5600471 388.275200
    823    822    831     1   109.8000471 387.438400
    823    822    824     1   107.5800459 329.699200
    824    822    831     1   109.8000471 387.438400
    825    837    838     1   109.5600471 388.275200
    825    837    839     1   109.5600471 388.275200
    826    825    837     1   109.8000471 387.438400
    826    825    827     1   107.5800459 329.699200
    827    825    837     1   109.8000471 387.438400
    828    834    835     1   109.5600471 388.275200
    828    834    836     1   109.5600471 388.275200
    829    828    834     1   109.8000471 387.438400
    829    828    830     1   107.5800459 329.699200
    830    828    834     1   109.8000471 387.438400
    832    831    840     1   109.7800468 425.094400
    832    831    833     1   108.4600466 328.025600
    833    831    840     1   109.7800468 425.094400
    835    834   1710     1   109.7800468 425.094400
    835    834    836     1   108.4600466 328.025600
    836    834   1710     1   109.7800468 425.094400
    838    837   1739     1   109.7800468 425.094400
    838    837    839     1   108.4600466 328.025600
    839    837   1739     1   109.7800468 425.094400
    841    842    843     1   109.8800469 414.216000
    841    842    844     1   109.8800469 414.216000
    841    845    846     1   109.8800469 414.216000
    841    845    847     1   109.8800469 414.216000
    841    848    849     1   109.8800469 414.216000
    841    848    850     1   109.8800469 414.216000
    842    854    855     1   109.8000471 387.438400
    842    854    856     1   109.8000471 387.438400
    843    842    854     1   109.5600471 388.275200
    843    842    844     1   108.4600466 328.025600
    844    842    854     1   109.5600471 388.275200
    845    857    858     1   109.8000471 387.438400
    845    857    859     1   109.8000471 387.438400
    846    845    857     1   109.5600471 388.275200
    846    845    847     1   108.4600466 328.025600
    847    845    857     1   109.5600471 388.275200
    848    851    852     1   109.8000471 387.438400
    848    851    853     1   109.8000471 387.438400
    849    848    851     1   109.5600471 388.275200
    849    848    850     1   108.4600466 328.025600
    850    848    851     1   109.5600471 388.275200
    851    860    861     1   109.5600471 388.275200
    851    860    862     1   109.5600471 388.275200
    852    851    860     1   109.8000471 387.438400
    852    851    853     1   107.5800459 329.699200
    853    851    860     1   109.8000471 387.438400
    854    866    867     1   109.5600471 388.275200
    854    866    868     1   109.5600471 388.275200
    855    854    866     1   109.8000471 387.438400
    855    854    856     1   107.5800459 329.699200
    856    854    866     1   109.8000471 387.438400
    857    863    864     1   109.5600471 388.275200
    857    863    865     1   109.5600471 388.275200
    858    857    863     1   109.8000471 387.438400
    858    857    859     1   107.5800459 329.699200
    859    857    863     1   109.8000471 387.438400
    861    860    869     1   109.7800468 425.094400
    861    860    862     1   108.4600466 328.025600
    862    860    869     1   109.7800468 425.094400
    864    863   1768     1   109.7800468 425.094400
    864    863    865     1   108.4600466 328.025600
    865    863   1768     1   109.7800468 425.094400
    867    866   1797     1   109.7800468 425.094400
    867    866    868     1   108.4600466 328.025600
    868    866   1797     1   109.7800468 425.094400
    870    871    872     1   109.8800469 414.216000
    870    871    873     1   109.8800469 414.216000
    870    874    875     1   109.8800469 414.216000
    870    874    876     1   109.8800469 414.216000
    870    877    878     1   109.8800469 414.216000
    870    877    879     1   109.8800469 414.216000
    871    883    884     1   109.8000471 387.438400
    871    883    885     1   109.8000471 387.438400
    872    871    883     1   109.5600471 388.275200
    872    871    873     1   108.4600466 328.025600
    873    871    883     1   109.5600471 388.275200
    874    886    887     1   109.8000471 387.438400
    874    886    888     1   109.8000471 387.438400
    875    874    886     1   109.5600471 388.275200
    875    874    876     1   108.4600466 328.025600
    876    874    886     1   109.5600471 388.275200
    877    880    881     1   109.8000471 387.438400
    877    880    882     1   109.8000471 387.438400
    878    877    880     1   109.5600471 388.275200
    878    877    879     1   108.4600466 328.025600
    879    877    880     1   109.5600471 388.275200
    880    889    890     1   109.5600471 388.275200
    880    889    891     1   109.5600471 388.275200
    881    880    889     1   109.8000471 387.438400
    881    880    882     1   107.5800459 329.699200
    882    880    889     1   109.8000471 387.438400
    883    895    896     1   109.5600471 388.275200
    883    895    897     1   109.5600471 388.275200
    884    883    895     1   109.8000471 387.438400
    884    883    885     1   107.5800459 329.699200
    885    883    895     1   109.8000471 387.438400
    886    892    893     1   109.5600471 388.275200
    886    892    894     1   109.5600471 388.275200
    887    886    892     1   109.8000471 387.438400
    887    886    888     1   107.5800459 329.699200
    888    886    892     1   109.8000471 387.438400
    890    889    898     1   109.7800468 425.094400
    890    889    891     1   108.4600466 328.025600
    891    889    898     1   109.7800468 425.094400
    893    892   1826     1   109.7800468 425.094400
    893    892    894     1   108.4600466 328.025600
    894    892   1826     1   109.7800468 425.094400
    896    895   1855     1   109.7800468 425.094400
    896    895    897     1   108.4600466 328.025600
    897    895   1855     1   109.7800468 425.094400
    899    900    901     1   109.8800469 414.216000
    899    900    902     1   109.8800469 414.216000
    899    903    904     1   109.8800469 414.216000
    899    903    905     1   109.8800469 414.216000
    899    906    907     1   109.8800469 414.216000
    899    906    908     1   109.8800469 414.216000
    900    912    913     1   109.8000471 387.438400
    900    912    914     1   109.8000471 387.438400
    901    900    912     1   109.5600471 388.275200
    901    900    902     1   108.4600466 328.025600
    902    900    912     1   109.5600471 388.275200
    903    915    916     1   109.8000471 387.438400
    903    915    917     1   109.8000471 387.438400
    904    903    915     1   109.5600471 388.275200
    904    903    905     1   108.4600466 328.025600
    905    903    915     1   109.5600471 388.275200
    906    909    910     1   109.8000471 387.438400
    906    909    911     1   109.8000471 387.438400
    907    906    909     1   109.5600471 388.275200
    907    906    908     1   108.4600466 328.025600
    908    906    909     1   109.5600471 388.275200
    909    918    919     1   109.5600471 388.275200
    909    918    920     1   109.5600471 388.275200
    910    909    918     1   109.8000471 387.438400
    910    909    911     1   107.5800459 329.699200
    911    909    918     1   109.8000471 387.438400
    912    924    925     1   109.5600471 388.275200
    912    924    926     1   109.5600471 388.275200
    913    912    924     1   109.8000471 387.438400
    913    912    914     1   107.5800459 329.699200
    914    912    924     1   109.8000471 387.438400
    915    921    922     1   109.5600471 388.275200
    915    921    923     1   109.5600471 388.275200
    916    915    921     1   109.8000471 387.438400
    916    915    917     1   107.5800459 329.699200
    917    915    921     1   109.8000471 387.438400
    919    918    927     1   109.7800468 425.094400
    919    918    920     1   108.4600466 328.025600
    920    918    927     1   109.7800468 425.094400
    922    921   1884     1   109.7800468 425.094400
    922    921    923     1   108.4600466 328.025600
    923    921   1884     1   109.7800468 425.094400
    925    924   1913     1   109.7800468 425.094400
    925    924    926     1   108.4600466 328.025600
    926    924   1913     1   109.7800468 425.094400
    928    929    930     1   109.8800469 414.216000
    928    929    931     1   109.8800469 414.216000
    928    932    933     1   109.8800469 414.216000
    928    932    934     1   109.8800469 414.216000
    928    935    936     1   109.8800469 414.216000
    928    935    937     1   109.8800469 414.216000
    929    941    942     1   109.8000471 387.438400
    929    941    943     1   109.8000471 387.438400
    930    929    941     1   109.5600471 388.275200
    930    929    931     1   108.4600466 328.025600
    931    929    941     1   109.5600471 388.275200
    932    944    945     1   109.8000471 387.438400
    932    944    946     1   109.8000471 387.438400
    933    932    944     1   109.5600471 388.275200
    933    932    934     1   108.4600466 328.025600
    934    932    944     1   109.5600471 388.275200
    935    938    939     1   109.8000471 387.438400
    935    938    940     1   109.8000471 387.438400
    936    935    938     1   109.5600471 388.275200
    936    935    937     1   108.4600466 328.025600
    937    935    938     1   109.5600471 388.275200
    938    947    948     1   109.5600471 388.275200
    938    947    949     1   109.5600471 388.275200
    939    938    947     1   109.8000471 387.438400
    939    938    940     1   107.5800459 329.699200
    940    938    947     1   109.8000471 387.438400
    941    953    954     1   109.5600471 388.275200
    941    953    955     1   109.5600471 388.275200
    942    941    953     1   109.8000471 387.438400
    942    941    943     1   107.5800459 329.699200
    943    941    953     1   109.8000471 387.438400
    944    950    951     1   109.5600471 388.275200
    944    950    952     1   109.5600471 388.275200
    945    944    950     1   109.8000471 387.438400
    945    944    946     1   107.5800459 329.699200
    946    944    950     1   109.8000471 387.438400
    948    947    956     1   109.7800468 425.094400
    948    947    949     1   108.4600466 328.025600
    949    947    956     1   109.7800468 425.094400
    951    950   1942     1   109.7800468 425.094400
    951    950    952     1   108.4600466 328.025600
    952    950   1942     1   109.7800468 425.094400
    954    953   1971     1   109.7800468 425.094400
    954    953    955     1   108.4600466 328.025600
    955    953   1971     1   109.7800468 425.094400
    957    958    959     1   109.8800469 414.216000
    957    958    960     1   109.8800469 414.216000
    957    961    962     1   109.8800469 414.216000
    957    961    963     1   109.8800469 414.216000
    957    964    965     1   109.8800469 414.216000
    957    964    966     1   109.8800469 414.216000
    958    970    971     1   109.8000471 387.438400
    958    970    972     1   109.8000471 387.438400
    959    958    970     1   109.5600471 388.275200
    959    958    960     1   108.4600466 328.025600
    960    958    970     1   109.5600471 388.275200
    961    973    974     1   109.8000471 387.438400
    961    973    975     1   109.8000471 387.438400
    962    961    973     1   109.5600471 388.275200
    962    961    963     1   108.4600466 328.025600
    963    961    973     1   109.5600471 388.275200
    964    967    968     1   109.8000471 387.438400
    964    967    969     1   109.8000471 387.438400
    965    964    967     1   109.5600471 388.275200
    965    964    966     1   108.4600466 328.025600
    966    964    967     1   109.5600471 388.275200
    967    976    977     1   109.5600471 388.275200
    967    976    978     1   109.5600471 388.275200
    968    967    976     1   109.8000471 387.438400
    968    967    969     1   107.5800459 329.699200
    969    967    976     1   109.8000471 387.438400
    970    982    983     1   109.5600471 388.275200
    970    982    984     1   109.5600471 388.275200
    971    970    982     1   109.8000471 387.438400
    971    970    972     1   107.5800459 329.699200
    972    970    982     1   109.8000471 387.438400
    973    979    980     1   109.5600471 388.275200
    973    979    981     1   109.5600471 388.275200
    974    973    979     1   109.8000471 387.438400
    974    973    975     1   107.5800459 329.699200
    975    973    979     1   109.8000471 387.438400
    977    976    985     1   109.7800468 425.094400
    977    976    978     1   108.4600466 328.025600
    978    976    985     1   109.7800468 425.094400
    980    979   2000     1   109.7800468 425.094400
    980    979    981     1   108.4600466 328.025600
    981    979   2000     1   109.7800468 425.094400
    983    982   2029     1   109.7800468 425.094400
    983    982    984     1   108.4600466 328.025600
    984    982   2029     1   109.7800468 425.094400
    986    987    988     1   109.8800469 414.216000
    986    987    989     1   109.8800469 414.216000
    986    990    991     1   109.8800469 414.216000
    986    990    992     1   109.8800469 414.216000
    986    993    994     1   109.8800469 414.216000
    986    993    995     1   109.8800469 414.216000
    987    999   1000     1   109.8000471 387.438400
    987    999   1001     1   109.8000471 387.438400
    988    987    999     1   109.5600471 388.275200
    988    987    989     1   108.4600466 328.025600
    989    987    999     1   109.5600471 388.275200
    990   1002   1003     1   109.8000471 387.438400
    990   1002   1004     1   109.8000471 387.438400
    991    990   1002     1   109.5600471 388.275200
    991    990    992     1   108.4600466 328.025600
    992    990   1002     1   109.5600471 388.275200
    993    996    997     1   109.8000471 387.438400
    993    996    998     1   109.8000471 387.438400
    994    993    996     1   109.5600471 388.275200
    994    993    995     1   108.4600466 328.025600
    995    993    996     1   109.5600471 388.275200
    996   1005   1006     1   109.5600471 388.275200
    996   1005   1007     1   109.5600471 388.275200
    997    996   1005     1   109.8000471 387.438400
    997    996    998     1   107.5800459 329.699200
    998    996   1005     1   109.8000471 387.438400
    999   1011   1012     1   109.5600471 388.275200
    999   1011   1013     1   109.5600471 388.275200
   1000    999   1011     1   109.8000471 387.438400
   1000    999   1001     1   107.5800459 329.699200
   1001    999   1011     1   109.8000471 387.438400
   1002   1008   1009     1   109.5600471 388.275200
   1002   1008   1010     1   109.5600471 388.275200
   1003   1002   1008     1   109.8000471 387.438400
   1003   1002   1004     1   107.5800459 329.699200
   1004   1002   1008     1   109.8000471 387.438400
   1006   1005   1014     1   109.7800468 425.094400
   1006   1005   1007     1   108.4600466 328.025600
   1007   1005   1014     1   109.7800468 425.094400
   1009   1008   2058     1   109.7800468 425.094400
   1009   1008   1010     1   108.4600466 328.025600
   1010   1008   2058     1   109.7800468 425.094400
   1012   1011   2087     1   109.7800468 425.094400
   1012   1011   1013     1   108.4600466 328.025600
   1013   1011   2087     1   109.7800468 425.094400
   1015   1016   1017     1   109.8800469 414.216000
   1015   1016   1018     1   109.8800469 414.216000
   1015   1019   1020     1   109.8800469 414.216000
   1015   1019   1021     1   109.8800469 414.216000
   1015   1022   1023     1   109.8800469 414.216000
   1015   1022   1024     1   109.8800469 414.216000
   1016   1028   1029     1   109.8000471 387.438400
   1016   1028   1030     1   109.8000471 387.438400
   1017   1016   1028     1   109.5600471 388.275200
   1017   1016   1018     1   108.4600466 328.025600
   1018   1016   1028     1   109.5600471 388.275200
   1019   1031   1032     1   109.8000471 387.438400
   1019   1031   1033     1   109.8000471 387.438400
   1020   1019   1031     1   109.5600471 388.275200
   1020   1019   1021     1   108.4600466 328.025600
   1021   1019   1031     1   109.5600471 388.275200
   1022   1025   1026     1   109.8000471 387.438400
   1022   1025   1027     1   109.8000471 387.438400
   1023   1022   1025     1   109.5600471 388.275200
   1023   1022   1024     1   108.4600466 328.025600
   1024   1022   1025     1   109.5600471 388.275200
   1025   1034   1035     1   109.5600471 388.275200
   1025   1034   1036     1   109.5600471 388.275200
   1026   1025   1034     1   109.8000471 387.438400
   1026   1025   1027     1   107.5800459 329.699200
   1027   1025   1034     1   109.8000471 387.438400
   1028   1040   1041     1   109.5600471 388.275200
   1028   1040   1042     1   109.5600471 388.275200
   1029   1028   1040     1   109.8000471 387.438400
   1029   1028   1030     1   107.5800459 329.699200
   1030   1028   1040     1   109.8000471 387.438400
   1031   1037   1038     1   109.5600471 388.275200
   1031   1037   1039     1   109.5600471 388.275200
   1032   1031   1037     1   109.8000471 387.438400
   1032   1031   1033     1   107.5800459 329.699200
   1033   1031   1037     1   109.8000471 387.438400
   1035   1034   1043     1   109.7800468 425.094400
   1035   1034   1036     1   108.4600466 328.025600
   1036   1034   1043     1   109.7800468 425.094400
   1038   1037   2116     1   109.7800468 425.094400
   1038   1037   1039     1   108.4600466 328.025600
   1039   1037   2116     1   109.7800468 425.094400
   1041   1040   2145     1   109.7800468 425.094400
   1041   1040   1042     1   108.4600466 328.025600
   1042   1040   2145     1   109.7800468 425.094400
   1044   1045   1046     1   109.8800469 414.216000
   1044   1045   1047     1   109.8800469 414.216000
   1044   1048   1049     1   109.8800469 414.216000
   1044   1048   1050     1   109.8800469 414.216000
   1044   1051   1052     1   109.8800469 414.216000
   1044   1051   1053     1   109.8800469 414.216000
   1045   1057   1058     1   109.8000471 387.438400
   1045   1057   1059     1   109.8000471 387.438400
   1046   1045   1057     1   109.5600471 388.275200
   1046   1045   1047     1   108.4600466 328.025600
   1047   1045   1057     1   109.5600471 388.275200
   1048   1060   1061     1   109.8000471 387.438400
   1048   1060   1062     1   109.8000471 387.438400
   1049   1048   1060     1   109.5600471 388.275200
   1049   1048   1050     1   108.4600466 328.025600
   1050   1048   1060     1   109.5600471 388.275200
   1051   1054   1055     1   109.8000471 387.438400
   1051   1054   1056     1   109.8000471 387.438400
   1052   1051   1054     1   109.5600471 388.275200
   1052   1051   1053     1   108.4600466 328.025600
   1053   1051   1054     1   109.5600471 388.275200
   1054   1063   1064     1   109.5600471 388.275200
   1054   1063   1065     1   109.5600471 388.275200
   1055   1054   1063     1   109.8000471 387.438400
   1055   1054   1056     1   107.5800459 329.699200
   1056   1054   1063     1   109.8000471 387.438400
   1057   1069   1070     1   109.5600471 388.275200
   1057   1069   1071     1   109.5600471 388.275200
   1058   1057   1069     1   109.8000471 387.438400
   1058   1057   1059     1   107.5800459 329.699200
   1059   1057   1069     1   109.8000471 387.438400
   1060   1066   1067     1   109.5600471 388.275200
   1060   1066   1068     1   109.5600471 388.275200
   1061   1060   1066     1   109.8000471 387.438400
   1061   1060   1062     1   107.5800459 329.699200
   1062   1060   1066     1   109.8000471 387.438400
   1064   1063   1072     1   109.7800468 425.094400
   1064   1063   1065     1   108.4600466 328.025600
   1065   1063   1072     1   109.7800468 425.094400
   1067   1066   2174     1   109.7800468 425.094400
   1067   1066   1068     1   108.4600466 328.025600
   1068   1066   2174     1   109.7800468 425.094400
   1070   1069   2203     1   109.7800468 425.094400
   1070   1069   1071     1   108.4600466 328.025600
   1071   1069   2203     1   109.7800468 425.094400
   1073   1074   1075     1   109.8800469 414.216000
   1073   1074   1076     1   109.8800469 414.216000
   1073   1077   1078     1   109.8800469 414.216000
   1073   1077   1079     1   109.8800469 414.216000
   1073   1080   1081     1   109.8800469 414.216000
   1073   1080   1082     1   109.8800469 414.216000
   1074   1086   1087     1   109.8000471 387.438400
   1074   1086   1088     1   109.8000471 387.438400
   1075   1074   1086     1   109.5600471 388.275200
   1075   1074   1076     1   108.4600466 328.025600
   1076   1074   1086     1   109.5600471 388.275200
   1077   1089   1090     1   109.8000471 387.438400
   1077   1089   1091     1   109.8000471 387.438400
   1078   1077   1089     1   109.5600471 388.275200
   1078   1077   1079     1   108.4600466 328.025600
   1079   1077   1089     1   109.5600471 388.275200
   1080   1083   1084     1   109.8000471 387.438400
   1080   1083   1085     1   109.8000471 387.438400
   1081   1080   1083     1   109.5600471 388.275200
   1081   1080   1082     1   108.4600466 328.025600
   1082   1080   1083     1   109.5600471 388.275200
   1083   1092   1093     1   109.5600471 388.275200
   1083   1092   1094     1   109.5600471 388.275200
   1084   1083   1092     1   109.8000471 387.438400
   1084   1083   1085     1   107.5800459 329.699200
   1085   1083   1092     1   109.8000471 387.438400
   1086   1098   1099     1   109.5600471 388.275200
   1086   1098   1100     1   109.5600471 388.275200
   1087   1086   1098     1   109.8000471 387.438400
   1087   1086   1088     1   107.5800459 329.699200
   1088   1086   1098     1   109.8000471 387.438400
   1089   1095   1096     1   109.5600471 388.275200
   1089   1095   1097     1   109.5600471 388.275200
   1090   1089   1095     1   109.8000471 387.438400
   1090   1089   1091     1   107.5800459 329.699200
   1091   1089   1095     1   109.8000471 387.438400
   1093   1092   1101     1   109.7800468 425.094400
   1093   1092   1094     1   108.4600466 328.025600
   1094   1092   1101     1   109.7800468 425.094400
   1096   1095   2232     1   109.7800468 425.094400
   1096   1095   1097     1   108.4600466 328.025600
   1097   1095   2232     1   109.7800468 425.094400
   1099   1098   2261     1   109.7800468 425.094400
   1099   1098   1100     1   108.4600466 328.025600
   1100   1098   2261     1   109.7800468 425.094400
   1102   1103   1104     1   109.8800469 414.216000
   1102   1103   1105     1   109.8800469 414.216000
   1102   1106   1107     1   109.8800469 414.216000
   1102   1106   1108     1   109.8800469 414.216000
   1102   1109   1110     1   109.8800469 414.216000
   1102   1109   1111     1   109.8800469 414.216000
   1103   1115   1116     1   109.8000471 387.438400
   1103   1115   1117     1   109.8000471 387.438400
   1104   1103   1115     1   109.5600471 388.275200
   1104   1103   1105     1   108.4600466 328.025600
   1105   1103   1115     1   109.5600471 388.275200
   1106   1118   1119     1   109.8000471 387.438400
   1106   1118   1120     1   109.8000471 387.438400
   1107   1106   1118     1   109.5600471 388.275200
   1107   1106   1108     1   108.4600466 328.025600
   1108   1106   1118     1   109.5600471 388.275200
   1109   1112   1113     1   109.8000471 387.438400
   1109   1112   1114     1   109.8000471 387.438400
   1110   1109   1112     1   109.5600471 388.275200
   1110   1109   1111     1   108.4600466 328.025600
   1111   1109   1112     1   109.5600471 388.275200
   1112   1121   1122     1   109.5600471 388.275200
   1112   1121   1123     1   109.5600471 388.275200
   1113   1112   1121     1   109.8000471 387.438400
   1113   1112   1114     1   107.5800459 329.699200
   1114   1112   1121     1   109.8000471 387.438400
   1115   1127   1128     1   109.5600471 388.275200
   1115   1127   1129     1   109.5600471 388.275200
   1116   1115   1127     1   109.8000471 387.438400
   1116   1115   1117     1   107.5800459 329.699200
   1117   1115   1127     1   109.8000471 387.438400
   1118   1124   1125     1   109.5600471 388.275200
   1118   1124   1126     1   109.5600471 388.275200
   1119   1118   1124     1   109.8000471 387.438400
   1119   1118   1120     1   107.5800459 329.699200
   1120   1118   1124     1   109.8000471 387.438400
   1122   1121   1130     1   109.7800468 425.094400
   1122   1121   1123     1   108.4600466 328.025600
   1123   1121   1130     1   109.7800468 425.094400
   1125   1124   2290     1   109.7800468 425.094400
   1125   1124   1126     1   108.4600466 328.025600
   1126   1124   2290     1   109.7800468 425.094400
   1128   1127   2319     1   109.7800468 425.094400
   1128   1127   1129     1   108.4600466 328.025600
   1129   1127   2319     1   109.7800468 425.094400
   1131   1132   1133     1   109.8800469 414.216000
   1131   1132   1134     1   109.8800469 414.216000
   1131   1135   1136     1   109.8800469 414.216000
   1131   1135   1137     1   109.8800469 414.216000
   1131   1138   1139     1   109.8800469 414.216000
   1131   1138   1140     1   109.8800469 414.216000
   1132   1144   1145     1   109.8000471 387.438400
   1132   1144   1146     1   109.8000471 387.438400
   1133   1132   1144     1   109.5600471 388.275200
   1133   1132   1134     1   108.4600466 328.025600
   1134   1132   1144     1   109.5600471 388.275200
   1135   1147   1148     1   109.8000471 387.438400
   1135   1147   1149     1   109.8000471 387.438400
   1136   1135   1147     1   109.5600471 388.275200
   1136   1135   1137     1   108.4600466 328.025600
   1137   1135   1147     1   109.5600471 388.275200
   1138   1141   1142     1   109.8000471 387.438400
   1138   1141   1143     1   109.8000471 387.438400
   1139   1138   1141     1   109.5600471 388.275200
   1139   1138   1140     1   108.4600466 328.025600
   1140   1138   1141     1   109.5600471 388.275200
   1141   1150   1151     1   109.5600471 388.275200
   1141   1150   1152     1   109.5600471 388.275200
   1142   1141   1150     1   109.8000471 387.438400
   1142   1141   1143     1   107.5800459 329.699200
   1143   1141   1150     1   109.8000471 387.438400
   1144   1156   1157     1   109.5600471 388.275200
   1144   1156   1158     1   109.5600471 388.275200
   1145   1144   1156     1   109.8000471 387.438400
   1145   1144   1146     1   107.5800459 329.699200
   1146   1144   1156     1   109.8000471 387.438400
   1147   1153   1154     1   109.5600471 388.275200
   1147   1153   1155     1   109.5600471 388.275200
   1148   1147   1153     1   109.8000471 387.438400
   1148   1147   1149     1   107.5800459 329.699200
   1149   1147   1153     1   109.8000471 387.438400
   1151   1150   1159     1   109.7800468 425.094400
   1151   1150   1152     1   108.4600466 328.025600
   1152   1150   1159     1   109.7800468 425.094400
   1154   1153   2348     1   109.7800468 425.094400
   1154   1153   1155     1   108.4600466 328.025600
   1155   1153   2348     1   109.7800468 425.094400
   1157   1156   2377     1   109.7800468 425.094400
   1157   1156   1158     1   108.4600466 328.025600
   1158   1156   2377     1   109.7800468 425.094400
   1160   1161   1162     1   109.8800469 414.216000
   1160   1161   1163     1   109.8800469 414.216000
   1160   1164   1165     1   109.8800469 414.216000
   1160   1164   1166     1   109.8800469 414.216000
   1160   1167   1168     1   109.8800469 414.216000
   1160   1167   1169     1   109.8800469 414.216000
   1161   1173   1174     1   109.8000471 387.438400
   1161   1173   1175     1   109.8000471 387.438400
   1162   1161   1173     1   109.5600471 388.275200
   1162   1161   1163     1   108.4600466 328.025600
   1163   1161   1173     1   109.5600471 388.275200
   1164   1176   1177     1   109.8000471 387.438400
   1164   1176   1178     1   109.8000471 387.438400
   1165   1164   1176     1   109.5600471 388.275200
   1165   1164   1166     1   108.4600466 328.025600
   1166   1164   1176     1   109.5600471 388.275200
   1167   1170   1171     1   109.8000471 387.438400
   1167   1170   1172     1   109.8000471 387.438400
   1168   1167   1170     1   109.5600471 388.275200
   1168   1167   1169     1   108.4600466 328.025600
   1169   1167   1170     1   109.5600471 388.275200
   1170   1179   1180     1   109.5600471 388.275200
   1170   1179   1181     1   109.5600471 388.275200
   1171   1170   1179     1   109.8000471 387.438400
   1171   1170   1172     1   107.5800459 329.699200
   1172   1170   1179     1   109.8000471 387.438400
   1173   1185   1186     1   109.5600471 388.275200
   1173   1185   1187     1   109.5600471 388.275200
   1174   1173   1185     1   109.8000471 387.438400
   1174   1173   1175     1   107.5800459 329.699200
   1175   1173   1185     1   109.8000471 387.438400
   1176   1182   1183     1   109.5600471 388.275200
   1176   1182   1184     1   109.5600471 388.275200
   1177   1176   1182     1   109.8000471 387.438400
   1177   1176   1178     1   107.5800459 329.699200
   1178   1176   1182     1   109.8000471 387.438400
   1180   1179   1188     1   109.7800468 425.094400
   1180   1179   1181     1   108.4600466 328.025600
   1181   1179   1188     1   109.7800468 425.094400
   1183   1182   2406     1   109.7800468 425.094400
   1183   1182   1184     1   108.4600466 328.025600
   1184   1182   2406     1   109.7800468 425.094400
   1186   1185   2435     1   109.7800468 425.094400
   1186   1185   1187     1   108.4600466 328.025600
   1187   1185   2435     1   109.7800468 425.094400
   1189   1190   1191     1   109.8800469 414.216000
   1189   1190   1192     1   109.8800469 414.216000
   1189   1193   1194     1   109.8800469 414.216000
   1189   1193   1195     1   109.8800469 414.216000
   1189   1196   1197     1   109.8800469 414.216000
   1189   1196   1198     1   109.8800469 414.216000
   1190   1202   1203     1   109.8000471 387.438400
   1190   1202   1204     1   109.8000471 387.438400
   1191   1190   1202     1   109.5600471 388.275200
   1191   1190   1192     1   108.4600466 328.025600
   1192   1190   1202     1   109.5600471 388.275200
   1193   1205   1206     1   109.8000471 387.438400
   1193   1205   1207     1   109.8000471 387.438400
   1194   1193   1205     1   109.5600471 388.275200
   1194   1193   1195     1   108.4600466 328.025600
   1195   1193   1205     1   109.5600471 388.275200
   1196   1199   1200     1   109.8000471 387.438400
   1196   1199   1201     1   109.8000471 387.438400
   1197   1196   1199     1   109.5600471 388.275200
   1197   1196   1198     1   108.4600466 328.025600
   1198   1196   1199     1   109.5600471 388.275200
   1199   1208   1209     1   109.5600471 388.275200
   1199   1208   1210     1   109.5600471 388.275200
   1200   1199   1208     1   109.8000471 387.438400
   1200   1199   1201     1   107.5800459 329.699200
   1201   1199   1208     1   109.8000471 387.438400
   1202   1214   1215     1   109.5600471 388.275200
   1202   1214   1216     1   109.5600471 388.275200
   1203   1202   1214     1   109.8000471 387.438400
   1203   1202   1204     1   107.5800459 329.699200
   1204   1202   1214     1   109.8000471 387.438400
   1205   1211   1212     1   109.5600471 388.275200
   1205   1211   1213     1   109.5600471 388.275200
   1206   1205   1211     1   109.8000471 387.438400
   1206   1205   1207     1   107.5800459 329.699200
   1207   1205   1211     1   109.8000471 387.438400
   1209   1208   1217     1   109.7800468 425.094400
   1209   1208   1210     1   108.4600466 328.025600
   1210   1208   1217     1   109.7800468 425.094400
   1212   1211   2464     1   109.7800468 425.094400
   1212   1211   1213     1   108.4600466 328.025600
   1213   1211   2464     1   109.7800468 425.094400
   1215   1214   2493     1   109.7800468 425.094400
   1215   1214   1216     1   108.4600466 328.025600
   1216   1214   2493     1   109.7800468 425.094400
   1218   1219   1220     1   109.8800469 414.216000
   1218   1219   1221     1   109.8800469 414.216000
   1218   1222   1223     1   109.8800469 414.216000
   1218   1222   1224     1   109.8800469 414.216000
   1218   1225   1226     1   109.8800469 414.216000
   1218   1225   1227     1   109.8800469 414.216000
   1219   1231   1232     1   109.8000471 387.438400
   1219   1231   1233     1   109.8000471 387.438400
   1220   1219   1231     1   109.5600471 388.275200
   1220   1219   1221     1   108.4600466 328.025600
   1221   1219   1231     1   109.5600471 388.275200
   1222   1234   1235     1   109.8000471 387.438400
   1222   1234   1236     1   109.8000471 387.438400
   1223   1222   1234     1   109.5600471 388.275200
   1223   1222   1224     1   108.4600466 328.025600
   1224   1222   1234     1   109.5600471 388.275200
   1225   1228   1229     1   109.8000471 387.438400
   1225   1228   1230     1   109.8000471 387.438400
   1226   1225   1228     1   109.5600471 388.275200
   1226   1225   1227     1   108.4600466 328.025600
   1227   1225   1228     1   109.5600471 388.275200
   1228   1237   1238     1   109.5600471 388.275200
   1228   1237   1239     1   109.5600471 388.275200
   1229   1228   1237     1   109.8000471 387.438400
   1229   1228   1230     1   107.5800459 329.699200
   1230   1228   1237     1   109.8000471 387.438400
   1231   1243   1244     1   109.5600471 388.275200
   1231   1243   1245     1   109.5600471 388.275200
   1232   1231   1243     1   109.8000471 387.438400
   1232   1231   1233     1   107.5800459 329.699200
   1233   1231   1243     1   109.8000471 387.438400
   1234   1240   1241     1   109.5600471 388.275200
   1234   1240   1242     1   109.5600471 388.275200
   1235   1234   1240     1   109.8000471 387.438400
   1235   1234   1236     1   107.5800459 329.699200
   1236   1234   1240     1   109.8000471 387.438400
   1238   1237   1246     1   109.7800468 425.094400
   1238   1237   1239     1   108.4600466 328.025600
   1239   1237   1246     1   109.7800468 425.094400
   1241   1240   2522     1   109.7800468 425.094400
   1241   1240   1242     1   108.4600466 328.025600
   1242   1240   2522     1   109.7800468 425.094400
   1244   1243   2551     1   109.7800468 425.094400
   1244   1243   1245     1   108.4600466 328.025600
   1245   1243   2551     1   109.7800468 425.094400
   1247   1248   1249     1   109.8800469 414.216000
   1247   1248   1250     1   109.8800469 414.216000
   1247   1251   1252     1   109.8800469 414.216000
   1247   1251   1253     1   109.8800469 414.216000
   1247   1254   1255     1   109.8800469 414.216000
   1247   1254   1256     1   109.8800469 414.216000
   1248   1260   1261     1   109.8000471 387.438400
   1248   1260   1262     1   109.8000471 387.438400
   1249   1248   1260     1   109.5600471 388.275200
   1249   1248   1250     1   108.4600466 328.025600
   1250   1248   1260     1   109.5600471 388.275200
   1251   1263   1264     1   109.8000471 387.438400
   1251   1263   1265     1   109.8000471 387.438400
   1252   1251   1263     1   109.5600471 388.275200
   1252   1251   1253     1   108.4600466 328.025600
   1253   1251   1263     1   109.5600471 388.275200
   1254   1257   1258     1   109.8000471 387.438400
   1254   1257   1259     1   109.8000471 387.438400
   1255   1254   1257     1   109.5600471 388.275200
   1255   1254   1256     1   108.4600466 328.025600
   1256   1254   1257     1   109.5600471 388.275200
   1257   1266   1267     1   109.5600471 388.275200
   1257   1266   1268     1   109.5600471 388.275200
   1258   1257   1266     1   109.8000471 387.438400
   1258   1257   1259     1   107.5800459 329.699200
   1259   1257   1266     1   109.8000471 387.438400
   1260   1272   1273     1   109.5600471 388.275200
   1260   1272   1274     1   109.5600471 388.275200
   1261   1260   1272     1   109.8000471 387.438400
   1261   1260   1262     1   107.5800459 329.699200
   1262   1260   1272     1   109.8000471 387.438400
   1263   1269   1270     1   109.5600471 388.275200
   1263   1269   1271     1   109.5600471 388.275200
   1264   1263   1269     1   109.8000471 387.438400
   1264   1263   1265     1   107.5800459 329.699200
   1265   1263   1269     1   109.8000471 387.438400
   1267   1266   1275     1   109.7800468 425.094400
   1267   1266   1268     1   108.4600466 328.025600
   1268   1266   1275     1   109.7800468 425.094400
   1270   1269   2580     1   109.7800468 425.094400
   1270   1269   1271     1   108.4600466 328.025600
   1271   1269   2580     1   109.7800468 425.094400
   1273   1272   2609     1   109.7800468 425.094400
   1273   1272   1274     1   108.4600466 328.025600
   1274   1272   2609     1   109.7800468 425.094400
   1276   1277   1278     1   109.8800469 414.216000
   1276   1277   1279     1   109.8800469 414.216000
   1276   1280   1281     1   109.8800469 414.216000
   1276   1280   1282     1   109.8800469 414.216000
   1276   1283   1284     1   109.8800469 414.216000
   1276   1283   1285     1   109.8800469 414.216000
   1277   1289   1290     1   109.8000471 387.438400
   1277   1289   1291     1   109.8000471 387.438400
   1278   1277   1289     1   109.5600471 388.275200
   1278   1277   1279     1   108.4600466 328.025600
   1279   1277   1289     1   109.5600471 388.275200
   1280   1292   1293     1   109.8000471 387.438400
   1280   1292   1294     1   109.8000471 387.438400
   1281   1280   1292     1   109.5600471 388.275200
   1281   1280   1282     1   108.4600466 328.025600
   1282   1280   1292     1   109.5600471 388.275200
   1283   1286   1287     1   109.8000471 387.438400
   1283   1286   1288     1   109.8000471 387.438400
   1284   1283   1286     1   109.5600471 388.275200
   1284   1283   1285     1   108.4600466 328.025600
   1285   1283   1286     1   109.5600471 388.275200
   1286   1295   1296     1   109.5600471 388.275200
   1286   1295   1297     1   109.5600471 388.275200
   1287   1286   1295     1   109.8000471 387.438400
   1287   1286   1288     1   107.5800459 329.699200
   1288   1286   1295     1   109.8000471 387.438400
   1289   1301   1302     1   109.5600471 388.275200
   1289   1301   1303     1   109.5600471 388.275200
   1290   1289   1301     1   109.8000471 387.438400
   1290   1289   1291     1   107.5800459 329.699200
   1291   1289   1301     1   109.8000471 387.438400
   1292   1298   1299     1   109.5600471 388.275200
   1292   1298   1300     1   109.5600471 388.275200
   1293   1292   1298     1   109.8000471 387.438400
   1293   1292   1294     1   107.5800459 329.699200
   1294   1292   1298     1   109.8000471 387.438400
   1296   1295   1304     1   109.7800468 425.094400
   1296   1295   1297     1   108.4600466 328.025600
   1297   1295   1304     1   109.7800468 425.094400
   1299   1298   2638     1   109.7800468 425.094400
   1299   1298   1300     1   108.4600466 328.025600
   1300   1298   2638     1   109.7800468 425.094400
   1302   1301   2667     1   109.7800468 425.094400
   1302   1301   1303     1   108.4600466 328.025600
   1303   1301   2667     1   109.7800468 425.094400
   1305   1306   1307     1   109.8800469 414.216000
   1305   1306   1308     1   109.8800469 414.216000
   1305   1309   1310     1   109.8800469 414.216000
   1305   1309   1311     1   109.8800469 414.216000
   1305   1312   1313     1   109.8800469 414.216000
   1305   1312   1314     1   109.8800469 414.216000
   1306   1318   1319     1   109.8000471 387.438400
   1306   1318   1320     1   109.8000471 387.438400
   1307   1306   1318     1   109.5600471 388.275200
   1307   1306   1308     1   108.4600466 328.025600
   1308   1306   1318     1   109.5600471 388.275200
   1309   1321   1322     1   109.8000471 387.438400
   1309   1321   1323     1   109.8000471 387.438400
   1310   1309   1321     1   109.5600471 388.275200
   1310   1309   1311     1   108.4600466 328.025600
   1311   1309   1321     1   109.5600471 388.275200
   1312   1315   1316     1   109.8000471 387.438400
   1312   1315   1317     1   109.8000471 387.438400
   1313   1312   1315     1   109.5600471 388.275200
   1313   1312   1314     1   108.4600466 328.025600
   1314   1312   1315     1   109.5600471 388.275200
   1315   1324   1325     1   109.5600471 388.275200
   1315   1324   1326     1   109.5600471 388.275200
   1316   1315   1324     1   109.8000471 387.438400
   1316   1315   1317     1   107.5800459 329.699200
   1317   1315   1324     1   109.8000471 387.438400
   1318   1330   1331     1   109.5600471 388.275200
   1318   1330   1332     1   109.5600471 388.275200
   1319   1318   1330     1   109.8000471 387.438400
   1319   1318   1320     1   107.5800459 329.699200
   1320   1318   1330     1   109.8000471 387.438400
   1321   1327   1328     1   109.5600471 388.275200
   1321   1327   1329     1   109.5600471 388.275200
   1322   1321   1327     1   109.8000471 387.438400
   1322   1321   1323     1   107.5800459 329.699200
   1323   1321   1327     1   109.8000471 387.438400
   1325   1324   1333     1   109.7800468 425.094400
   1325   1324   1326     1   108.4600466 328.025600
   1326   1324   1333     1   109.7800468 425.094400
   1328   1327   2696     1   109.7800468 425.094400
   1328   1327   1329     1   108.4600466 328.025600
   1329   1327   2696     1   109.7800468 425.094400
   1331   1330   2725     1   109.7800468 425.094400
   1331   1330   1332     1   108.4600466 328.025600
   1332   1330   2725     1   109.7800468 425.094400
   1334   1335   1336     1   109.8800469 414.216000
   1334   1335   1337     1   109.8800469 414.216000
   1334   1338   1339     1   109.8800469 414.216000
   1334   1338   1340     1   109.8800469 414.216000
   1334   1341   1342     1   109.8800469 414.216000
   1334   1341   1343     1   109.8800469 414.216000
   1335   1347   1348     1   109.8000471 387.438400
   1335   1347   1349     1   109.8000471 387.438400
   1336   1335   1347     1   109.5600471 388.275200
   1336   1335   1337     1   108.4600466 328.025600
   1337   1335   1347     1   109.5600471 388.275200
   1338   1350   1351     1   109.8000471 387.438400
   1338   1350   1352     1   109.8000471 387.438400
   1339   1338   1350     1   109.5600471 388.275200
   1339   1338   1340     1   108.4600466 328.025600
   1340   1338   1350     1   109.5600471 388.275200
   1341   1344   1345     1   109.8000471 387.438400
   1341   1344   1346     1   109.8000471 387.438400
   1342   1341   1344     1   109.5600471 388.275200
   1342   1341   1343     1   108.4600466 328.025600
   1343   1341   1344     1   109.5600471 388.275200
   1344   1353   1354     1   109.5600471 388.275200
   1344   1353   1355     1   109.5600471 388.275200
   1345   1344   1353     1   109.8000471 387.438400
   1345   1344   1346     1   107.5800459 329.699200
   1346   1344   1353     1   109.8000471 387.438400
   1347   1359   1360     1   109.5600471 388.275200
   1347   1359   1361     1   109.5600471 388.275200
   1348   1347   1359     1   109.8000471 387.438400
   1348   1347   1349     1   107.5800459 329.699200
   1349   1347   1359     1   109.8000471 387.438400
   1350   1356   1357     1   109.5600471 388.275200
   1350   1356   1358     1   109.5600471 388.275200
   1351   1350   1356     1   109.8000471 387.438400
   1351   1350   1352     1   107.5800459 329.699200
   1352   1350   1356     1   109.8000471 387.438400
   1354   1353   1362     1   109.7800468 425.094400
   1354   1353   1355     1   108.4600466 328.025600
   1355   1353   1362     1   109.7800468 425.094400
   1357   1356   2754     1   109.7800468 425.094400
   1357   1356   1358     1   108.4600466 328.025600
   1358   1356   2754     1   109.7800468 425.094400
   1360   1359   2783     1   109.7800468 425.094400
   1360   1359   1361     1   108.4600466 328.025600
   1361   1359   2783     1   109.7800468 425.094400
   1363   1364   1365     1   109.8800469 414.216000
   1363   1364   1366     1   109.8800469 414.216000
   1363   1367   1368     1   109.8800469 414.216000
   1363   1367   1369     1   109.8800469 414.216000
   1363   1370   1371     1   109.8800469 414.216000
   1363   1370   1372     1   109.8800469 414.216000
   1364   1376   1377     1   109.8000471 387.438400
   1364   1376   1378     1   109.8000471 387.438400
   1365   1364   1376     1   109.5600471 388.275200
   1365   1364   1366     1   108.4600466 328.025600
   1366   1364   1376     1   109.5600471 388.275200
   1367   1379   1380     1   109.8000471 387.438400
   1367   1379   1381     1   109.8000471 387.438400
   1368   1367   1379     1   109.5600471 388.275200
   1368   1367   1369     1   108.4600466 328.025600
   1369   1367   1379     1   109.5600471 388.275200
   1370   1373   1374     1   109.8000471 387.438400
   1370   1373   1375     1   109.8000471 387.438400
   1371   1370   1373     1   109.5600471 388.275200
   1371   1370   1372     1   108.4600466 328.025600
   1372   1370   1373     1   109.5600471 388.275200
   1373   1382   1383     1   109.5600471 388.275200
   1373   1382   1384     1   109.5600471 388.275200
   1374   1373   1382     1   109.8000471 387.438400
   1374   1373   1375     1   107.5800459 329.699200
   1375   1373   1382     1   109.8000471 387.438400
   1376   1388   1389     1   109.5600471 388.275200
   1376   1388   1390     1   109.5600471 388.275200
   1377   1376   1388     1   109.8000471 387.438400
   1377   1376   1378     1   107.5800459 329.699200
   1378   1376   1388     1   109.8000471 387.438400
   1379   1385   1386     1   109.5600471 388.275200
   1379   1385   1387     1   109.5600471 388.275200
   1380   1379   1385     1   109.8000471 387.438400
   1380   1379   1381     1   107.5800459 329.699200
   1381   1379   1385     1   109.8000471 387.438400
   1383   1382   1391     1   109.7800468 425.094400
   1383   1382   1384     1   108.4600466 328.025600
   1384   1382   1391     1   109.7800468 425.094400
   1386   1385   2812     1   109.7800468 425.094400
   1386   1385   1387     1   108.4600466 328.025600
   1387   1385   2812     1   109.7800468 425.094400
   1389   1388   2841     1   109.7800468 425.094400
   1389   1388   1390     1   108.4600466 328.025600
   1390   1388   2841     1   109.7800468 425.094400
   1392   1393   1394     1   109.8800469 414.216000
   1392   1393   1395     1   109.8800469 414.216000
   1392   1396   1397     1   109.8800469 414.216000
   1392   1396   1398     1   109.8800469 414.216000
   1392   1399   1400     1   109.8800469 414.216000
   1392   1399   1401     1   109.8800469 414.216000
   1393   1405   1406     1   109.8000471 387.438400
   1393   1405   1407     1   109.8000471 387.438400
   1394   1393   1405     1   109.5600471 388.275200
   1394   1393   1395     1   108.4600466 328.025600
   1395   1393   1405     1   109.5600471 388.275200
   1396   1408   1409     1   109.8000471 387.438400
   1396   1408   1410     1   109.8000471 387.438400
   1397   1396   1408     1   109.5600471 388.275200
   1397   1396   1398     1   108.4600466 328.025600
   1398   1396   1408     1   109.5600471 388.275200
   1399   1402   1403     1   109.8000471 387.438400
   1399   1402   1404     1   109.8000471 387.438400
   1400   1399   1402     1   109.5600471 388.275200
   1400   1399   1401     1   108.4600466 328.025600
   1401   1399   1402     1   109.5600471 388.275200
   1402   1411   1412     1   109.5600471 388.275200
   1402   1411   1413     1   109.5600471 388.275200
   1403   1402   1411     1   109.8000471 387.438400
   1403   1402   1404     1   107.5800459 329.699200
   1404   1402   1411     1   109.8000471 387.438400
   1405   1417   1418     1   109.5600471 388.275200
   1405   1417   1419     1   109.5600471 388.275200
   1406   1405   1417     1   109.8000471 387.438400
   1406   1405   1407     1   107.5800459 329.699200
   1407   1405   1417     1   109.8000471 387.438400
   1408   1414   1415     1   109.5600471 388.275200
   1408   1414   1416     1   109.5600471 388.275200
   1409   1408   1414     1   109.8000471 387.438400
   1409   1408   1410     1   107.5800459 329.699200
   1410   1408   1414     1   109.8000471 387.438400
   1412   1411   1420     1   109.7800468 425.094400
   1412   1411   1413     1   108.4600466 328.025600
   1413   1411   1420     1   109.7800468 425.094400
   1415   1414   2870     1   109.7800468 425.094400
   1415   1414   1416     1   108.4600466 328.025600
   1416   1414   2870     1   109.7800468 425.094400
   1418   1417   2899     1   109.7800468 425.094400
   1418   1417   1419     1   108.4600466 328.025600
   1419   1417   2899     1   109.7800468 425.094400
   1421   1422   1423     1   109.8800469 414.216000
   1421   1422   1424     1   109.8800469 414.216000
   1421   1425   1426     1   109.8800469 414.216000
   1421   1425   1427     1   109.8800469 414.216000
   1421   1428   1429     1   109.8800469 414.216000
   1421   1428   1430     1   109.8800469 414.216000
   1422   1434   1435     1   109.8000471 387.438400
   1422   1434   1436     1   109.8000471 387.438400
   1423   1422   1434     1   109.5600471 388.275200
   1423   1422   1424     1   108.4600466 328.025600
   1424   1422   1434     1   109.5600471 388.275200
   1425   1437   1438     1   109.8000471 387.438400
   1425   1437   1439     1   109.8000471 387.438400
   1426   1425   1437     1   109.5600471 388.275200
   1426   1425   1427     1   108.4600466 328.025600
   1427   1425   1437     1   109.5600471 388.275200
   1428   1431   1432     1   109.8000471 387.438400
   1428   1431   1433     1   109.8000471 387.438400
   1429   1428   1431     1   109.5600471 388.275200
   1429   1428   1430     1   108.4600466 328.025600
   1430   1428   1431     1   109.5600471 388.275200
   1431   1440   1441     1   109.5600471 388.275200
   1431   1440   1442     1   109.5600471 388.275200
   1432   1431   1440     1   109.8000471 387.438400
   1432   1431   1433     1   107.5800459 329.699200
   1433   1431   1440     1   109.8000471 387.438400
   1434   1446   1447     1   109.5600471 388.275200
   1434   1446   1448     1   109.5600471 388.275200
   1435   1434   1446     1   109.8000471 387.438400
   1435   1434   1436     1   107.5800459 329.699200
   1436   1434   1446     1   109.8000471 387.438400
   1437   1443   1444     1   109.5600471 388.275200
   1437   1443   1445     1   109.5600471 388.275200
   1438   1437   1443     1   109.8000471 387.438400
   1438   1437   1439     1   107.5800459 329.699200
   1439   1437   1443     1   109.8000471 387.438400
   1441   1440   1449     1   109.7800468 425.094400
   1441   1440   1442     1   108.4600466 328.025600
   1442   1440   1449     1   109.7800468 425.094400
   1444   1443   2928     1   109.7800468 425.094400
   1444   1443   1445     1   108.4600466 328.025600
   1445   1443   2928     1   109.7800468 425.094400
   1447   1446   2957     1   109.7800468 425.094400
   1447   1446   1448     1   108.4600466 328.025600
   1448   1446   2957     1   109.7800468 425.094400
   1450   1451   1452     1   109.8800469 414.216000
   1450   1451   1453     1   109.8800469 414.216000
   1450   1454   1455     1   109.8800469 414.216000
   1450   1454   1456     1   109.8800469 414.216000
   1450   1457   1458     1   109.8800469 414.216000
   1450   1457   1459     1   109.8800469 414.216000
   1451   1463   1464     1   109.8000471 387.438400
   1451   1463   1465     1   109.8000471 387.438400
   1452   1451   1463     1   109.5600471 388.275200
   1452   1451   1453     1   108.4600466 328.025600
   1453   1451   1463     1   109.5600471 388.275200
   1454   1466   1467     1   109.8000471 387.438400
   1454   1466   1468     1   109.8000471 387.438400
   1455   1454   1466     1   109.5600471 388.275200
   1455   1454   1456     1   108.4600466 328.025600
   1456   1454   1466     1   109.5600471 388.275200
   1457   1460   1461     1   109.8000471 387.438400
   1457   1460   1462     1   109.8000471 387.438400
   1458   1457   1460     1   109.5600471 388.275200
   1458   1457   1459     1   108.4600466 328.025600
   1459   1457   1460     1   109.5600471 388.275200
   1460   1469   1470     1   109.5600471 388.275200
   1460   1469   1471     1   109.5600471 388.275200
   1461   1460   1469     1   109.8000471 387.438400
   1461   1460   1462     1   107.5800459 329.699200
   1462   1460   1469     1   109.8000471 387.438400
   1463   1475   1476     1   109.5600471 388.275200
   1463   1475   1477     1   109.5600471 388.275200
   1464   1463   1475     1   109.8000471 387.438400
   1464   1463   1465     1   107.5800459 329.699200
   1465   1463   1475     1   109.8000471 387.438400
   1466   1472   1473     1   109.5600471 388.275200
   1466   1472   1474     1   109.5600471 388.275200
   1467   1466   1472     1   109.8000471 387.438400
   1467   1466   1468     1   107.5800459 329.699200
   1468   1466   1472     1   109.8000471 387.438400
   1470   1469   1478     1   109.7800468 425.094400
   1470   1469   1471     1   108.4600466 328.025600
   1471   1469   1478     1   109.7800468 425.094400
   1473   1472   2986     1   109.7800468 425.094400
   1473   1472   1474     1   108.4600466 328.025600
   1474   1472   2986     1   109.7800468 425.094400
   1476   1475   3015     1   109.7800468 425.094400
   1476   1475   1477     1   108.4600466 328.025600
   1477   1475   3015     1   109.7800468 425.094400
   1479   1480   1481     1   109.8800469 414.216000
   1479   1480   1482     1   109.8800469 414.216000
   1479   1483   1484     1   109.8800469 414.216000
   1479   1483   1485     1   109.8800469 414.216000
   1479   1486   1487     1   109.8800469 414.216000
   1479   1486   1488     1   109.8800469 414.216000
   1480   1492   1493     1   109.8000471 387.438400
   1480   1492   1494     1   109.8000471 387.438400
   1481   1480   1492     1   109.5600471 388.275200
   1481   1480   1482     1   108.4600466 328.025600
   1482   1480   1492     1   109.5600471 388.275200
   1483   1495   1496     1   109.8000471 387.438400
   1483   1495   1497     1   109.8000471 387.438400
   1484   1483   1495     1   109.5600471 388.275200
   1484   1483   1485     1   108.4600466 328.025600
   1485   1483   1495     1   109.5600471 388.275200
   1486   1489   1490     1   109.8000471 387.438400
   1486   1489   1491     1   109.8000471 387.438400
   1487   1486   1489     1   109.5600471 388.275200
   1487   1486   1488     1   108.4600466 328.025600
   1488   1486   1489     1   109.5600471 388.275200
   1489   1498   1499     1   109.5600471 388.275200
   1489   1498   1500     1   109.5600471 388.275200
   1490   1489   1498     1   109.8000471 387.438400
   1490   1489   1491     1   107.5800459 329.699200
   1491   1489   1498     1   109.8000471 387.438400
   1492   1504   1505     1   109.5600471 388.275200
   1492   1504   1506     1   109.5600471 388.275200
   1493   1492   1504     1   109.8000471 387.438400
   1493   1492   1494     1   107.5800459 329.699200
   1494   1492   1504     1   109.8000471 387.438400
   1495   1501   1502     1   109.5600471 388.275200
   1495   1501   1503     1   109.5600471 388.275200
   1496   1495   1501     1   109.8000471 387.438400
   1496   1495   1497     1   107.5800459 329.699200
   1497   1495   1501     1   109.8000471 387.438400
   1499   1498   1507     1   109.7800468 425.094400
   1499   1498   1500     1   108.4600466 328.025600
   1500   1498   1507     1   109.7800468 425.094400
   1502   1501   3044     1   109.7800468 425.094400
   1502   1501   1503     1   108.4600466 328.025600
   1503   1501   3044     1   109.7800468 425.094400
   1505   1504   3073     1   109.7800468 425.094400
   1505   1504   1506     1   108.4600466 328.025600
   1506   1504   3073     1   109.7800468 425.094400
   1508   1509   1510     1   109.8800469 414.216000
   1508   1509   1511     1   109.8800469 414.216000
   1508   1512   1513     1   109.8800469 414.216000
   1508   1512   1514     1   109.8800469 414.216000
   1508   1515   1516     1   109.8800469 414.216000
   1508   1515   1517     1   109.8800469 414.216000
   1509   1521   1522     1   109.8000471 387.438400
   1509   1521   1523     1   109.8000471 387.438400
   1510   1509   1521     1   109.5600471 388.275200
   1510   1509   1511     1   108.4600466 328.025600
   1511   1509   1521     1   109.5600471 388.275200
   1512   1524   1525     1   109.8000471 387.438400
   1512   1524   1526     1   109.8000471 387.438400
   1513   1512   1524     1   109.5600471 388.275200
   1513   1512   1514     1   108.4600466 328.025600
   1514   1512   1524     1   109.5600471 388.275200
   1515   1518   1519     1   109.8000471 387.438400
   1515   1518   1520     1   109.8000471 387.438400
   1516   1515   1518     1   109.5600471 388.275200
   1516   1515   1517     1   108.4600466 328.025600
   1517   1515   1518     1   109.5600471 388.275200
   1518   1527   1528     1   109.5600471 388.275200
   1518   1527   1529     1   109.5600471 388.275200
   1519   1518   1527     1   109.8000471 387.438400
   1519   1518   1520     1   107.5800459 329.699200
   1520   1518   1527     1   109.8000471 387.438400
   1521   1533   1534     1   109.5600471 388.275200
   1521   1533   1535     1   109.5600471 388.275200
   1522   1521   1533     1   109.8000471 387.438400
   1522   1521   1523     1   107.5800459 329.699200
   1523   1521   1533     1   109.8000471 387.438400
   1524   1530   1531     1   109.5600471 388.275200
   1524   1530   1532     1   109.5600471 388.275200
   1525   1524   1530     1   109.8000471 387.438400
   1525   1524   1526     1   107.5800459 329.699200
   1526   1524   1530     1   109.8000471 387.438400
   1528   1527   1536     1   109.7800468 425.094400
   1528   1527   1529     1   108.4600466 328.025600
   1529   1527   1536     1   109.7800468 425.094400
   1531   1530   3102     1   109.7800468 425.094400
   1531   1530   1532     1   108.4600466 328.025600
   1532   1530   3102     1   109.7800468 425.094400
   1534   1533   3131     1   109.7800468 425.094400
   1534   1533   1535     1   108.4600466 328.025600
   1535   1533   3131     1   109.7800468 425.094400
   1537   1538   1539     1   109.8800469 414.216000
   1537   1538   1540     1   109.8800469 414.216000
   1537   1541   1542     1   109.8800469 414.216000
   1537   1541   1543     1   109.8800469 414.216000
   1537   1544   1545     1   109.8800469 414.216000
   1537   1544   1546     1   109.8800469 414.216000
   1538   1550   1551     1   109.8000471 387.438400
   1538   1550   1552     1   109.8000471 387.438400
   1539   1538   1550     1   109.5600471 388.275200
   1539   1538   1540     1   108.4600466 328.025600
   1540   1538   1550     1   109.5600471 388.275200
   1541   1553   1554     1   109.8000471 387.438400
   1541   1553   1555     1   109.8000471 387.438400
   1542   1541   1553     1   109.5600471 388.275200
   1542   1541   1543     1   108.4600466 328.025600
   1543   1541   1553     1   109.5600471 388.275200
   1544   1547   1548     1   109.8000471 387.438400
   1544   1547   1549     1   109.8000471 387.438400
   1545   1544   1547     1   109.5600471 388.275200
   1545   1544   1546     1   108.4600466 328.025600
   1546   1544   1547     1   109.5600471 388.275200
   1547   1556   1557     1   109.5600471 388.275200
   1547   1556   1558     1   109.5600471 388.275200
   1548   1547   1556     1   109.8000471 387.438400
   1548   1547   1549     1   107.5800459 329.699200
   1549   1547   1556     1   109.8000471 387.438400
   1550   1562   1563     1   109.5600471 388.275200
   1550   1562   1564     1   109.5600471 388.275200
   1551   1550   1562     1   109.8000471 387.438400
   1551   1550   1552     1   107.5800459 329.699200
   1552   1550   1562     1   109.8000471 387.438400
   1553   1559   1560     1   109.5600471 388.275200
   1553   1559   1561     1   109.5600471 388.275200
   1554   1553   1559     1   109.8000471 387.438400
   1554   1553   1555     1   107.5800459 329.699200
   1555   1553   1559     1   109.8000471 387.438400
   1557   1556   1565     1   109.7800468 425.094400
   1557   1556   1558     1   108.4600466 328.025600
   1558   1556   1565     1   109.7800468 425.094400
   1560   1559   3160     1   109.7800468 425.094400
   1560   1559   1561     1   108.4600466 328.025600
   1561   1559   3160     1   109.7800468 425.094400
   1563   1562   3189     1   109.7800468 425.094400
   1563   1562   1564     1   108.4600466 328.025600
   1564   1562   3189     1   109.7800468 425.094400
   1566   1567   1568     1   109.8800469 414.216000
   1566   1567   1569     1   109.8800469 414.216000
   1566   1570   1571     1   109.8800469 414.216000
   1566   1570   1572     1   109.8800469 414.216000
   1566   1573   1574     1   109.8800469 414.216000
   1566   1573   1575     1   109.8800469 414.216000
   1567   1579   1580     1   109.8000471 387.438400
   1567   1579   1581     1   109.8000471 387.438400
   1568   1567   1579     1   109.5600471 388.275200
   1568   1567   1569     1   108.4600466 328.025600
   1569   1567   1579     1   109.5600471 388.275200
   1570   1582   1583     1   109.8000471 387.438400
   1570   1582   1584     1   109.8000471 387.438400
   1571   1570   1582     1   109.5600471 388.275200
   1571   1570   1572     1   108.4600466 328.025600
   1572   1570   1582     1   109.5600471 388.275200
   1573   1576   1577     1   109.8000471 387.438400
   1573   1576   1578     1   109.8000471 387.438400
   1574   1573   1576     1   109.5600471 388.275200
   1574   1573   1575     1   108.4600466 328.025600
   1575   1573   1576     1   109.5600471 388.275200
   1576   1585   1586     1   109.5600471 388.275200
   1576   1585   1587     1   109.5600471 388.275200
   1577   1576   1585     1   109.8000471 387.438400
   1577   1576   1578     1   107.5800459 329.699200
   1578   1576   1585     1   109.8000471 387.438400
   1579   1591   1592     1   109.5600471 388.275200
   1579   1591   1593     1   109.5600471 388.275200
   1580   1579   1591     1   109.8000471 387.438400
   1580   1579   1581     1   107.5800459 329.699200
   1581   1579   1591     1   109.8000471 387.438400
   1582   1588   1589     1   109.5600471 388.275200
   1582   1588   1590     1   109.5600471 388.275200
   1583   1582   1588     1   109.8000471 387.438400
   1583   1582   1584     1   107.5800459 329.699200
   1584   1582   1588     1   109.8000471 387.438400
   1586   1585   1594     1   109.7800468 425.094400
   1586   1585   1587     1   108.4600466 328.025600
   1587   1585   1594     1   109.7800468 425.094400
   1589   1588   3218     1   109.7800468 425.094400
   1589   1588   1590     1   108.4600466 328.025600
   1590   1588   3218     1   109.7800468 425.094400
   1592   1591   3247     1   109.7800468 425.094400
   1592   1591   1593     1   108.4600466 328.025600
   1593   1591   3247     1   109.7800468 425.094400
   1595   1596   1597     1   109.8800469 414.216000
   1595   1596   1598     1   109.8800469 414.216000
   1595   1599   1600     1   109.8800469 414.216000
   1595   1599   1601     1   109.8800469 414.216000
   1595   1602   1603     1   109.8800469 414.216000
   1595   1602   1604     1   109.8800469 414.216000
   1596   1608   1609     1   109.8000471 387.438400
   1596   1608   1610     1   109.8000471 387.438400
   1597   1596   1608     1   109.5600471 388.275200
   1597   1596   1598     1   108.4600466 328.025600
   1598   1596   1608     1   109.5600471 388.275200
   1599   1611   1612     1   109.8000471 387.438400
   1599   1611   1613     1   109.8000471 387.438400
   1600   1599   1611     1   109.5600471 388.275200
   1600   1599   1601     1   108.4600466 328.025600
   1601   1599   1611     1   109.5600471 388.275200
   1602   1605   1606     1   109.8000471 387.438400
   1602   1605   1607     1   109.8000471 387.438400
   1603   1602   1605     1   109.5600471 388.275200
   1603   1602   1604     1   108.4600466 328.025600
   1604   1602   1605     1   109.5600471 388.275200
   1605   1614   1615     1   109.5600471 388.275200
   1605   1614   1616     1   109.5600471 388.275200
   1606   1605   1614     1   109.8000471 387.438400
   1606   1605   1607     1   107.5800459 329.699200
   1607   1605   1614     1   109.8000471 387.438400
   1608   1620   1621     1   109.5600471 388.275200
   1608   1620   1622     1   109.5600471 388.275200
   1609   1608   1620     1   109.8000471 387.438400
   1609   1608   1610     1   107.5800459 329.699200
   1610   1608   1620     1   109.8000471 387.438400
   1611   1617   1618     1   109.5600471 388.275200
   1611   1617   1619     1   109.5600471 388.275200
   1612   1611   1617     1   109.8000471 387.438400
   1612   1611   1613     1   107.5800459 329.699200
   1613   1611   1617     1   109.8000471 387.438400
   1615   1614   1623     1   109.7800468 425.094400
   1615   1614   1616     1   108.4600466 328.025600
   1616   1614   1623     1   109.7800468 425.094400
   1618   1617   3276     1   109.7800468 425.094400
   1618   1617   1619     1   108.4600466 328.025600
   1619   1617   3276     1   109.7800468 425.094400
   1621   1620   3305     1   109.7800468 425.094400
   1621   1620   1622     1   108.4600466 328.025600
   1622   1620   3305     1   109.7800468 425.094400
   1624   1625   1626     1   109.8800469 414.216000
   1624   1625   1627     1   109.8800469 414.216000
   1624   1628   1629     1   109.8800469 414.216000
   1624   1628   1630     1   109.8800469 414.216000
   1624   1631   1632     1   109.8800469 414.216000
   1624   1631   1633     1   109.8800469 414.216000
   1625   1637   1638     1   109.8000471 387.438400
   1625   1637   1639     1   109.8000471 387.438400
   1626   1625   1637     1   109.5600471 388.275200
   1626   1625   1627     1   108.4600466 328.025600
   1627   1625   1637     1   109.5600471 388.275200
   1628   1640   1641     1   109.8000471 387.438400
   1628   1640   1642     1   109.8000471 387.438400
   1629   1628   1640     1   109.5600471 388.275200
   1629   1628   1630     1   108.4600466 328.025600
   1630   1628   1640     1   109.5600471 388.275200
   1631   1634   1635     1   109.8000471 387.438400
   1631   1634   1636     1   109.8000471 387.438400
   1632   1631   1634     1   109.5600471 388.275200
   1632   1631   1633     1   108.4600466 328.025600
   1633   1631   1634     1   109.5600471 388.275200
   1634   1643   1644     1   109.5600471 388.275200
   1634   1643   1645     1   109.5600471 388.275200
   1635   1634   1643     1   109.8000471 387.438400
   1635   1634   1636     1   107.5800459 329.699200
   1636   1634   1643     1   109.8000471 387.438400
   1637   1649   1650     1   109.5600471 388.275200
   1637   1649   1651     1   109.5600471 388.275200
   1638   1637   1649     1   109.8000471 387.438400
   1638   1637   1639     1   107.5800459 329.699200
   1639   1637   1649     1   109.8000471 387.438400
   1640   1646   1647     1   109.5600471 388.275200
   1640   1646   1648     1   109.5600471 388.275200
   1641   1640   1646     1   109.8000471 387.438400
   1641   1640   1642     1   107.5800459 329.699200
   1642   1640   1646     1   109.8000471 387.438400
   1644   1643   1652     1   109.7800468 425.094400
   1644   1643   1645     1   108.4600466 328.025600
   1645   1643   1652     1   109.7800468 425.094400
   1647   1646   3334     1   109.7800468 425.094400
   1647   1646   1648     1   108.4600466 328.025600
   1648   1646   3334     1   109.7800468 425.094400
   1650   1649   3363     1   109.7800468 425.094400
   1650   1649   1651     1   108.4600466 328.025600
   1651   1649   3363     1   109.7800468 425.094400
   1653   1654   1655     1   109.8800469 414.216000
   1653   1654   1656     1   109.8800469 414.216000
   1653   1657   1658     1   109.8800469 414.216000
   1653   1657   1659     1   109.8800469 414.216000
   1653   1660   1661     1   109.8800469 414.216000
   1653   1660   1662     1   109.8800469 414.216000
   1654   1666   1667     1   109.8000471 387.438400
   1654   1666   1668     1   109.8000471 387.438400
   1655   1654   1666     1   109.5600471 388.275200
   1655   1654   1656     1   108.4600466 328.025600
   1656   1654   1666     1   109.5600471 388.275200
   1657   1669   1670     1   109.8000471 387.438400
   1657   1669   1671     1   109.8000471 387.438400
   1658   1657   1669     1   109.5600471 388.275200
   1658   1657   1659     1   108.4600466 328.025600
   1659   1657   1669     1   109.5600471 388.275200
   1660   1663   1664     1   109.8000471 387.438400
   1660   1663   1665     1   109.8000471 387.438400
   1661   1660   1663     1   109.5600471 388.275200
   1661   1660   1662     1   108.4600466 328.025600
   1662   1660   1663     1   109.5600471 388.275200
   1663   1672   1673     1   109.5600471 388.275200
   1663   1672   1674     1   109.5600471 388.275200
   1664   1663   1672     1   109.8000471 387.438400
   1664   1663   1665     1   107.5800459 329.699200
   1665   1663   1672     1   109.8000471 387.438400
   1666   1678   1679     1   109.5600471 388.275200
   1666   1678   1680     1   109.5600471 388.275200
   1667   1666   1678     1   109.8000471 387.438400
   1667   1666   1668     1   107.5800459 329.699200
   1668   1666   1678     1   109.8000471 387.438400
   1669   1675   1676     1   109.5600471 388.275200
   1669   1675   1677     1   109.5600471 388.275200
   1670   1669   1675     1   109.8000471 387.438400
   1670   1669   1671     1   107.5800459 329.699200
   1671   1669   1675     1   109.8000471 387.438400
   1673   1672   1681     1   109.7800468 425.094400
   1673   1672   1674     1   108.4600466 328.025600
   1674   1672   1681     1   109.7800468 425.094400
   1676   1675   3392     1   109.7800468 425.094400
   1676   1675   1677     1   108.4600466 328.025600
   1677   1675   3392     1   109.7800468 425.094400
   1679   1678   3421     1   109.7800468 425.094400
   1679   1678   1680     1   108.4600466 328.025600
   1680   1678   3421     1   109.7800468 425.094400
   1682   1683   1684     1   109.8800469 414.216000
   1682   1683   1685     1   109.8800469 414.216000
   1682   1686   1687     1   109.8800469 414.216000
   1682   1686   1688     1   109.8800469 414.216000
   1682   1689   1690     1   109.8800469 414.216000
   1682   1689   1691     1   109.8800469 414.216000
   1683   1695   1696     1   109.8000471 387.438400
   1683   1695   1697     1   109.8000471 387.438400
   1684   1683   1695     1   109.5600471 388.275200
   1684   1683   1685     1   108.4600466 328.025600
   1685   1683   1695     1   109.5600471 388.275200
   1686   1698   1699     1   109.8000471 387.438400
   1686   1698   1700     1   109.8000471 387.438400
   1687   1686   1698     1   109.5600471 388.275200
   1687   1686   1688     1   108.4600466 328.025600
   1688   1686   1698     1   109.5600471 388.275200
   1689   1692   1693     1   109.8000471 387.438400
   1689   1692   1694     1   109.8000471 387.438400
   1690   1689   1692     1   109.5600471 388.275200
   1690   1689   1691     1   108.4600466 328.025600
   1691   1689   1692     1   109.5600471 388.275200
   1692   1701   1702     1   109.5600471 388.275200
   1692   1701   1703     1   109.5600471 388.275200
   1693   1692   1701     1   109.8000471 387.438400
   1693   1692   1694     1   107.5800459 329.699200
   1694   1692   1701     1   109.8000471 387.438400
   1695   1707   1708     1   109.5600471 388.275200
   1695   1707   1709     1   109.5600471 388.275200
   1696   1695   1707     1   109.8000471 387.438400
   1696   1695   1697     1   107.5800459 329.699200
   1697   1695   1707     1   109.8000471 387.438400
   1698   1704   1705     1   109.5600471 388.275200
   1698   1704   1706     1   109.5600471 388.275200
   1699   1698   1704     1   109.8000471 387.438400
   1699   1698   1700     1   107.5800459 329.699200
   1700   1698   1704     1   109.8000471 387.438400
   1702   1701   1710     1   109.7800468 425.094400
   1702   1701   1703     1   108.4600466 328.025600
   1703   1701   1710     1   109.7800468 425.094400
   1705   1704   3450     1   109.7800468 425.094400
   1705   1704   1706     1   108.4600466 328.025600
   1706   1704   3450     1   109.7800468 425.094400
   1708   1707   3479     1   109.7800468 425.094400
   1708   1707   1709     1   108.4600466 328.025600
   1709   1707   3479     1   109.7800468 425.094400
   1711   1712   1713     1   109.8800469 414.216000
   1711   1712   1714     1   109.8800469 414.216000
   1711   1715   1716     1   109.8800469 414.216000
   1711   1715   1717     1   109.8800469 414.216000
   1711   1718   1719     1   109.8800469 414.216000
   1711   1718   1720     1   109.8800469 414.216000
   1712   1724   1725     1   109.8000471 387.438400
   1712   1724   1726     1   109.8000471 387.438400
   1713   1712   1724     1   109.5600471 388.275200
   1713   1712   1714     1   108.4600466 328.025600
   1714   1712   1724     1   109.5600471 388.275200
   1715   1727   1728     1   109.8000471 387.438400
   1715   1727   1729     1   109.8000471 387.438400
   1716   1715   1727     1   109.5600471 388.275200
   1716   1715   1717     1   108.4600466 328.025600
   1717   1715   1727     1   109.5600471 388.275200
   1718   1721   1722     1   109.8000471 387.438400
   1718   1721   1723     1   109.8000471 387.438400
   1719   1718   1721     1   109.5600471 388.275200
   1719   1718   1720     1   108.4600466 328.025600
   1720   1718   1721     1   109.5600471 388.275200
   1721   1730   1731     1   109.5600471 388.275200
   1721   1730   1732     1   109.5600471 388.275200
   1722   1721   1730     1   109.8000471 387.438400
   1722   1721   1723     1   107.5800459 329.699200
   1723   1721   1730     1   109.8000471 387.438400
   1724   1736   1737     1   109.5600471 388.275200
   1724   1736   1738     1   109.5600471 388.275200
   1725   1724   1736     1   109.8000471 387.438400
   1725   1724   1726     1   107.5800459 329.699200
   1726   1724   1736     1   109.8000471 387.438400
   1727   1733   1734     1   109.5600471 388.275200
   1727   1733   1735     1   109.5600471 388.275200
   1728   1727   1733     1   109.8000471 387.438400
   1728   1727   1729     1   107.5800459 329.699200
   1729   1727   1733     1   109.8000471 387.438400
   1731   1730   1739     1   109.7800468 425.094400
   1731   1730   1732     1   108.4600466 328.025600
   1732   1730   1739     1   109.7800468 425.094400
   1734   1733   3508     1   109.7800468 425.094400
   1734   1733   1735     1   108.4600466 328.025600
   1735   1733   3508     1   109.7800468 425.094400
   1737   1736   3537     1   109.7800468 425.094400
   1737   1736   1738     1   108.4600466 328.025600
   1738   1736   3537     1   109.7800468 425.094400
   1740   1741   1742     1   109.8800469 414.216000
   1740   1741   1743     1   109.8800469 414.216000
   1740   1744   1745     1   109.8800469 414.216000
   1740   1744   1746     1   109.8800469 414.216000
   1740   1747   1748     1   109.8800469 414.216000
   1740   1747   1749     1   109.8800469 414.216000
   1741   1753   1754     1   109.8000471 387.438400
   1741   1753   1755     1   109.8000471 387.438400
   1742   1741   1753     1   109.5600471 388.275200
   1742   1741   1743     1   108.4600466 328.025600
   1743   1741   1753     1   109.5600471 388.275200
   1744   1756   1757     1   109.8000471 387.438400
   1744   1756   1758     1   109.8000471 387.438400
   1745   1744   1756     1   109.5600471 388.275200
   1745   1744   1746     1   108.4600466 328.025600
   1746   1744   1756     1   109.5600471 388.275200
   1747   1750   1751     1   109.8000471 387.438400
   1747   1750   1752     1   109.8000471 387.438400
   1748   1747   1750     1   109.5600471 388.275200
   1748   1747   1749     1   108.4600466 328.025600
   1749   1747   1750     1   109.5600471 388.275200
   1750   1759   1760     1   109.5600471 388.275200
   1750   1759   1761     1   109.5600471 388.275200
   1751   1750   1759     1   109.8000471 387.438400
   1751   1750   1752     1   107.5800459 329.699200
   1752   1750   1759     1   109.8000471 387.438400
   1753   1765   1766     1   109.5600471 388.275200
   1753   1765   1767     1   109.5600471 388.275200
   1754   1753   1765     1   109.8000471 387.438400
   1754   1753   1755     1   107.5800459 329.699200
   1755   1753   1765     1   109.8000471 387.438400
   1756   1762   1763     1   109.5600471 388.275200
   1756   1762   1764     1   109.5600471 388.275200
   1757   1756   1762     1   109.8000471 387.438400
   1757   1756   1758     1   107.5800459 329.699200
   1758   1756   1762     1   109.8000471 387.438400
   1760   1759   1768     1   109.7800468 425.094400
   1760   1759   1761     1   108.4600466 328.025600
   1761   1759   1768     1   109.7800468 425.094400
   1763   1762   3566     1   109.7800468 425.094400
   1763   1762   1764     1   108.4600466 328.025600
   1764   1762   3566     1   109.7800468 425.094400
   1766   1765   3595     1   109.7800468 425.094400
   1766   1765   1767     1   108.4600466 328.025600
   1767   1765   3595     1   109.7800468 425.094400
   1769   1770   1771     1   109.8800469 414.216000
   1769   1770   1772     1   109.8800469 414.216000
   1769   1773   1774     1   109.8800469 414.216000
   1769   1773   1775     1   109.8800469 414.216000
   1769   1776   1777     1   109.8800469 414.216000
   1769   1776   1778     1   109.8800469 414.216000
   1770   1782   1783     1   109.8000471 387.438400
   1770   1782   1784     1   109.8000471 387.438400
   1771   1770   1782     1   109.5600471 388.275200
   1771   1770   1772     1   108.4600466 328.025600
   1772   1770   1782     1   109.5600471 388.275200
   1773   1785   1786     1   109.8000471 387.438400
   1773   1785   1787     1   109.8000471 387.438400
   1774   1773   1785     1   109.5600471 388.275200
   1774   1773   1775     1   108.4600466 328.025600
   1775   1773   1785     1   109.5600471 388.275200
   1776   1779   1780     1   109.8000471 387.438400
   1776   1779   1781     1   109.8000471 387.438400
   1777   1776   1779     1   109.5600471 388.275200
   1777   1776   1778     1   108.4600466 328.025600
   1778   1776   1779     1   109.5600471 388.275200
   1779   1788   1789     1   109.5600471 388.275200
   1779   1788   1790     1   109.5600471 388.275200
   1780   1779   1788     1   109.8000471 387.438400
   1780   1779   1781     1   107.5800459 329.699200
   1781   1779   1788     1   109.8000471 387.438400
   1782   1794   1795     1   109.5600471 388.275200
   1782   1794   1796     1   109.5600471 388.275200
   1783   1782   1794     1   109.8000471 387.438400
   1783   1782   1784     1   107.5800459 329.699200
   1784   1782   1794     1   109.8000471 387.438400
   1785   1791   1792     1   109.5600471 388.275200
   1785   1791   1793     1   109.5600471 388.275200
   1786   1785   1791     1   109.8000471 387.438400
   1786   1785   1787     1   107.5800459 329.699200
   1787   1785   1791     1   109.8000471 387.438400
   1789   1788   1797     1   109.7800468 425.094400
   1789   1788   1790     1   108.4600466 328.025600
   1790   1788   1797     1   109.7800468 425.094400
   1792   1791   3624     1   109.7800468 425.094400
   1792   1791   1793     1   108.4600466 328.025600
   1793   1791   3624     1   109.7800468 425.094400
   1795   1794   3653     1   109.7800468 425.094400
   1795   1794   1796     1   108.4600466 328.025600
   1796   1794   3653     1   109.7800468 425.094400
   1798   1799   1800     1   109.8800469 414.216000
   1798   1799   1801     1   109.8800469 414.216000
   1798   1802   1803     1   109.8800469 414.216000
   1798   1802   1804     1   109.8800469 414.216000
   1798   1805   1806     1   109.8800469 414.216000
   1798   1805   1807     1   109.8800469 414.216000
   1799   1811   1812     1   109.8000471 387.438400
   1799   1811   1813     1   109.8000471 387.438400
   1800   1799   1811     1   109.5600471 388.275200
   1800   1799   1801     1   108.4600466 328.025600
   1801   1799   1811     1   109.5600471 388.275200
   1802   1814   1815     1   109.8000471 387.438400
   1802   1814   1816     1   109.8000471 387.438400
   1803   1802   1814     1   109.5600471 388.275200
   1803   1802   1804     1   108.4600466 328.025600
   1804   1802   1814     1   109.5600471 388.275200
   1805   1808   1809     1   109.8000471 387.438400
   1805   1808   1810     1   109.8000471 387.438400
   1806   1805   1808     1   109.5600471 388.275200
   1806   1805   1807     1   108.4600466 328.025600
   1807   1805   1808     1   109.5600471 388.275200
   1808   1817   1818     1   109.5600471 388.275200
   1808   1817   1819     1   109.5600471 388.275200
   1809   1808   1817     1   109.8000471 387.438400
   1809   1808   1810     1   107.5800459 329.699200
   1810   1808   1817     1   109.8000471 387.438400
   1811   1823   1824     1   109.5600471 388.275200
   1811   1823   1825     1   109.5600471 388.275200
   1812   1811   1823     1   109.8000471 387.438400
   1812   1811   1813     1   107.5800459 329.699200
   1813   1811   1823     1   109.8000471 387.438400
   1814   1820   1821     1   109.5600471 388.275200
   1814   1820   1822     1   109.5600471 388.275200
   1815   1814   1820     1   109.8000471 387.438400
   1815   1814   1816     1   107.5800459 329.699200
   1816   1814   1820     1   109.8000471 387.438400
   1818   1817   1826     1   109.7800468 425.094400
   1818   1817   1819     1   108.4600466 328.025600
   1819   1817   1826     1   109.7800468 425.094400
   1821   1820   3682     1   109.7800468 425.094400
   1821   1820   1822     1   108.4600466 328.025600
   1822   1820   3682     1   109.7800468 425.094400
   1824   1823   3711     1   109.7800468 425.094400
   1824   1823   1825     1   108.4600466 328.025600
   1825   1823   3711     1   109.7800468 425.094400
   1827   1828   1829     1   109.8800469 414.216000
   1827   1828   1830     1   109.8800469 414.216000
   1827   1831   1832     1   109.8800469 414.216000
   1827   1831   1833     1   109.8800469 414.216000
   1827   1834   1835     1   109.8800469 414.216000
   1827   1834   1836     1   109.8800469 414.216000
   1828   1840   1841     1   109.8000471 387.438400
   1828   1840   1842     1   109.8000471 387.438400
   1829   1828   1840     1   109.5600471 388.275200
   1829   1828   1830     1   108.4600466 328.025600
   1830   1828   1840     1   109.5600471 388.275200
   1831   1843   1844     1   109.8000471 387.438400
   1831   1843   1845     1   109.8000471 387.438400
   1832   1831   1843     1   109.5600471 388.275200
   1832   1831   1833     1   108.4600466 328.025600
   1833   1831   1843     1   109.5600471 388.275200
   1834   1837   1838     1   109.8000471 387.438400
   1834   1837   1839     1   109.8000471 387.438400
   1835   1834   1837     1   109.5600471 388.275200
   1835   1834   1836     1   108.4600466 328.025600
   1836   1834   1837     1   109.5600471 388.275200
   1837   1846   1847     1   109.5600471 388.275200
   1837   1846   1848     1   109.5600471 388.275200
   1838   1837   1846     1   109.8000471 387.438400
   1838   1837   1839     1   107.5800459 329.699200
   1839   1837   1846     1   109.8000471 387.438400
   1840   1852   1853     1   109.5600471 388.275200
   1840   1852   1854     1   109.5600471 388.275200
   1841   1840   1852     1   109.8000471 387.438400
   1841   1840   1842     1   107.5800459 329.699200
   1842   1840   1852     1   109.8000471 387.438400
   1843   1849   1850     1   109.5600471 388.275200
   1843   1849   1851     1   109.5600471 388.275200
   1844   1843   1849     1   109.8000471 387.438400
   1844   1843   1845     1   107.5800459 329.699200
   1845   1843   1849     1   109.8000471 387.438400
   1847   1846   1855     1   109.7800468 425.094400
   1847   1846   1848     1   108.4600466 328.025600
   1848   1846   1855     1   109.7800468 425.094400
   1850   1849   3740     1   109.7800468 425.094400
   1850   1849   1851     1   108.4600466 328.025600
   1851   1849   3740     1   109.7800468 425.094400
   1853   1852   3769     1   109.7800468 425.094400
   1853   1852   1854     1   108.4600466 328.025600
   1854   1852   3769     1   109.7800468 425.094400
   1856   1857   1858     1   109.8800469 414.216000
   1856   1857   1859     1   109.8800469 414.216000
   1856   1860   1861     1   109.8800469 414.216000
   1856   1860   1862     1   109.8800469 414.216000
   1856   1863   1864     1   109.8800469 414.216000
   1856   1863   1865     1   109.8800469 414.216000
   1857   1869   1870     1   109.8000471 387.438400
   1857   1869   1871     1   109.8000471 387.438400
   1858   1857   1869     1   109.5600471 388.275200
   1858   1857   1859     1   108.4600466 328.025600
   1859   1857   1869     1   109.5600471 388.275200
   1860   1872   1873     1   109.8000471 387.438400
   1860   1872   1874     1   109.8000471 387.438400
   1861   1860   1872     1   109.5600471 388.275200
   1861   1860   1862     1   108.4600466 328.025600
   1862   1860   1872     1   109.5600471 388.275200
   1863   1866   1867     1   109.8000471 387.438400
   1863   1866   1868     1   109.8000471 387.438400
   1864   1863   1866     1   109.5600471 388.275200
   1864   1863   1865     1   108.4600466 328.025600
   1865   1863   1866     1   109.5600471 388.275200
   1866   1875   1876     1   109.5600471 388.275200
   1866   1875   1877     1   109.5600471 388.275200
   1867   1866   1875     1   109.8000471 387.438400
   1867   1866   1868     1   107.5800459 329.699200
   1868   1866   1875     1   109.8000471 387.438400
   1869   1881   1882     1   109.5600471 388.275200
   1869   1881   1883     1   109.5600471 388.275200
   1870   1869   1881     1   109.8000471 387.438400
   1870   1869   1871     1   107.5800459 329.699200
   1871   1869   1881     1   109.8000471 387.438400
   1872   1878   1879     1   109.5600471 388.275200
   1872   1878   1880     1   109.5600471 388.275200
   1873   1872   1878     1   109.8000471 387.438400
   1873   1872   1874     1   107.5800459 329.699200
   1874   1872   1878     1   109.8000471 387.438400
   1876   1875   1884     1   109.7800468 425.094400
   1876   1875   1877     1   108.4600466 328.025600
   1877   1875   1884     1   109.7800468 425.094400
   1879   1878   3798     1   109.7800468 425.094400
   1879   1878   1880     1   108.4600466 328.025600
   1880   1878   3798     1   109.7800468 425.094400
   1882   1881   3827     1   109.7800468 425.094400
   1882   1881   1883     1   108.4600466 328.025600
   1883   1881   3827     1   109.7800468 425.094400
   1885   1886   1887     1   109.8800469 414.216000
   1885   1886   1888     1   109.8800469 414.216000
   1885   1889   1890     1   109.8800469 414.216000
   1885   1889   1891     1   109.8800469 414.216000
   1885   1892   1893     1   109.8800469 414.216000
   1885   1892   1894     1   109.8800469 414.216000
   1886   1898   1899     1   109.8000471 387.438400
   1886   1898   1900     1   109.8000471 387.438400
   1887   1886   1898     1   109.5600471 388.275200
   1887   1886   1888     1   108.4600466 328.025600
   1888   1886   1898     1   109.5600471 388.275200
   1889   1901   1902     1   109.8000471 387.438400
   1889   1901   1903     1   109.8000471 387.438400
   1890   1889   1901     1   109.5600471 388.275200
   1890   1889   1891     1   108.4600466 328.025600
   1891   1889   1901     1   109.5600471 388.275200
   1892   1895   1896     1   109.8000471 387.438400
   1892   1895   1897     1   109.8000471 387.438400
   1893   1892   1895     1   109.5600471 388.275200
   1893   1892   1894     1   108.4600466 328.025600
   1894   1892   1895     1   109.5600471 388.275200
   1895   1904   1905     1   109.5600471 388.275200
   1895   1904   1906     1   109.5600471 388.275200
   1896   1895   1904     1   109.8000471 387.438400
   1896   1895   1897     1   107.5800459 329.699200
   1897   1895   1904     1   109.8000471 387.438400
   1898   1910   1911     1   109.5600471 388.275200
   1898   1910   1912     1   109.5600471 388.275200
   1899   1898   1910     1   109.8000471 387.438400
   1899   1898   1900     1   107.5800459 329.699200
   1900   1898   1910     1   109.8000471 387.438400
   1901   1907   1908     1   109.5600471 388.275200
   1901   1907   1909     1   109.5600471 388.275200
   1902   1901   1907     1   109.8000471 387.438400
   1902   1901   1903     1   107.5800459 329.699200
   1903   1901   1907     1   109.8000471 387.438400
   1905   1904   1913     1   109.7800468 425.094400
   1905   1904   1906     1   108.4600466 328.025600
   1906   1904   1913     1   109.7800468 425.094400
   1908   1907   3856     1   109.7800468 425.094400
   1908   1907   1909     1   108.4600466 328.025600
   1909   1907   3856     1   109.7800468 425.094400
   1911   1910   3885     1   109.7800468 425.094400
   1911   1910   1912     1   108.4600466 328.025600
   1912   1910   3885     1   109.7800468 425.094400
   1914   1915   1916     1   109.8800469 414.216000
   1914   1915   1917     1   109.8800469 414.216000
   1914   1918   1919     1   109.8800469 414.216000
   1914   1918   1920     1   109.8800469 414.216000
   1914   1921   1922     1   109.8800469 414.216000
   1914   1921   1923     1   109.8800469 414.216000
   1915   1927   1928     1   109.8000471 387.438400
   1915   1927   1929     1   109.8000471 387.438400
   1916   1915   1927     1   109.5600471 388.275200
   1916   1915   1917     1   108.4600466 328.025600
   1917   1915   1927     1   109.5600471 388.275200
   1918   1930   1931     1   109.8000471 387.438400
   1918   1930   1932     1   109.8000471 387.438400
   1919   1918   1930     1   109.5600471 388.275200
   1919   1918   1920     1   108.4600466 328.025600
   1920   1918   1930     1   109.5600471 388.275200
   1921   1924   1925     1   109.8000471 387.438400
   1921   1924   1926     1   109.8000471 387.438400
   1922   1921   1924     1   109.5600471 388.275200
   1922   1921   1923     1   108.4600466 328.025600
   1923   1921   1924     1   109.5600471 388.275200
   1924   1933   1934     1   109.5600471 388.275200
   1924   1933   1935     1   109.5600471 388.275200
   1925   1924   1933     1   109.8000471 387.438400
   1925   1924   1926     1   107.5800459 329.699200
   1926   1924   1933     1   109.8000471 387.438400
   1927   1939   1940     1   109.5600471 388.275200
   1927   1939   1941     1   109.5600471 388.275200
   1928   1927   1939     1   109.8000471 387.438400
   1928   1927   1929     1   107.5800459 329.699200
   1929   1927   1939     1   109.8000471 387.438400
   1930   1936   1937     1   109.5600471 388.275200
   1930   1936   1938     1   109.5600471 388.275200
   1931   1930   1936     1   109.8000471 387.438400
   1931   1930   1932     1   107.5800459 329.699200
   1932   1930   1936     1   109.8000471 387.438400
   1934   1933   1942     1   109.7800468 425.094400
   1934   1933   1935     1   108.4600466 328.025600
   1935   1933   1942     1   109.7800468 425.094400
   1937   1936   3914     1   109.7800468 425.094400
   1937   1936   1938     1   108.4600466 328.025600
   1938   1936   3914     1   109.7800468 425.094400
   1940   1939   3943     1   109.7800468 425.094400
   1940   1939   1941     1   108.4600466 328.025600
   1941   1939   3943     1   109.7800468 425.094400
   1943   1944   1945     1   109.8800469 414.216000
   1943   1944   1946     1   109.8800469 414.216000
   1943   1947   1948     1   109.8800469 414.216000
   1943   1947   1949     1   109.8800469 414.216000
   1943   1950   1951     1   109.8800469 414.216000
   1943   1950   1952     1   109.8800469 414.216000
   1944   1956   1957     1   109.8000471 387.438400
   1944   1956   1958     1   109.8000471 387.438400
   1945   1944   1956     1   109.5600471 388.275200
   1945   1944   1946     1   108.4600466 328.025600
   1946   1944   1956     1   109.5600471 388.275200
   1947   1959   1960     1   109.8000471 387.438400
   1947   1959   1961     1   109.8000471 387.438400
   1948   1947   1959     1   109.5600471 388.275200
   1948   1947   1949     1   108.4600466 328.025600
   1949   1947   1959     1   109.5600471 388.275200
   1950   1953   1954     1   109.8000471 387.438400
   1950   1953   1955     1   109.8000471 387.438400
   1951   1950   1953     1   109.5600471 388.275200
   1951   1950   1952     1   108.4600466 328.025600
   1952   1950   1953     1   109.5600471 388.275200
   1953   1962   1963     1   109.5600471 388.275200
   1953   1962   1964     1   109.5600471 388.275200
   1954   1953   1962     1   109.8000471 387.438400
   1954   1953   1955     1   107.5800459 329.699200
   1955   1953   1962     1   109.8000471 387.438400
   1956   1968   1969     1   109.5600471 388.275200
   1956   1968   1970     1   109.5600471 388.275200
   1957   1956   1968     1   109.8000471 387.438400
   1957   1956   1958     1   107.5800459 329.699200
   1958   1956   1968     1   109.8000471 387.438400
   1959   1965   1966     1   109.5600471 388.275200
   1959   1965   1967     1   109.5600471 388.275200
   1960   1959   1965     1   109.8000471 387.438400
   1960   1959   1961     1   107.5800459 329.699200
   1961   1959   1965     1   109.8000471 387.438400
   1963   1962   1971     1   109.7800468 425.094400
   1963   1962   1964     1   108.4600466 328.025600
   1964   1962   1971     1   109.7800468 425.094400
   1966   1965   3972     1   109.7800468 425.094400
   1966   1965   1967     1   108.4600466 328.025600
   1967   1965   3972     1   109.7800468 425.094400
   1969   1968   4001     1   109.7800468 425.094400
   1969   1968   1970     1   108.4600466 328.025600
   1970   1968   4001     1   109.7800468 425.094400
   1972   1973   1974     1   109.8800469 414.216000
   1972   1973   1975     1   109.8800469 414.216000
   1972   1976   1977     1   109.8800469 414.216000
   1972   1976   1978     1   109.8800469 414.216000
   1972   1979   1980     1   109.8800469 414.216000
   1972   1979   1981     1   109.8800469 414.216000
   1973   1985   1986     1   109.8000471 387.438400
   1973   1985   1987     1   109.8000471 387.438400
   1974   1973   1985     1   109.5600471 388.275200
   1974   1973   1975     1   108.4600466 328.025600
   1975   1973   1985     1   109.5600471 388.275200
   1976   1988   1989     1   109.8000471 387.438400
   1976   1988   1990     1   109.8000471 387.438400
   1977   1976   1988     1   109.5600471 388.275200
   1977   1976   1978     1   108.4600466 328.025600
   1978   1976   1988     1   109.5600471 388.275200
   1979   1982   1983     1   109.8000471 387.438400
   1979   1982   1984     1   109.8000471 387.438400
   1980   1979   1982     1   109.5600471 388.275200
   1980   1979   1981     1   108.4600466 328.025600
   1981   1979   1982     1   109.5600471 388.275200
   1982   1991   1992     1   109.5600471 388.275200
   1982   1991   1993     1   109.5600471 388.275200
   1983   1982   1991     1   109.8000471 387.438400
   1983   1982   1984     1   107.5800459 329.699200
   1984   1982   1991     1   109.8000471 387.438400
   1985   1997   1998     1   109.5600471 388.275200
   1985   1997   1999     1   109.5600471 388.275200
   1986   1985   1997     1   109.8000471 387.438400
   1986   1985   1987     1   107.5800459 329.699200
   1987   1985   1997     1   109.8000471 387.438400
   1988   1994   1995     1   109.5600471 388.275200
   1988   1994   1996     1   109.5600471 388.275200
   1989   1988   1994     1   109.8000471 387.438400
   1989   1988   1990     1   107.5800459 329.699200
   1990   1988   1994     1   109.8000471 387.438400
   1992   1991   2000     1   109.7800468 425.094400
   1992   1991   1993     1   108.4600466 328.025600
   1993   1991   2000     1   109.7800468 425.094400
   1995   1994   4030     1   109.7800468 425.094400
   1995   1994   1996     1   108.4600466 328.025600
   1996   1994   4030     1   109.7800468 425.094400
   1998   1997   4059     1   109.7800468 425.094400
   1998   1997   1999     1   108.4600466 328.025600
   1999   1997   4059     1   109.7800468 425.094400
   2001   2002   2003     1   109.8800469 414.216000
   2001   2002   2004     1   109.8800469 414.216000
   2001   2005   2006     1   109.8800469 414.216000
   2001   2005   2007     1   109.8800469 414.216000
   2001   2008   2009     1   109.8800469 414.216000
   2001   2008   2010     1   109.8800469 414.216000
   2002   2014   2015     1   109.8000471 387.438400
   2002   2014   2016     1   109.8000471 387.438400
   2003   2002   2014     1   109.5600471 388.275200
   2003   2002   2004     1   108.4600466 328.025600
   2004   2002   2014     1   109.5600471 388.275200
   2005   2017   2018     1   109.8000471 387.438400
   2005   2017   2019     1   109.8000471 387.438400
   2006   2005   2017     1   109.5600471 388.275200
   2006   2005   2007     1   108.4600466 328.025600
   2007   2005   2017     1   109.5600471 388.275200
   2008   2011   2012     1   109.8000471 387.438400
   2008   2011   2013     1   109.8000471 387.438400
   2009   2008   2011     1   109.5600471 388.275200
   2009   2008   2010     1   108.4600466 328.025600
   2010   2008   2011     1   109.5600471 388.275200
   2011   2020   2021     1   109.5600471 388.275200
   2011   2020   2022     1   109.5600471 388.275200
   2012   2011   2020     1   109.8000471 387.438400
   2012   2011   2013     1   107.5800459 329.699200
   2013   2011   2020     1   109.8000471 387.438400
   2014   2026   2027     1   109.5600471 388.275200
   2014   2026   2028     1   109.5600471 388.275200
   2015   2014   2026     1   109.8000471 387.438400
   2015   2014   2016     1   107.5800459 329.699200
   2016   2014   2026     1   109.8000471 387.438400
   2017   2023   2024     1   109.5600471 388.275200
   2017   2023   2025     1   109.5600471 388.275200
   2018   2017   2023     1   109.8000471 387.438400
   2018   2017   2019     1   107.5800459 329.699200
   2019   2017   2023     1   109.8000471 387.438400
   2021   2020   2029     1   109.7800468 425.094400
   2021   2020   2022     1   108.4600466 328.025600
   2022   2020   2029     1   109.7800468 425.094400
   2024   2023   4088     1   109.7800468 425.094400
   2024   2023   2025     1   108.4600466 328.025600
   2025   2023   4088     1   109.7800468 425.094400
   2027   2026   4117     1   109.7800468 425.094400
   2027   2026   2028     1   108.4600466 328.025600
   2028   2026   4117     1   109.7800468 425.094400
   2030   2031   2032     1   109.8800469 414.216000
   2030   2031   2033     1   109.8800469 414.216000
   2030   2034   2035     1   109.8800469 414.216000
   2030   2034   2036     1   109.8800469 414.216000
   2030   2037   2038     1   109.8800469 414.216000
   2030   2037   2039     1   109.8800469 414.216000
   2031   2043   2044     1   109.8000471 387.438400
   2031   2043   2045     1   109.8000471 387.438400
   2032   2031   2043     1   109.5600471 388.275200
   2032   2031   2033     1   108.4600466 328.025600
   2033   2031   2043     1   109.5600471 388.275200
   2034   2046   2047     1   109.8000471 387.438400
   2034   2046   2048     1   109.8000471 387.438400
   2035   2034   2046     1   109.5600471 388.275200
   2035   2034   2036     1   108.4600466 328.025600
   2036   2034   2046     1   109.5600471 388.275200
   2037   2040   2041     1   109.8000471 387.438400
   2037   2040   2042     1   109.8000471 387.438400
   2038   2037   2040     1   109.5600471 388.275200
   2038   2037   2039     1   108.4600466 328.025600
   2039   2037   2040     1   109.5600471 388.275200
   2040   2049   2050     1   109.5600471 388.275200
   2040   2049   2051     1   109.5600471 388.275200
   2041   2040   2049     1   109.8000471 387.438400
   2041   2040   2042     1   107.5800459 329.699200
   2042   2040   2049     1   109.8000471 387.438400
   2043   2055   2056     1   109.5600471 388.275200
   2043   2055   2057     1   109.5600471 388.275200
   2044   2043   2055     1   109.8000471 387.438400
   2044   2043   2045     1   107.5800459 329.699200
   2045   2043   2055     1   109.8000471 387.438400
   2046   2052   2053     1   109.5600471 388.275200
   2046   2052   2054     1   109.5600471 388.275200
   2047   2046   2052     1   109.8000471 387.438400
   2047   2046   2048     1   107.5800459 329.699200
   2048   2046   2052     1   109.8000471 387.438400
   2050   2049   2058     1   109.7800468 425.094400
   2050   2049   2051     1   108.4600466 328.025600
   2051   2049   2058     1   109.7800468 425.094400
   2053   2052   4146     1   109.7800468 425.094400
   2053   2052   2054     1   108.4600466 328.025600
   2054   2052   4146     1   109.7800468 425.094400
   2056   2055   4175     1   109.7800468 425.094400
   2056   2055   2057     1   108.4600466 328.025600
   2057   2055   4175     1   109.7800468 425.094400
   2059   2060   2061     1   109.8800469 414.216000
   2059   2060   2062     1   109.8800469 414.216000
   2059   2063   2064     1   109.8800469 414.216000
   2059   2063   2065     1   109.8800469 414.216000
   2059   2066   2067     1   109.8800469 414.216000
   2059   2066   2068     1   109.8800469 414.216000
   2060   2072   2073     1   109.8000471 387.438400
   2060   2072   2074     1   109.8000471 387.438400
   2061   2060   2072     1   109.5600471 388.275200
   2061   2060   2062     1   108.4600466 328.025600
   2062   2060   2072     1   109.5600471 388.275200
   2063   2075   2076     1   109.8000471 387.438400
   2063   2075   2077     1   109.8000471 387.438400
   2064   2063   2075     1   109.5600471 388.275200
   2064   2063   2065     1   108.4600466 328.025600
   2065   2063   2075     1   109.5600471 388.275200
   2066   2069   2070     1   109.8000471 387.438400
   2066   2069   2071     1   109.8000471 387.438400
   2067   2066   2069     1   109.5600471 388.275200
   2067   2066   2068     1   108.4600466 328.025600
   2068   2066   2069     1   109.5600471 388.275200
   2069   2078   2079     1   109.5600471 388.275200
   2069   2078   2080     1   109.5600471 388.275200
   2070   2069   2078     1   109.8000471 387.438400
   2070   2069   2071     1   107.5800459 329.699200
   2071   2069   2078     1   109.8000471 387.438400
   2072   2084   2085     1   109.5600471 388.275200
   2072   2084   2086     1   109.5600471 388.275200
   2073   2072   2084     1   109.8000471 387.438400
   2073   2072   2074     1   107.5800459 329.699200
   2074   2072   2084     1   109.8000471 387.438400
   2075   2081   2082     1   109.5600471 388.275200
   2075   2081   2083     1   109.5600471 388.275200
   2076   2075   2081     1   109.8000471 387.438400
   2076   2075   2077     1   107.5800459 329.699200
   2077   2075   2081     1   109.8000471 387.438400
   2079   2078   2087     1   109.7800468 425.094400
   2079   2078   2080     1   108.4600466 328.025600
   2080   2078   2087     1   109.7800468 425.094400
   2082   2081   4204     1   109.7800468 425.094400
   2082   2081   2083     1   108.4600466 328.025600
   2083   2081   4204     1   109.7800468 425.094400
   2085   2084   4233     1   109.7800468 425.094400
   2085   2084   2086     1   108.4600466 328.025600
   2086   2084   4233     1   109.7800468 425.094400
   2088   2089   2090     1   109.8800469 414.216000
   2088   2089   2091     1   109.8800469 414.216000
   2088   2092   2093     1   109.8800469 414.216000
   2088   2092   2094     1   109.8800469 414.216000
   2088   2095   2096     1   109.8800469 414.216000
   2088   2095   2097     1   109.8800469 414.216000
   2089   2101   2102     1   109.8000471 387.438400
   2089   2101   2103     1   109.8000471 387.438400
   2090   2089   2101     1   109.5600471 388.275200
   2090   2089   2091     1   108.4600466 328.025600
   2091   2089   2101     1   109.5600471 388.275200
   2092   2104   2105     1   109.8000471 387.438400
   2092   2104   2106     1   109.8000471 387.438400
   2093   2092   2104     1   109.5600471 388.275200
   2093   2092   2094     1   108.4600466 328.025600
   2094   2092   2104     1   109.5600471 388.275200
   2095   2098   2099     1   109.8000471 387.438400
   2095   2098   2100     1   109.8000471 387.438400
   2096   2095   2098     1   109.5600471 388.275200
   2096   2095   2097     1   108.4600466 328.025600
   2097   2095   2098     1   109.5600471 388.275200
   2098   2107   2108     1   109.5600471 388.275200
   2098   2107   2109     1   109.5600471 388.275200
   2099   2098   2107     1   109.8000471 387.438400
   2099   2098   2100     1   107.5800459 329.699200
   2100   2098   2107     1   109.8000471 387.438400
   2101   2113   2114     1   109.5600471 388.275200
   2101   2113   2115     1   109.5600471 388.275200
   2102   2101   2113     1   109.8000471 387.438400
   2102   2101   2103     1   107.5800459 329.699200
   2103   2101   2113     1   109.8000471 387.438400
   2104   2110   2111     1   109.5600471 388.275200
   2104   2110   2112     1   109.5600471 388.275200
   2105   2104   2110     1   109.8000471 387.438400
   2105   2104   2106     1   107.5800459 329.699200
   2106   2104   2110     1   109.8000471 387.438400
   2108   2107   2116     1   109.7800468 425.094400
   2108   2107   2109     1   108.4600466 328.025600
   2109   2107   2116     1   109.7800468 425.094400
   2111   2110   4262     1   109.7800468 425.094400
   2111   2110   2112     1   108.4600466 328.025600
   2112   2110   4262     1   109.7800468 425.094400
   2114   2113   4291     1   109.7800468 425.094400
   2114   2113   2115     1   108.4600466 328.025600
   2115   2113   4291     1   109.7800468 425.094400
   2117   2118   2119     1   109.8800469 414.216000
   2117   2118   2120     1   109.8800469 414.216000
   2117   2121   2122     1   109.8800469 414.216000
   2117   2121   2123     1   109.8800469 414.216000
   2117   2124   2125     1   109.8800469 414.216000
   2117   2124   2126     1   109.8800469 414.216000
   2118   2130   2131     1   109.8000471 387.438400
   2118   2130   2132     1   109.8000471 387.438400
   2119   2118   2130     1   109.5600471 388.275200
   2119   2118   2120     1   108.4600466 328.025600
   2120   2118   2130     1   109.5600471 388.275200
   2121   2133   2134     1   109.8000471 387.438400
   2121   2133   2135     1   109.8000471 387.438400
   2122   2121   2133     1   109.5600471 388.275200
   2122   2121   2123     1   108.4600466 328.025600
   2123   2121   2133     1   109.5600471 388.275200
   2124   2127   2128     1   109.8000471 387.438400
   2124   2127   2129     1   109.8000471 387.438400
   2125   2124   2127     1   109.5600471 388.275200
   2125   2124   2126     1   108.4600466 328.025600
   2126   2124   2127     1   109.5600471 388.275200
   2127   2136   2137     1   109.5600471 388.275200
   2127   2136   2138     1   109.5600471 388.275200
   2128   2127   2136     1   109.8000471 387.438400
   2128   2127   2129     1   107.5800459 329.699200
   2129   2127   2136     1   109.8000471 387.438400
   2130   2142   2143     1   109.5600471 388.275200
   2130   2142   2144     1   109.5600471 388.275200
   2131   2130   2142     1   109.8000471 387.438400
   2131   2130   2132     1   107.5800459 329.699200
   2132   2130   2142     1   109.8000471 387.438400
   2133   2139   2140     1   109.5600471 388.275200
   2133   2139   2141     1   109.5600471 388.275200
   2134   2133   2139     1   109.8000471 387.438400
   2134   2133   2135     1   107.5800459 329.699200
   2135   2133   2139     1   109.8000471 387.438400
   2137   2136   2145     1   109.7800468 425.094400
   2137   2136   2138     1   108.4600466 328.025600
   2138   2136   2145     1   109.7800468 425.094400
   2140   2139   4320     1   109.7800468 425.094400
   2140   2139   2141     1   108.4600466 328.025600
   2141   2139   4320     1   109.7800468 425.094400
   2143   2142   4349     1   109.7800468 425.094400
   2143   2142   2144     1   108.4600466 328.025600
   2144   2142   4349     1   109.7800468 425.094400
   2146   2147   2148     1   109.8800469 414.216000
   2146   2147   2149     1   109.8800469 414.216000
   2146   2150   2151     1   109.8800469 414.216000
   2146   2150   2152     1   109.8800469 414.216000
   2146   2153   2154     1   109.8800469 414.216000
   2146   2153   2155     1   109.8800469 414.216000
   2147   2159   2160     1   109.8000471 387.438400
   2147   2159   2161     1   109.8000471 387.438400
   2148   2147   2159     1   109.5600471 388.275200
   2148   2147   2149     1   108.4600466 328.025600
   2149   2147   2159     1   109.5600471 388.275200
   2150   2162   2163     1   109.8000471 387.438400
   2150   2162   2164     1   109.8000471 387.438400
   2151   2150   2162     1   109.5600471 388.275200
   2151   2150   2152     1   108.4600466 328.025600
   2152   2150   2162     1   109.5600471 388.275200
   2153   2156   2157     1   109.8000471 387.438400
   2153   2156   2158     1   109.8000471 387.438400
   2154   2153   2156     1   109.5600471 388.275200
   2154   2153   2155     1   108.4600466 328.025600
   2155   2153   2156     1   109.5600471 388.275200
   2156   2165   2166     1   109.5600471 388.275200
   2156   2165   2167     1   109.5600471 388.275200
   2157   2156   2165     1   109.8000471 387.438400
   2157   2156   2158     1   107.5800459 329.699200
   2158   2156   2165     1   109.8000471 387.438400
   2159   2171   2172     1   109.5600471 388.275200
   2159   2171   2173     1   109.5600471 388.275200
   2160   2159   2171     1   109.8000471 387.438400
   2160   2159   2161     1   107.5800459 329.699200
   2161   2159   2171     1   109.8000471 387.438400
   2162   2168   2169     1   109.5600471 388.275200
   2162   2168   2170     1   109.5600471 388.275200
   2163   2162   2168     1   109.8000471 387.438400
   2163   2162   2164     1   107.5800459 329.699200
   2164   2162   2168     1   109.8000471 387.438400
   2166   2165   2174     1   109.7800468 425.094400
   2166   2165   2167     1   108.4600466 328.025600
   2167   2165   2174     1   109.7800468 425.094400
   2169   2168   4378     1   109.7800468 425.094400
   2169   2168   2170     1   108.4600466 328.025600
   2170   2168   4378     1   109.7800468 425.094400
   2172   2171   4407     1   109.7800468 425.094400
   2172   2171   2173     1   108.4600466 328.025600
   2173   2171   4407     1   109.7800468 425.094400
   2175   2176   2177     1   109.8800469 414.216000
   2175   2176   2178     1   109.8800469 414.216000
   2175   2179   2180     1   109.8800469 414.216000
   2175   2179   2181     1   109.8800469 414.216000
   2175   2182   2183     1   109.8800469 414.216000
   2175   2182   2184     1   109.8800469 414.216000
   2176   2188   2189     1   109.8000471 387.438400
   2176   2188   2190     1   109.8000471 387.438400
   2177   2176   2188     1   109.5600471 388.275200
   2177   2176   2178     1   108.4600466 328.025600
   2178   2176   2188     1   109.5600471 388.275200
   2179   2191   2192     1   109.8000471 387.438400
   2179   2191   2193     1   109.8000471 387.438400
   2180   2179   2191     1   109.5600471 388.275200
   2180   2179   2181     1   108.4600466 328.025600
   2181   2179   2191     1   109.5600471 388.275200
   2182   2185   2186     1   109.8000471 387.438400
   2182   2185   2187     1   109.8000471 387.438400
   2183   2182   2185     1   109.5600471 388.275200
   2183   2182   2184     1   108.4600466 328.025600
   2184   2182   2185     1   109.5600471 388.275200
   2185   2194   2195     1   109.5600471 388.275200
   2185   2194   2196     1   109.5600471 388.275200
   2186   2185   2194     1   109.8000471 387.438400
   2186   2185   2187     1   107.5800459 329.699200
   2187   2185   2194     1   109.8000471 387.438400
   2188   2200   2201     1   109.5600471 388.275200
   2188   2200   2202     1   109.5600471 388.275200
   2189   2188   2200     1   109.8000471 387.438400
   2189   2188   2190     1   107.5800459 329.699200
   2190   2188   2200     1   109.8000471 387.438400
   2191   2197   2198     1   109.5600471 388.275200
   2191   2197   2199     1   109.5600471 388.275200
   2192   2191   2197     1   109.8000471 387.438400
   2192   2191   2193     1   107.5800459 329.699200
   2193   2191   2197     1   109.8000471 387.438400
   2195   2194   2203     1   109.7800468 425.094400
   2195   2194   2196     1   108.4600466 328.025600
   2196   2194   2203     1   109.7800468 425.094400
   2198   2197   4436     1   109.7800468 425.094400
   2198   2197   2199     1   108.4600466 328.025600
   2199   2197   4436     1   109.7800468 425.094400
   2201   2200   4465     1   109.7800468 425.094400
   2201   2200   2202     1   108.4600466 328.025600
   2202   2200   4465     1   109.7800468 425.094400
   2204   2205   2206     1   109.8800469 414.216000
   2204   2205   2207     1   109.8800469 414.216000
   2204   2208   2209     1   109.8800469 414.216000
   2204   2208   2210     1   109.8800469 414.216000
   2204   2211   2212     1   109.8800469 414.216000
   2204   2211   2213     1   109.8800469 414.216000
   2205   2217   2218     1   109.8000471 387.438400
   2205   2217   2219     1   109.8000471 387.438400
   2206   2205   2217     1   109.5600471 388.275200
   2206   2205   2207     1   108.4600466 328.025600
   2207   2205   2217     1   109.5600471 388.275200
   2208   2220   2221     1   109.8000471 387.438400
   2208   2220   2222     1   109.8000471 387.438400
   2209   2208   2220     1   109.5600471 388.275200
   2209   2208   2210     1   108.4600466 328.025600
   2210   2208   2220     1   109.5600471 388.275200
   2211   2214   2215     1   109.8000471 387.438400
   2211   2214   2216     1   109.8000471 387.438400
   2212   2211   2214     1   109.5600471 388.275200
   2212   2211   2213     1   108.4600466 328.025600
   2213   2211   2214     1   109.5600471 388.275200
   2214   2223   2224     1   109.5600471 388.275200
   2214   2223   2225     1   109.5600471 388.275200
   2215   2214   2223     1   109.8000471 387.438400
   2215   2214   2216     1   107.5800459 329.699200
   2216   2214   2223     1   109.8000471 387.438400
   2217   2229   2230     1   109.5600471 388.275200
   2217   2229   2231     1   109.5600471 388.275200
   2218   2217   2229     1   109.8000471 387.438400
   2218   2217   2219     1   107.5800459 329.699200
   2219   2217   2229     1   109.8000471 387.438400
   2220   2226   2227     1   109.5600471 388.275200
   2220   2226   2228     1   109.5600471 388.275200
   2221   2220   2226     1   109.8000471 387.438400
   2221   2220   2222     1   107.5800459 329.699200
   2222   2220   2226     1   109.8000471 387.438400
   2224   2223   2232     1   109.7800468 425.094400
   2224   2223   2225     1   108.4600466 328.025600
   2225   2223   2232     1   109.7800468 425.094400
   2227   2226   4494     1   109.7800468 425.094400
   2227   2226   2228     1   108.4600466 328.025600
   2228   2226   4494     1   109.7800468 425.094400
   2230   2229   4523     1   109.7800468 425.094400
   2230   2229   2231     1   108.4600466 328.025600
   2231   2229   4523     1   109.7800468 425.094400
   2233   2234   2235     1   109.8800469 414.216000
   2233   2234   2236     1   109.8800469 414.216000
   2233   2237   2238     1   109.8800469 414.216000
   2233   2237   2239     1   109.8800469 414.216000
   2233   2240   2241     1   109.8800469 414.216000
   2233   2240   2242     1   109.8800469 414.216000
   2234   2246   2247     1   109.8000471 387.438400
   2234   2246   2248     1   109.8000471 387.438400
   2235   2234   2246     1   109.5600471 388.275200
   2235   2234   2236     1   108.4600466 328.025600
   2236   2234   2246     1   109.5600471 388.275200
   2237   2249   2250     1   109.8000471 387.438400
   2237   2249   2251     1   109.8000471 387.438400
   2238   2237   2249     1   109.5600471 388.275200
   2238   2237   2239     1   108.4600466 328.025600
   2239   2237   2249     1   109.5600471 388.275200
   2240   2243   2244     1   109.8000471 387.438400
   2240   2243   2245     1   109.8000471 387.438400
   2241   2240   2243     1   109.5600471 388.275200
   2241   2240   2242     1   108.4600466 328.025600
   2242   2240   2243     1   109.5600471 388.275200
   2243   2252   2253     1   109.5600471 388.275200
   2243   2252   2254     1   109.5600471 388.275200
   2244   2243   2252     1   109.8000471 387.438400
   2244   2243   2245     1   107.5800459 329.699200
   2245   2243   2252     1   109.8000471 387.438400
   2246   2258   2259     1   109.5600471 388.275200
   2246   2258   2260     1   109.5600471 388.275200
   2247   2246   2258     1   109.8000471 387.438400
   2247   2246   2248     1   107.5800459 329.699200
   2248   2246   2258     1   109.8000471 387.438400
   2249   2255   2256     1   109.5600471 388.275200
   2249   2255   2257     1   109.5600471 388.275200
   2250   2249   2255     1   109.8000471 387.438400
   2250   2249   2251     1   107.5800459 329.699200
   2251   2249   2255     1   109.8000471 387.438400
   2253   2252   2261     1   109.7800468 425.094400
   2253   2252   2254     1   108.4600466 328.025600
   2254   2252   2261     1   109.7800468 425.094400
   2256   2255   4552     1   109.7800468 425.094400
   2256   2255   2257     1   108.4600466 328.025600
   2257   2255   4552     1   109.7800468 425.094400
   2259   2258   4581     1   109.7800468 425.094400
   2259   2258   2260     1   108.4600466 328.025600
   2260   2258   4581     1   109.7800468 425.094400
   2262   2263   2264     1   109.8800469 414.216000
   2262   2263   2265     1   109.8800469 414.216000
   2262   2266   2267     1   109.8800469 414.216000
   2262   2266   2268     1   109.8800469 414.216000
   2262   2269   2270     1   109.8800469 414.216000
   2262   2269   2271     1   109.8800469 414.216000
   2263   2275   2276     1   109.8000471 387.438400
   2263   2275   2277     1   109.8000471 387.438400
   2264   2263   2275     1   109.5600471 388.275200
   2264   2263   2265     1   108.4600466 328.025600
   2265   2263   2275     1   109.5600471 388.275200
   2266   2278   2279     1   109.8000471 387.438400
   2266   2278   2280     1   109.8000471 387.438400
   2267   2266   2278     1   109.5600471 388.275200
   2267   2266   2268     1   108.4600466 328.025600
   2268   2266   2278     1   109.5600471 388.275200
   2269   2272   2273     1   109.8000471 387.438400
   2269   2272   2274     1   109.8000471 387.438400
   2270   2269   2272     1   109.5600471 388.275200
   2270   2269   2271     1   108.4600466 328.025600
   2271   2269   2272     1   109.5600471 388.275200
   2272   2281   2282     1   109.5600471 388.275200
   2272   2281   2283     1   109.5600471 388.275200
   2273   2272   2281     1   109.8000471 387.438400
   2273   2272   2274     1   107.5800459 329.699200
   2274   2272   2281     1   109.8000471 387.438400
   2275   2287   2288     1   109.5600471 388.275200
   2275   2287   2289     1   109.5600471 388.275200
   2276   2275   2287     1   109.8000471 387.438400
   2276   2275   2277     1   107.5800459 329.699200
   2277   2275   2287     1   109.8000471 387.438400
   2278   2284   2285     1   109.5600471 388.275200
   2278   2284   2286     1   109.5600471 388.275200
   2279   2278   2284     1   109.8000471 387.438400
   2279   2278   2280     1   107.5800459 329.699200
   2280   2278   2284     1   109.8000471 387.438400
   2282   2281   2290     1   109.7800468 425.094400
   2282   2281   2283     1   108.4600466 328.025600
   2283   2281   2290     1   109.7800468 425.094400
   2285   2284   4610     1   109.7800468 425.094400
   2285   2284   2286     1   108.4600466 328.025600
   2286   2284   4610     1   109.7800468 425.094400
   2288   2287   4639     1   109.7800468 425.094400
   2288   2287   2289     1   108.4600466 328.025600
   2289   2287   4639     1   109.7800468 425.094400
   2291   2292   2293     1   109.8800469 414.216000
   2291   2292   2294     1   109.8800469 414.216000
   2291   2295   2296     1   109.8800469 414.216000
   2291   2295   2297     1   109.8800469 414.216000
   2291   2298   2299     1   109.8800469 414.216000
   2291   2298   2300     1   109.8800469 414.216000
   2292   2304   2305     1   109.8000471 387.438400
   2292   2304   2306     1   109.8000471 387.438400
   2293   2292   2304     1   109.5600471 388.275200
   2293   2292   2294     1   108.4600466 328.025600
   2294   2292   2304     1   109.5600471 388.275200
   2295   2307   2308     1   109.8000471 387.438400
   2295   2307   2309     1   109.8000471 387.438400
   2296   2295   2307     1   109.5600471 388.275200
   2296   2295   2297     1   108.4600466 328.025600
   2297   2295   2307     1   109.5600471 388.275200
   2298   2301   2302     1   109.8000471 387.438400
   2298   2301   2303     1   109.8000471 387.438400
   2299   2298   2301     1   109.5600471 388.275200
   2299   2298   2300     1   108.4600466 328.025600
   2300   2298   2301     1   109.5600471 388.275200
   2301   2310   2311     1   109.5600471 388.275200
   2301   2310   2312     1   109.5600471 388.275200
   2302   2301   2310     1   109.8000471 387.438400
   2302   2301   2303     1   107.5800459 329.699200
   2303   2301   2310     1   109.8000471 387.438400
   2304   2316   2317     1   109.5600471 388.275200
   2304   2316   2318     1   109.5600471 388.275200
   2305   2304   2316     1   109.8000471 387.438400
   2305   2304   2306     1   107.5800459 329.699200
   2306   2304   2316     1   109.8000471 387.438400
   2307   2313   2314     1   109.5600471 388.275200
   2307   2313   2315     1   109.5600471 388.275200
   2308   2307   2313     1   109.8000471 387.438400
   2308   2307   2309     1   107.5800459 329.699200
   2309   2307   2313     1   109.8000471 387.438400
   2311   2310   2319     1   109.7800468 425.094400
   2311   2310   2312     1   108.4600466 328.025600
   2312   2310   2319     1   109.7800468 425.094400
   2314   2313   4668     1   109.7800468 425.094400
   2314   2313   2315     1   108.4600466 328.025600
   2315   2313   4668     1   109.7800468 425.094400
   2317   2316   4697     1   109.7800468 425.094400
   2317   2316   2318     1   108.4600466 328.025600
   2318   2316   4697     1   109.7800468 425.094400
   2320   2321   2322     1   109.8800469 414.216000
   2320   2321   2323     1   109.8800469 414.216000
   2320   2324   2325     1   109.8800469 414.216000
   2320   2324   2326     1   109.8800469 414.216000
   2320   2327   2328     1   109.8800469 414.216000
   2320   2327   2329     1   109.8800469 414.216000
   2321   2333   2334     1   109.8000471 387.438400
   2321   2333   2335     1   109.8000471 387.438400
   2322   2321   2333     1   109.5600471 388.275200
   2322   2321   2323     1   108.4600466 328.025600
   2323   2321   2333     1   109.5600471 388.275200
   2324   2336   2337     1   109.8000471 387.438400
   2324   2336   2338     1   109.8000471 387.438400
   2325   2324   2336     1   109.5600471 388.275200
   2325   2324   2326     1   108.4600466 328.025600
   2326   2324   2336     1   109.5600471 388.275200
   2327   2330   2331     1   109.8000471 387.438400
   2327   2330   2332     1   109.8000471 387.438400
   2328   2327   2330     1   109.5600471 388.275200
   2328   2327   2329     1   108.4600466 328.025600
   2329   2327   2330     1   109.5600471 388.275200
   2330   2339   2340     1   109.5600471 388.275200
   2330   2339   2341     1   109.5600471 388.275200
   2331   2330   2339     1   109.8000471 387.438400
   2331   2330   2332     1   107.5800459 329.699200
   2332   2330   2339     1   109.8000471 387.438400
   2333   2345   2346     1   109.5600471 388.275200
   2333   2345   2347     1   109.5600471 388.275200
   2334   2333   2345     1   109.8000471 387.438400
   2334   2333   2335     1   107.5800459 329.699200
   2335   2333   2345     1   109.8000471 387.438400
   2336   2342   2343     1   109.5600471 388.275200
   2336   2342   2344     1   109.5600471 388.275200
   2337   2336   2342     1   109.8000471 387.438400
   2337   2336   2338     1   107.5800459 329.699200
   2338   2336   2342     1   109.8000471 387.438400
   2340   2339   2348     1   109.7800468 425.094400
   2340   2339   2341     1   108.4600466 328.025600
   2341   2339   2348     1   109.7800468 425.094400
   2343   2342   4726     1   109.7800468 425.094400
   2343   2342   2344     1   108.4600466 328.025600
   2344   2342   4726     1   109.7800468 425.094400
   2346   2345   4755     1   109.7800468 425.094400
   2346   2345   2347     1   108.4600466 328.025600
   2347   2345   4755     1   109.7800468 425.094400
   2349   2350   2351     1   109.8800469 414.216000
   2349   2350   2352     1   109.8800469 414.216000
   2349   2353   2354     1   109.8800469 414.216000
   2349   2353   2355     1   109.8800469 414.216000
   2349   2356   2357     1   109.8800469 414.216000
   2349   2356   2358     1   109.8800469 414.216000
   2350   2362   2363     1   109.8000471 387.438400
   2350   2362   2364     1   109.8000471 387.438400
   2351   2350   2362     1   109.5600471 388.275200
   2351   2350   2352     1   108.4600466 328.025600
   2352   2350   2362     1   109.5600471 388.275200
   2353   2365   2366     1   109.8000471 387.438400
   2353   2365   2367     1   109.8000471 387.438400
   2354   2353   2365     1   109.5600471 388.275200
   2354   2353   2355     1   108.4600466 328.025600
   2355   2353   2365     1   109.5600471 388.275200
   2356   2359   2360     1   109.8000471 387.438400
   2356   2359   2361     1   109.8000471 387.438400
   2357   2356   2359     1   109.5600471 388.275200
   2357   2356   2358     1   108.4600466 328.025600
   2358   2356   2359     1   109.5600471 388.275200
   2359   2368   2369     1   109.5600471 388.275200
   2359   2368   2370     1   109.5600471 388.275200
   2360   2359   2368     1   109.8000471 387.438400
   2360   2359   2361     1   107.5800459 329.699200
   2361   2359   2368     1   109.8000471 387.438400
   2362   2374   2375     1   109.5600471 388.275200
   2362   2374   2376     1   109.5600471 388.275200
   2363   2362   2374     1   109.8000471 387.438400
   2363   2362   2364     1   107.5800459 329.699200
   2364   2362   2374     1   109.8000471 387.438400
   2365   2371   2372     1   109.5600471 388.275200
   2365   2371   2373     1   109.5600471 388.275200
   2366   2365   2371     1   109.8000471 387.438400
   2366   2365   2367     1   107.5800459 329.699200
   2367   2365   2371     1   109.8000471 387.438400
   2369   2368   2377     1   109.7800468 425.094400
   2369   2368   2370     1   108.4600466 328.025600
   2370   2368   2377     1   109.7800468 425.094400
   2372   2371   4784     1   109.7800468 425.094400
   2372   2371   2373     1   108.4600466 328.025600
   2373   2371   4784     1   109.7800468 425.094400
   2375   2374   4813     1   109.7800468 425.094400
   2375   2374   2376     1   108.4600466 328.025600
   2376   2374   4813     1   109.7800468 425.094400
   2378   2379   2380     1   109.8800469 414.216000
   2378   2379   2381     1   109.8800469 414.216000
   2378   2382   2383     1   109.8800469 414.216000
   2378   2382   2384     1   109.8800469 414.216000
   2378   2385   2386     1   109.8800469 414.216000
   2378   2385   2387     1   109.8800469 414.216000
   2379   2391   2392     1   109.8000471 387.438400
   2379   2391   2393     1   109.8000471 387.438400
   2380   2379   2391     1   109.5600471 388.275200
   2380   2379   2381     1   108.4600466 328.025600
   2381   2379   2391     1   109.5600471 388.275200
   2382   2394   2395     1   109.8000471 387.438400
   2382   2394   2396     1   109.8000471 387.438400
   2383   2382   2394     1   109.5600471 388.275200
   2383   2382   2384     1   108.4600466 328.025600
   2384   2382   2394     1   109.5600471 388.275200
   2385   2388   2389     1   109.8000471 387.438400
   2385   2388   2390     1   109.8000471 387.438400
   2386   2385   2388     1   109.5600471 388.275200
   2386   2385   2387     1   108.4600466 328.025600
   2387   2385   2388     1   109.5600471 388.275200
   2388   2397   2398     1   109.5600471 388.275200
   2388   2397   2399     1   109.5600471 388.275200
   2389   2388   2397     1   109.8000471 387.438400
   2389   2388   2390     1   107.5800459 329.699200
   2390   2388   2397     1   109.8000471 387.438400
   2391   2403   2404     1   109.5600471 388.275200
   2391   2403   2405     1   109.5600471 388.275200
   2392   2391   2403     1   109.8000471 387.438400
   2392   2391   2393     1   107.5800459 329.699200
   2393   2391   2403     1   109.8000471 387.438400
   2394   2400   2401     1   109.5600471 388.275200
   2394   2400   2402     1   109.5600471 388.275200
   2395   2394   2400     1   109.8000471 387.438400
   2395   2394   2396     1   107.5800459 329.699200
   2396   2394   2400     1   109.8000471 387.438400
   2398   2397   2406     1   109.7800468 425.094400
   2398   2397   2399     1   108.4600466 328.025600
   2399   2397   2406     1   109.7800468 425.094400
   2401   2400   4842     1   109.7800468 425.094400
   2401   2400   2402     1   108.4600466 328.025600
   2402   2400   4842     1   109.7800468 425.094400
   2404   2403   4871     1   109.7800468 425.094400
   2404   2403   2405     1   108.4600466 328.025600
   2405   2403   4871     1   109.7800468 425.094400
   2407   2408   2409     1   109.8800469 414.216000
   2407   2408   2410     1   109.8800469 414.216000
   2407   2411   2412     1   109.8800469 414.216000
   2407   2411   2413     1   109.8800469 414.216000
   2407   2414   2415     1   109.8800469 414.216000
   2407   2414   2416     1   109.8800469 414.216000
   2408   2420   2421     1   109.8000471 387.438400
   2408   2420   2422     1   109.8000471 387.438400
   2409   2408   2420     1   109.5600471 388.275200
   2409   2408   2410     1   108.4600466 328.025600
   2410   2408   2420     1   109.5600471 388.275200
   2411   2423   2424     1   109.8000471 387.438400
   2411   2423   2425     1   109.8000471 387.438400
   2412   2411   2423     1   109.5600471 388.275200
   2412   2411   2413     1   108.4600466 328.025600
   2413   2411   2423     1   109.5600471 388.275200
   2414   2417   2418     1   109.8000471 387.438400
   2414   2417   2419     1   109.8000471 387.438400
   2415   2414   2417     1   109.5600471 388.275200
   2415   2414   2416     1   108.4600466 328.025600
   2416   2414   2417     1   109.5600471 388.275200
   2417   2426   2427     1   109.5600471 388.275200
   2417   2426   2428     1   109.5600471 388.275200
   2418   2417   2426     1   109.8000471 387.438400
   2418   2417   2419     1   107.5800459 329.699200
   2419   2417   2426     1   109.8000471 387.438400
   2420   2432   2433     1   109.5600471 388.275200
   2420   2432   2434     1   109.5600471 388.275200
   2421   2420   2432     1   109.8000471 387.438400
   2421   2420   2422     1   107.5800459 329.699200
   2422   2420   2432     1   109.8000471 387.438400
   2423   2429   2430     1   109.5600471 388.275200
   2423   2429   2431     1   109.5600471 388.275200
   2424   2423   2429     1   109.8000471 387.438400
   2424   2423   2425     1   107.5800459 329.699200
   2425   2423   2429     1   109.8000471 387.438400
   2427   2426   2435     1   109.7800468 425.094400
   2427   2426   2428     1   108.4600466 328.025600
   2428   2426   2435     1   109.7800468 425.094400
   2430   2429   4900     1   109.7800468 425.094400
   2430   2429   2431     1   108.4600466 328.025600
   2431   2429   4900     1   109.7800468 425.094400
   2433   2432   4929     1   109.7800468 425.094400
   2433   2432   2434     1   108.4600466 328.025600
   2434   2432   4929     1   109.7800468 425.094400
   2436   2437   2438     1   109.8800469 414.216000
   2436   2437   2439     1   109.8800469 414.216000
   2436   2440   2441     1   109.8800469 414.216000
   2436   2440   2442     1   109.8800469 414.216000
   2436   2443   2444     1   109.8800469 414.216000
   2436   2443   2445     1   109.8800469 414.216000
   2437   2449   2450     1   109.8000471 387.438400
   2437   2449   2451     1   109.8000471 387.438400
   2438   2437   2449     1   109.5600471 388.275200
   2438   2437   2439     1   108.4600466 328.025600
   2439   2437   2449     1   109.5600471 388.275200
   2440   2452   2453     1   109.8000471 387.438400
   2440   2452   2454     1   109.8000471 387.438400
   2441   2440   2452     1   109.5600471 388.275200
   2441   2440   2442     1   108.4600466 328.025600
   2442   2440   2452     1   109.5600471 388.275200
   2443   2446   2447     1   109.8000471 387.438400
   2443   2446   2448     1   109.8000471 387.438400
   2444   2443   2446     1   109.5600471 388.275200
   2444   2443   2445     1   108.4600466 328.025600
   2445   2443   2446     1   109.5600471 388.275200
   2446   2455   2456     1   109.5600471 388.275200
   2446   2455   2457     1   109.5600471 388.275200
   2447   2446   2455     1   109.8000471 387.438400
   2447   2446   2448     1   107.5800459 329.699200
   2448   2446   2455     1   109.8000471 387.438400
   2449   2461   2462     1   109.5600471 388.275200
   2449   2461   2463     1   109.5600471 388.275200
   2450   2449   2461     1   109.8000471 387.438400
   2450   2449   2451     1   107.5800459 329.699200
   2451   2449   2461     1   109.8000471 387.438400
   2452   2458   2459     1   109.5600471 388.275200
   2452   2458   2460     1   109.5600471 388.275200
   2453   2452   2458     1   109.8000471 387.438400
   2453   2452   2454     1   107.5800459 329.699200
   2454   2452   2458     1   109.8000471 387.438400
   2456   2455   2464     1   109.7800468 425.094400
   2456   2455   2457     1   108.4600466 328.025600
   2457   2455   2464     1   109.7800468 425.094400
   2459   2458   4958     1   109.7800468 425.094400
   2459   2458   2460     1   108.4600466 328.025600
   2460   2458   4958     1   109.7800468 425.094400
   2462   2461   4987     1   109.7800468 425.094400
   2462   2461   2463     1   108.4600466 328.025600
   2463   2461   4987     1   109.7800468 425.094400
   2465   2466   2467     1   109.8800469 414.216000
   2465   2466   2468     1   109.8800469 414.216000
   2465   2469   2470     1   109.8800469 414.216000
   2465   2469   2471     1   109.8800469 414.216000
   2465   2472   2473     1   109.8800469 414.216000
   2465   2472   2474     1   109.8800469 414.216000
   2466   2478   2479     1   109.8000471 387.438400
   2466   2478   2480     1   109.8000471 387.438400
   2467   2466   2478     1   109.5600471 388.275200
   2467   2466   2468     1   108.4600466 328.025600
   2468   2466   2478     1   109.5600471 388.275200
   2469   2481   2482     1   109.8000471 387.438400
   2469   2481   2483     1   109.8000471 387.438400
   2470   2469   2481     1   109.5600471 388.275200
   2470   2469   2471     1   108.4600466 328.025600
   2471   2469   2481     1   109.5600471 388.275200
   2472   2475   2476     1   109.8000471 387.438400
   2472   2475   2477     1   109.8000471 387.438400
   2473   2472   2475     1   109.5600471 388.275200
   2473   2472   2474     1   108.4600466 328.025600
   2474   2472   2475     1   109.5600471 388.275200
   2475   2484   2485     1   109.5600471 388.275200
   2475   2484   2486     1   109.5600471 388.275200
   2476   2475   2484     1   109.8000471 387.438400
   2476   2475   2477     1   107.5800459 329.699200
   2477   2475   2484     1   109.8000471 387.438400
   2478   2490   2491     1   109.5600471 388.275200
   2478   2490   2492     1   109.5600471 388.275200
   2479   2478   2490     1   109.8000471 387.438400
   2479   2478   2480     1   107.5800459 329.699200
   2480   2478   2490     1   109.8000471 387.438400
   2481   2487   2488     1   109.5600471 388.275200
   2481   2487   2489     1   109.5600471 388.275200
   2482   2481   2487     1   109.8000471 387.438400
   2482   2481   2483     1   107.5800459 329.699200
   2483   2481   2487     1   109.8000471 387.438400
   2485   2484   2493     1   109.7800468 425.094400
   2485   2484   2486     1   108.4600466 328.025600
   2486   2484   2493     1   109.7800468 425.094400
   2488   2487   5016     1   109.7800468 425.094400
   2488   2487   2489     1   108.4600466 328.025600
   2489   2487   5016     1   109.7800468 425.094400
   2491   2490   5045     1   109.7800468 425.094400
   2491   2490   2492     1   108.4600466 328.025600
   2492   2490   5045     1   109.7800468 425.094400
   2494   2495   2496     1   109.8800469 414.216000
   2494   2495   2497     1   109.8800469 414.216000
   2494   2498   2499     1   109.8800469 414.216000
   2494   2498   2500     1   109.8800469 414.216000
   2494   2501   2502     1   109.8800469 414.216000
   2494   2501   2503     1   109.8800469 414.216000
   2495   2507   2508     1   109.8000471 387.438400
   2495   2507   2509     1   109.8000471 387.438400
   2496   2495   2507     1   109.5600471 388.275200
   2496   2495   2497     1   108.4600466 328.025600
   2497   2495   2507     1   109.5600471 388.275200
   2498   2510   2511     1   109.8000471 387.438400
   2498   2510   2512     1   109.8000471 387.438400
   2499   2498   2510     1   109.5600471 388.275200
   2499   2498   2500     1   108.4600466 328.025600
   2500   2498   2510     1   109.5600471 388.275200
   2501   2504   2505     1   109.8000471 387.438400
   2501   2504   2506     1   109.8000471 387.438400
   2502   2501   2504     1   109.5600471 388.275200
   2502   2501   2503     1   108.4600466 328.025600
   2503   2501   2504     1   109.5600471 388.275200
   2504   2513   2514     1   109.5600471 388.275200
   2504   2513   2515     1   109.5600471 388.275200
   2505   2504   2513     1   109.8000471 387.438400
   2505   2504   2506     1   107.5800459 329.699200
   2506   2504   2513     1   109.8000471 387.438400
   2507   2519   2520     1   109.5600471 388.275200
   2507   2519   2521     1   109.5600471 388.275200
   2508   2507   2519     1   109.8000471 387.438400
   2508   2507   2509     1   107.5800459 329.699200
   2509   2507   2519     1   109.8000471 387.438400
   2510   2516   2517     1   109.5600471 388.275200
   2510   2516   2518     1   109.5600471 388.275200
   2511   2510   2516     1   109.8000471 387.438400
   2511   2510   2512     1   107.5800459 329.699200
   2512   2510   2516     1   109.8000471 387.438400
   2514   2513   2522     1   109.7800468 425.094400
   2514   2513   2515     1   108.4600466 328.025600
   2515   2513   2522     1   109.7800468 425.094400
   2517   2516   5074     1   109.7800468 425.094400
   2517   2516   2518     1   108.4600466 328.025600
   2518   2516   5074     1   109.7800468 425.094400
   2520   2519   5103     1   109.7800468 425.094400
   2520   2519   2521     1   108.4600466 328.025600
   2521   2519   5103     1   109.7800468 425.094400
   2523   2524   2525     1   109.8800469 414.216000
   2523   2524   2526     1   109.8800469 414.216000
   2523   2527   2528     1   109.8800469 414.216000
   2523   2527   2529     1   109.8800469 414.216000
   2523   2530   2531     1   109.8800469 414.216000
   2523   2530   2532     1   109.8800469 414.216000
   2524   2536   2537     1   109.8000471 387.438400
   2524   2536   2538     1   109.8000471 387.438400
   2525   2524   2536     1   109.5600471 388.275200
   2525   2524   2526     1   108.4600466 328.025600
   2526   2524   2536     1   109.5600471 388.275200
   2527   2539   2540     1   109.8000471 387.438400
   2527   2539   2541     1   109.8000471 387.438400
   2528   2527   2539     1   109.5600471 388.275200
   2528   2527   2529     1   108.4600466 328.025600
   2529   2527   2539     1   109.5600471 388.275200
   2530   2533   2534     1   109.8000471 387.438400
   2530   2533   2535     1   109.8000471 387.438400
   2531   2530   2533     1   109.5600471 388.275200
   2531   2530   2532     1   108.4600466 328.025600
   2532   2530   2533     1   109.5600471 388.275200
   2533   2542   2543     1   109.5600471 388.275200
   2533   2542   2544     1   109.5600471 388.275200
   2534   2533   2542     1   109.8000471 387.438400
   2534   2533   2535     1   107.5800459 329.699200
   2535   2533   2542     1   109.8000471 387.438400
   2536   2548   2549     1   109.5600471 388.275200
   2536   2548   2550     1   109.5600471 388.275200
   2537   2536   2548     1   109.8000471 387.438400
   2537   2536   2538     1   107.5800459 329.699200
   2538   2536   2548     1   109.8000471 387.438400
   2539   2545   2546     1   109.5600471 388.275200
   2539   2545   2547     1   109.5600471 388.275200
   2540   2539   2545     1   109.8000471 387.438400
   2540   2539   2541     1   107.5800459 329.699200
   2541   2539   2545     1   109.8000471 387.438400
   2543   2542   2551     1   109.7800468 425.094400
   2543   2542   2544     1   108.4600466 328.025600
   2544   2542   2551     1   109.7800468 425.094400
   2546   2545   5132     1   109.7800468 425.094400
   2546   2545   2547     1   108.4600466 328.025600
   2547   2545   5132     1   109.7800468 425.094400
   2549   2548   5161     1   109.7800468 425.094400
   2549   2548   2550     1   108.4600466 328.025600
   2550   2548   5161     1   109.7800468 425.094400
   2552   2553   2554     1   109.8800469 414.216000
   2552   2553   2555     1   109.8800469 414.216000
   2552   2556   2557     1   109.8800469 414.216000
   2552   2556   2558     1   109.8800469 414.216000
   2552   2559   2560     1   109.8800469 414.216000
   2552   2559   2561     1   109.8800469 414.216000
   2553   2565   2566     1   109.8000471 387.438400
   2553   2565   2567     1   109.8000471 387.438400
   2554   2553   2565     1   109.5600471 388.275200
   2554   2553   2555     1   108.4600466 328.025600
   2555   2553   2565     1   109.5600471 388.275200
   2556   2568   2569     1   109.8000471 387.438400
   2556   2568   2570     1   109.8000471 387.438400
   2557   2556   2568     1   109.5600471 388.275200
   2557   2556   2558     1   108.4600466 328.025600
   2558   2556   2568     1   109.5600471 388.275200
   2559   2562   2563     1   109.8000471 387.438400
   2559   2562   2564     1   109.8000471 387.438400
   2560   2559   2562     1   109.5600471 388.275200
   2560   2559   2561     1   108.4600466 328.025600
   2561   2559   2562     1   109.5600471 388.275200
   2562   2571   2572     1   109.5600471 388.275200
   2562   2571   2573     1   109.5600471 388.275200
   2563   2562   2571     1   109.8000471 387.438400
   2563   2562   2564     1   107.5800459 329.699200
   2564   2562   2571     1   109.8000471 387.438400
   2565   2577   2578     1   109.5600471 388.275200
   2565   2577   2579     1   109.5600471 388.275200
   2566   2565   2577     1   109.8000471 387.438400
   2566   2565   2567     1   107.5800459 329.699200
   2567   2565   2577     1   109.8000471 387.438400
   2568   2574   2575     1   109.5600471 388.275200
   2568   2574   2576     1   109.5600471 388.275200
   2569   2568   2574     1   109.8000471 387.438400
   2569   2568   2570     1   107.5800459 329.699200
   2570   2568   2574     1   109.8000471 387.438400
   2572   2571   2580     1   109.7800468 425.094400
   2572   2571   2573     1   108.4600466 328.025600
   2573   2571   2580     1   109.7800468 425.094400
   2575   2574   5190     1   109.7800468 425.094400
   2575   2574   2576     1   108.4600466 328.025600
   2576   2574   5190     1   109.7800468 425.094400
   2578   2577   5219     1   109.7800468 425.094400
   2578   2577   2579     1   108.4600466 328.025600
   2579   2577   5219     1   109.7800468 425.094400
   2581   2582   2583     1   109.8800469 414.216000
   2581   2582   2584     1   109.8800469 414.216000
   2581   2585   2586     1   109.8800469 414.216000
   2581   2585   2587     1   109.8800469 414.216000
   2581   2588   2589     1   109.8800469 414.216000
   2581   2588   2590     1   109.8800469 414.216000
   2582   2594   2595     1   109.8000471 387.438400
   2582   2594   2596     1   109.8000471 387.438400
   2583   2582   2594     1   109.5600471 388.275200
   2583   2582   2584     1   108.4600466 328.025600
   2584   2582   2594     1   109.5600471 388.275200
   2585   2597   2598     1   109.8000471 387.438400
   2585   2597   2599     1   109.8000471 387.438400
   2586   2585   2597     1   109.5600471 388.275200
   2586   2585   2587     1   108.4600466 328.025600
   2587   2585   2597     1   109.5600471 388.275200
   2588   2591   2592     1   109.8000471 387.438400
   2588   2591   2593     1   109.8000471 387.438400
   2589   2588   2591     1   109.5600471 388.275200
   2589   2588   2590     1   108.4600466 328.025600
   2590   2588   2591     1   109.5600471 388.275200
   2591   2600   2601     1   109.5600471 388.275200
   2591   2600   2602     1   109.5600471 388.275200
   2592   2591   2600     1   109.8000471 387.438400
   2592   2591   2593     1   107.5800459 329.699200
   2593   2591   2600     1   109.8000471 387.438400
   2594   2606   2607     1   109.5600471 388.275200
   2594   2606   2608     1   109.5600471 388.275200
   2595   2594   2606     1   109.8000471 387.438400
   2595   2594   2596     1   107.5800459 329.699200
   2596   2594   2606     1   109.8000471 387.438400
   2597   2603   2604     1   109.5600471 388.275200
   2597   2603   2605     1   109.5600471 388.275200
   2598   2597   2603     1   109.8000471 387.438400
   2598   2597   2599     1   107.5800459 329.699200
   2599   2597   2603     1   109.8000471 387.438400
   2601   2600   2609     1   109.7800468 425.094400
   2601   2600   2602     1   108.4600466 328.025600
   2602   2600   2609     1   109.7800468 425.094400
   2604   2603   5248     1   109.7800468 425.094400
   2604   2603   2605     1   108.4600466 328.025600
   2605   2603   5248     1   109.7800468 425.094400
   2607   2606   5277     1   109.7800468 425.094400
   2607   2606   2608     1   108.4600466 328.025600
   2608   2606   5277     1   109.7800468 425.094400
   2610   2611   2612     1   109.8800469 414.216000
   2610   2611   2613     1   109.8800469 414.216000
   2610   2614   2615     1   109.8800469 414.216000
   2610   2614   2616     1   109.8800469 414.216000
   2610   2617   2618     1   109.8800469 414.216000
   2610   2617   2619     1   109.8800469 414.216000
   2611   2623   2624     1   109.8000471 387.438400
   2611   2623   2625     1   109.8000471 387.438400
   2612   2611   2623     1   109.5600471 388.275200
   2612   2611   2613     1   108.4600466 328.025600
   2613   2611   2623     1   109.5600471 388.275200
   2614   2626   2627     1   109.8000471 387.438400
   2614   2626   2628     1   109.8000471 387.438400
   2615   2614   2626     1   109.5600471 388.275200
   2615   2614   2616     1   108.4600466 328.025600
   2616   2614   2626     1   109.5600471 388.275200
   2617   2620   2621     1   109.8000471 387.438400
   2617   2620   2622     1   109.8000471 387.438400
   2618   2617   2620     1   109.5600471 388.275200
   2618   2617   2619     1   108.4600466 328.025600
   2619   2617   2620     1   109.5600471 388.275200
   2620   2629   2630     1   109.5600471 388.275200
   2620   2629   2631     1   109.5600471 388.275200
   2621   2620   2629     1   109.8000471 387.438400
   2621   2620   2622     1   107.5800459 329.699200
   2622   2620   2629     1   109.8000471 387.438400
   2623   2635   2636     1   109.5600471 388.275200
   2623   2635   2637     1   109.5600471 388.275200
   2624   2623   2635     1   109.8000471 387.438400
   2624   2623   2625     1   107.5800459 329.699200
   2625   2623   2635     1   109.8000471 387.438400
   2626   2632   2633     1   109.5600471 388.275200
   2626   2632   2634     1   109.5600471 388.275200
   2627   2626   2632     1   109.8000471 387.438400
   2627   2626   2628     1   107.5800459 329.699200
   2628   2626   2632     1   109.8000471 387.438400
   2630   2629   2638     1   109.7800468 425.094400
   2630   2629   2631     1   108.4600466 328.025600
   2631   2629   2638     1   109.7800468 425.094400
   2633   2632   5306     1   109.7800468 425.094400
   2633   2632   2634     1   108.4600466 328.025600
   2634   2632   5306     1   109.7800468 425.094400
   2636   2635   5335     1   109.7800468 425.094400
   2636   2635   2637     1   108.4600466 328.025600
   2637   2635   5335     1   109.7800468 425.094400
   2639   2640   2641     1   109.8800469 414.216000
   2639   2640   2642     1   109.8800469 414.216000
   2639   2643   2644     1   109.8800469 414.216000
   2639   2643   2645     1   109.8800469 414.216000
   2639   2646   2647     1   109.8800469 414.216000
   2639   2646   2648     1   109.8800469 414.216000
   2640   2652   2653     1   109.8000471 387.438400
   2640   2652   2654     1   109.8000471 387.438400
   2641   2640   2652     1   109.5600471 388.275200
   2641   2640   2642     1   108.4600466 328.025600
   2642   2640   2652     1   109.5600471 388.275200
   2643   2655   2656     1   109.8000471 387.438400
   2643   2655   2657     1   109.8000471 387.438400
   2644   2643   2655     1   109.5600471 388.275200
   2644   2643   2645     1   108.4600466 328.025600
   2645   2643   2655     1   109.5600471 388.275200
   2646   2649   2650     1   109.8000471 387.438400
   2646   2649   2651     1   109.8000471 387.438400
   2647   2646   2649     1   109.5600471 388.275200
   2647   2646   2648     1   108.4600466 328.025600
   2648   2646   2649     1   109.5600471 388.275200
   2649   2658   2659     1   109.5600471 388.275200
   2649   2658   2660     1   109.5600471 388.275200
   2650   2649   2658     1   109.8000471 387.438400
   2650   2649   2651     1   107.5800459 329.699200
   2651   2649   2658     1   109.8000471 387.438400
   2652   2664   2665     1   109.5600471 388.275200
   2652   2664   2666     1   109.5600471 388.275200
   2653   2652   2664     1   109.8000471 387.438400
   2653   2652   2654     1   107.5800459 329.699200
   2654   2652   2664     1   109.8000471 387.438400
   2655   2661   2662     1   109.5600471 388.275200
   2655   2661   2663     1   109.5600471 388.275200
   2656   2655   2661     1   109.8000471 387.438400
   2656   2655   2657     1   107.5800459 329.699200
   2657   2655   2661     1   109.8000471 387.438400
   2659   2658   2667     1   109.7800468 425.094400
   2659   2658   2660     1   108.4600466 328.025600
   2660   2658   2667     1   109.7800468 425.094400
   2662   2661   5364     1   109.7800468 425.094400
   2662   2661   2663     1   108.4600466 328.025600
   2663   2661   5364     1   109.7800468 425.094400
   2665   2664   5393     1   109.7800468 425.094400
   2665   2664   2666     1   108.4600466 328.025600
   2666   2664   5393     1   109.7800468 425.094400
   2668   2669   2670     1   109.8800469 414.216000
   2668   2669   2671     1   109.8800469 414.216000
   2668   2672   2673     1   109.8800469 414.216000
   2668   2672   2674     1   109.8800469 414.216000
   2668   2675   2676     1   109.8800469 414.216000
   2668   2675   2677     1   109.8800469 414.216000
   2669   2681   2682     1   109.8000471 387.438400
   2669   2681   2683     1   109.8000471 387.438400
   2670   2669   2681     1   109.5600471 388.275200
   2670   2669   2671     1   108.4600466 328.025600
   2671   2669   2681     1   109.5600471 388.275200
   2672   2684   2685     1   109.8000471 387.438400
   2672   2684   2686     1   109.8000471 387.438400
   2673   2672   2684     1   109.5600471 388.275200
   2673   2672   2674     1   108.4600466 328.025600
   2674   2672   2684     1   109.5600471 388.275200
   2675   2678   2679     1   109.8000471 387.438400
   2675   2678   2680     1   109.8000471 387.438400
   2676   2675   2678     1   109.5600471 388.275200
   2676   2675   2677     1   108.4600466 328.025600
   2677   2675   2678     1   109.5600471 388.275200
   2678   2687   2688     1   109.5600471 388.275200
   2678   2687   2689     1   109.5600471 388.275200
   2679   2678   2687     1   109.8000471 387.438400
   2679   2678   2680     1   107.5800459 329.699200
   2680   2678   2687     1   109.8000471 387.438400
   2681   2693   2694     1   109.5600471 388.275200
   2681   2693   2695     1   109.5600471 388.275200
   2682   2681   2693     1   109.8000471 387.438400
   2682   2681   2683     1   107.5800459 329.699200
   2683   2681   2693     1   109.8000471 387.438400
   2684   2690   2691     1   109.5600471 388.275200
   2684   2690   2692     1   109.5600471 388.275200
   2685   2684   2690     1   109.8000471 387.438400
   2685   2684   2686     1   107.5800459 329.699200
   2686   2684   2690     1   109.8000471 387.438400
   2688   2687   2696     1   109.7800468 425.094400
   2688   2687   2689     1   108.4600466 328.025600
   2689   2687   2696     1   109.7800468 425.094400
   2691   2690   5422     1   109.7800468 425.094400
   2691   2690   2692     1   108.4600466 328.025600
   2692   2690   5422     1   109.7800468 425.094400
   2694   2693   5451     1   109.7800468 425.094400
   2694   2693   2695     1   108.4600466 328.025600
   2695   2693   5451     1   109.7800468 425.094400
   2697   2698   2699     1   109.8800469 414.216000
   2697   2698   2700     1   109.8800469 414.216000
   2697   2701   2702     1   109.8800469 414.216000
   2697   2701   2703     1   109.8800469 414.216000
   2697   2704   2705     1   109.8800469 414.216000
   2697   2704   2706     1   109.8800469 414.216000
   2698   2710   2711     1   109.8000471 387.438400
   2698   2710   2712     1   109.8000471 387.438400
   2699   2698   2710     1   109.5600471 388.275200
   2699   2698   2700     1   108.4600466 328.025600
   2700   2698   2710     1   109.5600471 388.275200
   2701   2713   2714     1   109.8000471 387.438400
   2701   2713   2715     1   109.8000471 387.438400
   2702   2701   2713     1   109.5600471 388.275200
   2702   2701   2703     1   108.4600466 328.025600
   2703   2701   2713     1   109.5600471 388.275200
   2704   2707   2708     1   109.8000471 387.438400
   2704   2707   2709     1   109.8000471 387.438400
   2705   2704   2707     1   109.5600471 388.275200
   2705   2704   2706     1   108.4600466 328.025600
   2706   2704   2707     1   109.5600471 388.275200
   2707   2716   2717     1   109.5600471 388.275200
   2707   2716   2718     1   109.5600471 388.275200
   2708   2707   2716     1   109.8000471 387.438400
   2708   2707   2709     1   107.5800459 329.699200
   2709   2707   2716     1   109.8000471 387.438400
   2710   2722   2723     1   109.5600471 388.275200
   2710   2722   2724     1   109.5600471 388.275200
   2711   2710   2722     1   109.8000471 387.438400
   2711   2710   2712     1   107.5800459 329.699200
   2712   2710   2722     1   109.8000471 387.438400
   2713   2719   2720     1   109.5600471 388.275200
   2713   2719   2721     1   109.5600471 388.275200
   2714   2713   2719     1   109.8000471 387.438400
   2714   2713   2715     1   107.5800459 329.699200
   2715   2713   2719     1   109.8000471 387.438400
   2717   2716   2725     1   109.7800468 425.094400
   2717   2716   2718     1   108.4600466 328.025600
   2718   2716   2725     1   109.7800468 425.094400
   2720   2719   5480     1   109.7800468 425.094400
   2720   2719   2721     1   108.4600466 328.025600
   2721   2719   5480     1   109.7800468 425.094400
   2723   2722   5509     1   109.7800468 425.094400
   2723   2722   2724     1   108.4600466 328.025600
   2724   2722   5509     1   109.7800468 425.094400
   2726   2727   2728     1   109.8800469 414.216000
   2726   2727   2729     1   109.8800469 414.216000
   2726   2730   2731     1   109.8800469 414.216000
   2726   2730   2732     1   109.8800469 414.216000
   2726   2733   2734     1   109.8800469 414.216000
   2726   2733   2735     1   109.8800469 414.216000
   2727   2739   2740     1   109.8000471 387.438400
   2727   2739   2741     1   109.8000471 387.438400
   2728   2727   2739     1   109.5600471 388.275200
   2728   2727   2729     1   108.4600466 328.025600
   2729   2727   2739     1   109.5600471 388.275200
   2730   2742   2743     1   109.8000471 387.438400
   2730   2742   2744     1   109.8000471 387.438400
   2731   2730   2742     1   109.5600471 388.275200
   2731   2730   2732     1   108.4600466 328.025600
   2732   2730   2742     1   109.5600471 388.275200
   2733   2736   2737     1   109.8000471 387.438400
   2733   2736   2738     1   109.8000471 387.438400
   2734   2733   2736     1   109.5600471 388.275200
   2734   2733   2735     1   108.4600466 328.025600
   2735   2733   2736     1   109.5600471 388.275200
   2736   2745   2746     1   109.5600471 388.275200
   2736   2745   2747     1   109.5600471 388.275200
   2737   2736   2745     1   109.8000471 387.438400
   2737   2736   2738     1   107.5800459 329.699200
   2738   2736   2745     1   109.8000471 387.438400
   2739   2751   2752     1   109.5600471 388.275200
   2739   2751   2753     1   109.5600471 388.275200
   2740   2739   2751     1   109.8000471 387.438400
   2740   2739   2741     1   107.5800459 329.699200
   2741   2739   2751     1   109.8000471 387.438400
   2742   2748   2749     1   109.5600471 388.275200
   2742   2748   2750     1   109.5600471 388.275200
   2743   2742   2748     1   109.8000471 387.438400
   2743   2742   2744     1   107.5800459 329.699200
   2744   2742   2748     1   109.8000471 387.438400
   2746   2745   2754     1   109.7800468 425.094400
   2746   2745   2747     1   108.4600466 328.025600
   2747   2745   2754     1   109.7800468 425.094400
   2749   2748   5538     1   109.7800468 425.094400
   2749   2748   2750     1   108.4600466 328.025600
   2750   2748   5538     1   109.7800468 425.094400
   2752   2751   5567     1   109.7800468 425.094400
   2752   2751   2753     1   108.4600466 328.025600
   2753   2751   5567     1   109.7800468 425.094400
   2755   2756   2757     1   109.8800469 414.216000
   2755   2756   2758     1   109.8800469 414.216000
   2755   2759   2760     1   109.8800469 414.216000
   2755   2759   2761     1   109.8800469 414.216000
   2755   2762   2763     1   109.8800469 414.216000
   2755   2762   2764     1   109.8800469 414.216000
   2756   2768   2769     1   109.8000471 387.438400
   2756   2768   2770     1   109.8000471 387.438400
   2757   2756   2768     1   109.5600471 388.275200
   2757   2756   2758     1   108.4600466 328.025600
   2758   2756   2768     1   109.5600471 388.275200
   2759   2771   2772     1   109.8000471 387.438400
   2759   2771   2773     1   109.8000471 387.438400
   2760   2759   2771     1   109.5600471 388.275200
   2760   2759   2761     1   108.4600466 328.025600
   2761   2759   2771     1   109.5600471 388.275200
   2762   2765   2766     1   109.8000471 387.438400
   2762   2765   2767     1   109.8000471 387.438400
   2763   2762   2765     1   109.5600471 388.275200
   2763   2762   2764     1   108.4600466 328.025600
   2764   2762   2765     1   109.5600471 388.275200
   2765   2774   2775     1   109.5600471 388.275200
   2765   2774   2776     1   109.5600471 388.275200
   2766   2765   2774     1   109.8000471 387.438400
   2766   2765   2767     1   107.5800459 329.699200
   2767   2765   2774     1   109.8000471 387.438400
   2768   2780   2781     1   109.5600471 388.275200
   2768   2780   2782     1   109.5600471 388.275200
   2769   2768   2780     1   109.8000471 387.438400
   2769   2768   2770     1   107.5800459 329.699200
   2770   2768   2780     1   109.8000471 387.438400
   2771   2777   2778     1   109.5600471 388.275200
   2771   2777   2779     1   109.5600471 388.275200
   2772   2771   2777     1   109.8000471 387.438400
   2772   2771   2773     1   107.5800459 329.699200
   2773   2771   2777     1   109.8000471 387.438400
   2775   2774   2783     1   109.7800468 425.094400
   2775   2774   2776     1   108.4600466 328.025600
   2776   2774   2783     1   109.7800468 425.094400
   2778   2777   5596     1   109.7800468 425.094400
   2778   2777   2779     1   108.4600466 328.025600
   2779   2777   5596     1   109.7800468 425.094400
   2781   2780   5625     1   109.7800468 425.094400
   2781   2780   2782     1   108.4600466 328.025600
   2782   2780   5625     1   109.7800468 425.094400
   2784   2785   2786     1   109.8800469 414.216000
   2784   2785   2787     1   109.8800469 414.216000
   2784   2788   2789     1   109.8800469 414.216000
   2784   2788   2790     1   109.8800469 414.216000
   2784   2791   2792     1   109.8800469 414.216000
   2784   2791   2793     1   109.8800469 414.216000
   2785   2797   2798     1   109.8000471 387.438400
   2785   2797   2799     1   109.8000471 387.438400
   2786   2785   2797     1   109.5600471 388.275200
   2786   2785   2787     1   108.4600466 328.025600
   2787   2785   2797     1   109.5600471 388.275200
   2788   2800   2801     1   109.8000471 387.438400
   2788   2800   2802     1   109.8000471 387.438400
   2789   2788   2800     1   109.5600471 388.275200
   2789   2788   2790     1   108.4600466 328.025600
   2790   2788   2800     1   109.5600471 388.275200
   2791   2794   2795     1   109.8000471 387.438400
   2791   2794   2796     1   109.8000471 387.438400
   2792   2791   2794     1   109.5600471 388.275200
   2792   2791   2793     1   108.4600466 328.025600
   2793   2791   2794     1   109.5600471 388.275200
   2794   2803   2804     1   109.5600471 388.275200
   2794   2803   2805     1   109.5600471 388.275200
   2795   2794   2803     1   109.8000471 387.438400
   2795   2794   2796     1   107.5800459 329.699200
   2796   2794   2803     1   109.8000471 387.438400
   2797   2809   2810     1   109.5600471 388.275200
   2797   2809   2811     1   109.5600471 388.275200
   2798   2797   2809     1   109.8000471 387.438400
   2798   2797   2799     1   107.5800459 329.699200
   2799   2797   2809     1   109.8000471 387.438400
   2800   2806   2807     1   109.5600471 388.275200
   2800   2806   2808     1   109.5600471 388.275200
   2801   2800   2806     1   109.8000471 387.438400
   2801   2800   2802     1   107.5800459 329.699200
   2802   2800   2806     1   109.8000471 387.438400
   2804   2803   2812     1   109.7800468 425.094400
   2804   2803   2805     1   108.4600466 328.025600
   2805   2803   2812     1   109.7800468 425.094400
   2807   2806   5654     1   109.7800468 425.094400
   2807   2806   2808     1   108.4600466 328.025600
   2808   2806   5654     1   109.7800468 425.094400
   2810   2809   5683     1   109.7800468 425.094400
   2810   2809   2811     1   108.4600466 328.025600
   2811   2809   5683     1   109.7800468 425.094400
   2813   2814   2815     1   109.8800469 414.216000
   2813   2814   2816     1   109.8800469 414.216000
   2813   2817   2818     1   109.8800469 414.216000
   2813   2817   2819     1   109.8800469 414.216000
   2813   2820   2821     1   109.8800469 414.216000
   2813   2820   2822     1   109.8800469 414.216000
   2814   2826   2827     1   109.8000471 387.438400
   2814   2826   2828     1   109.8000471 387.438400
   2815   2814   2826     1   109.5600471 388.275200
   2815   2814   2816     1   108.4600466 328.025600
   2816   2814   2826     1   109.5600471 388.275200
   2817   2829   2830     1   109.8000471 387.438400
   2817   2829   2831     1   109.8000471 387.438400
   2818   2817   2829     1   109.5600471 388.275200
   2818   2817   2819     1   108.4600466 328.025600
   2819   2817   2829     1   109.5600471 388.275200
   2820   2823   2824     1   109.8000471 387.438400
   2820   2823   2825     1   109.8000471 387.438400
   2821   2820   2823     1   109.5600471 388.275200
   2821   2820   2822     1   108.4600466 328.025600
   2822   2820   2823     1   109.5600471 388.275200
   2823   2832   2833     1   109.5600471 388.275200
   2823   2832   2834     1   109.5600471 388.275200
   2824   2823   2832     1   109.8000471 387.438400
   2824   2823   2825     1   107.5800459 329.699200
   2825   2823   2832     1   109.8000471 387.438400
   2826   2838   2839     1   109.5600471 388.275200
   2826   2838   2840     1   109.5600471 388.275200
   2827   2826   2838     1   109.8000471 387.438400
   2827   2826   2828     1   107.5800459 329.699200
   2828   2826   2838     1   109.8000471 387.438400
   2829   2835   2836     1   109.5600471 388.275200
   2829   2835   2837     1   109.5600471 388.275200
   2830   2829   2835     1   109.8000471 387.438400
   2830   2829   2831     1   107.5800459 329.699200
   2831   2829   2835     1   109.8000471 387.438400
   2833   2832   2841     1   109.7800468 425.094400
   2833   2832   2834     1   108.4600466 328.025600
   2834   2832   2841     1   109.7800468 425.094400
   2836   2835   5712     1   109.7800468 425.094400
   2836   2835   2837     1   108.4600466 328.025600
   2837   2835   5712     1   109.7800468 425.094400
   2839   2838   5741     1   109.7800468 425.094400
   2839   2838   2840     1   108.4600466 328.025600
   2840   2838   5741     1   109.7800468 425.094400
   2842   2843   2844     1   109.8800469 414.216000
   2842   2843   2845     1   109.8800469 414.216000
   2842   2846   2847     1   109.8800469 414.216000
   2842   2846   2848     1   109.8800469 414.216000
   2842   2849   2850     1   109.8800469 414.216000
   2842   2849   2851     1   109.8800469 414.216000
   2843   2855   2856     1   109.8000471 387.438400
   2843   2855   2857     1   109.8000471 387.438400
   2844   2843   2855     1   109.5600471 388.275200
   2844   2843   2845     1   108.4600466 328.025600
   2845   2843   2855     1   109.5600471 388.275200
   2846   2858   2859     1   109.8000471 387.438400
   2846   2858   2860     1   109.8000471 387.438400
   2847   2846   2858     1   109.5600471 388.275200
   2847   2846   2848     1   108.4600466 328.025600
   2848   2846   2858     1   109.5600471 388.275200
   2849   2852   2853     1   109.8000471 387.438400
   2849   2852   2854     1   109.8000471 387.438400
   2850   2849   2852     1   109.5600471 388.275200
   2850   2849   2851     1   108.4600466 328.025600
   2851   2849   2852     1   109.5600471 388.275200
   2852   2861   2862     1   109.5600471 388.275200
   2852   2861   2863     1   109.5600471 388.275200
   2853   2852   2861     1   109.8000471 387.438400
   2853   2852   2854     1   107.5800459 329.699200
   2854   2852   2861     1   109.8000471 387.438400
   2855   2867   2868     1   109.5600471 388.275200
   2855   2867   2869     1   109.5600471 388.275200
   2856   2855   2867     1   109.8000471 387.438400
   2856   2855   2857     1   107.5800459 329.699200
   2857   2855   2867     1   109.8000471 387.438400
   2858   2864   2865     1   109.5600471 388.275200
   2858   2864   2866     1   109.5600471 388.275200
   2859   2858   2864     1   109.8000471 387.438400
   2859   2858   2860     1   107.5800459 329.699200
   2860   2858   2864     1   109.8000471 387.438400
   2862   2861   2870     1   109.7800468 425.094400
   2862   2861   2863     1   108.4600466 328.025600
   2863   2861   2870     1   109.7800468 425.094400
   2865   2864   5770     1   109.7800468 425.094400
   2865   2864   2866     1   108.4600466 328.025600
   2866   2864   5770     1   109.7800468 425.094400
   2868   2867   5799     1   109.7800468 425.094400
   2868   2867   2869     1   108.4600466 328.025600
   2869   2867   5799     1   109.7800468 425.094400
   2871   2872   2873     1   109.8800469 414.216000
   2871   2872   2874     1   109.8800469 414.216000
   2871   2875   2876     1   109.8800469 414.216000
   2871   2875   2877     1   109.8800469 414.216000
   2871   2878   2879     1   109.8800469 414.216000
   2871   2878   2880     1   109.8800469 414.216000
   2872   2884   2885     1   109.8000471 387.438400
   2872   2884   2886     1   109.8000471 387.438400
   2873   2872   2884     1   109.5600471 388.275200
   2873   2872   2874     1   108.4600466 328.025600
   2874   2872   2884     1   109.5600471 388.275200
   2875   2887   2888     1   109.8000471 387.438400
   2875   2887   2889     1   109.8000471 387.438400
   2876   2875   2887     1   109.5600471 388.275200
   2876   2875   2877     1   108.4600466 328.025600
   2877   2875   2887     1   109.5600471 388.275200
   2878   2881   2882     1   109.8000471 387.438400
   2878   2881   2883     1   109.8000471 387.438400
   2879   2878   2881     1   109.5600471 388.275200
   2879   2878   2880     1   108.4600466 328.025600
   2880   2878   2881     1   109.5600471 388.275200
   2881   2890   2891     1   109.5600471 388.275200
   2881   2890   2892     1   109.5600471 388.275200
   2882   2881   2890     1   109.8000471 387.438400
   2882   2881   2883     1   107.5800459 329.699200
   2883   2881   2890     1   109.8000471 387.438400
   2884   2896   2897     1   109.5600471 388.275200
   2884   2896   2898     1   109.5600471 388.275200
   2885   2884   2896     1   109.8000471 387.438400
   2885   2884   2886     1   107.5800459 329.699200
   2886   2884   2896     1   109.8000471 387.438400
   2887   2893   2894     1   109.5600471 388.275200
   2887   2893   2895     1   109.5600471 388.275200
   2888   2887   2893     1   109.8000471 387.438400
   2888   2887   2889     1   107.5800459 329.699200
   2889   2887   2893     1   109.8000471 387.438400
   2891   2890   2899     1   109.7800468 425.094400
   2891   2890   2892     1   108.4600466 328.025600
   2892   2890   2899     1   109.7800468 425.094400
   2894   2893   5828     1   109.7800468 425.094400
   2894   2893   2895     1   108.4600466 328.025600
   2895   2893   5828     1   109.7800468 425.094400
   2897   2896   5857     1   109.7800468 425.094400
   2897   2896   2898     1   108.4600466 328.025600
   2898   2896   5857     1   109.7800468 425.094400
   2900   2901   2902     1   109.8800469 414.216000
   2900   2901   2903     1   109.8800469 414.216000
   2900   2904   2905     1   109.8800469 414.216000
   2900   2904   2906     1   109.8800469 414.216000
   2900   2907   2908     1   109.8800469 414.216000
   2900   2907   2909     1   109.8800469 414.216000
   2901   2913   2914     1   109.8000471 387.438400
   2901   2913   2915     1   109.8000471 387.438400
   2902   2901   2913     1   109.5600471 388.275200
   2902   2901   2903     1   108.4600466 328.025600
   2903   2901   2913     1   109.5600471 388.275200
   2904   2916   2917     1   109.8000471 387.438400
   2904   2916   2918     1   109.8000471 387.438400
   2905   2904   2916     1   109.5600471 388.275200
   2905   2904   2906     1   108.4600466 328.025600
   2906   2904   2916     1   109.5600471 388.275200
   2907   2910   2911     1   109.8000471 387.438400
   2907   2910   2912     1   109.8000471 387.438400
   2908   2907   2910     1   109.5600471 388.275200
   2908   2907   2909     1   108.4600466 328.025600
   2909   2907   2910     1   109.5600471 388.275200
   2910   2919   2920     1   109.5600471 388.275200
   2910   2919   2921     1   109.5600471 388.275200
   2911   2910   2919     1   109.8000471 387.438400
   2911   2910   2912     1   107.5800459 329.699200
   2912   2910   2919     1   109.8000471 387.438400
   2913   2925   2926     1   109.5600471 388.275200
   2913   2925   2927     1   109.5600471 388.275200
   2914   2913   2925     1   109.8000471 387.438400
   2914   2913   2915     1   107.5800459 329.699200
   2915   2913   2925     1   109.8000471 387.438400
   2916   2922   2923     1   109.5600471 388.275200
   2916   2922   2924     1   109.5600471 388.275200
   2917   2916   2922     1   109.8000471 387.438400
   2917   2916   2918     1   107.5800459 329.699200
   2918   2916   2922     1   109.8000471 387.438400
   2920   2919   2928     1   109.7800468 425.094400
   2920   2919   2921     1   108.4600466 328.025600
   2921   2919   2928     1   109.7800468 425.094400
   2923   2922   5886     1   109.7800468 425.094400
   2923   2922   2924     1   108.4600466 328.025600
   2924   2922   5886     1   109.7800468 425.094400
   2926   2925   5915     1   109.7800468 425.094400
   2926   2925   2927     1   108.4600466 328.025600
   2927   2925   5915     1   109.7800468 425.094400
   2929   2930   2931     1   109.8800469 414.216000
   2929   2930   2932     1   109.8800469 414.216000
   2929   2933   2934     1   109.8800469 414.216000
   2929   2933   2935     1   109.8800469 414.216000
   2929   2936   2937     1   109.8800469 414.216000
   2929   2936   2938     1   109.8800469 414.216000
   2930   2942   2943     1   109.8000471 387.438400
   2930   2942   2944     1   109.8000471 387.438400
   2931   2930   2942     1   109.5600471 388.275200
   2931   2930   2932     1   108.4600466 328.025600
   2932   2930   2942     1   109.5600471 388.275200
   2933   2945   2946     1   109.8000471 387.438400
   2933   2945   2947     1   109.8000471 387.438400
   2934   2933   2945     1   109.5600471 388.275200
   2934   2933   2935     1   108.4600466 328.025600
   2935   2933   2945     1   109.5600471 388.275200
   2936   2939   2940     1   109.8000471 387.438400
   2936   2939   2941     1   109.8000471 387.438400
   2937   2936   2939     1   109.5600471 388.275200
   2937   2936   2938     1   108.4600466 328.025600
   2938   2936   2939     1   109.5600471 388.275200
   2939   2948   2949     1   109.5600471 388.275200
   2939   2948   2950     1   109.5600471 388.275200
   2940   2939   2948     1   109.8000471 387.438400
   2940   2939   2941     1   107.5800459 329.699200
   2941   2939   2948     1   109.8000471 387.438400
   2942   2954   2955     1   109.5600471 388.275200
   2942   2954   2956     1   109.5600471 388.275200
   2943   2942   2954     1   109.8000471 387.438400
   2943   2942   2944     1   107.5800459 329.699200
   2944   2942   2954     1   109.8000471 387.438400
   2945   2951   2952     1   109.5600471 388.275200
   2945   2951   2953     1   109.5600471 388.275200
   2946   2945   2951     1   109.8000471 387.438400
   2946   2945   2947     1   107.5800459 329.699200
   2947   2945   2951     1   109.8000471 387.438400
   2949   2948   2957     1   109.7800468 425.094400
   2949   2948   2950     1   108.4600466 328.025600
   2950   2948   2957     1   109.7800468 425.094400
   2952   2951   5944     1   109.7800468 425.094400
   2952   2951   2953     1   108.4600466 328.025600
   2953   2951   5944     1   109.7800468 425.094400
   2955   2954   5973     1   109.7800468 425.094400
   2955   2954   2956     1   108.4600466 328.025600
   2956   2954   5973     1   109.7800468 425.094400
   2958   2959   2960     1   109.8800469 414.216000
   2958   2959   2961     1   109.8800469 414.216000
   2958   2962   2963     1   109.8800469 414.216000
   2958   2962   2964     1   109.8800469 414.216000
   2958   2965   2966     1   109.8800469 414.216000
   2958   2965   2967     1   109.8800469 414.216000
   2959   2971   2972     1   109.8000471 387.438400
   2959   2971   2973     1   109.8000471 387.438400
   2960   2959   2971     1   109.5600471 388.275200
   2960   2959   2961     1   108.4600466 328.025600
   2961   2959   2971     1   109.5600471 388.275200
   2962   2974   2975     1   109.8000471 387.438400
   2962   2974   2976     1   109.8000471 387.438400
   2963   2962   2974     1   109.5600471 388.275200
   2963   2962   2964     1   108.4600466 328.025600
   2964   2962   2974     1   109.5600471 388.275200
   2965   2968   2969     1   109.8000471 387.438400
   2965   2968   2970     1   109.8000471 387.438400
   2966   2965   2968     1   109.5600471 388.275200
   2966   2965   2967     1   108.4600466 328.025600
   2967   2965   2968     1   109.5600471 388.275200
   2968   2977   2978     1   109.5600471 388.275200
   2968   2977   2979     1   109.5600471 388.275200
   2969   2968   2977     1   109.8000471 387.438400
   2969   2968   2970     1   107.5800459 329.699200
   2970   2968   2977     1   109.8000471 387.438400
   2971   2983   2984     1   109.5600471 388.275200
   2971   2983   2985     1   109.5600471 388.275200
   2972   2971   2983     1   109.8000471 387.438400
   2972   2971   2973     1   107.5800459 329.699200
   2973   2971   2983     1   109.8000471 387.438400
   2974   2980   2981     1   109.5600471 388.275200
   2974   2980   2982     1   109.5600471 388.275200
   2975   2974   2980     1   109.8000471 387.438400
   2975   2974   2976     1   107.5800459 329.699200
   2976   2974   2980     1   109.8000471 387.438400
   2978   2977   2986     1   109.7800468 425.094400
   2978   2977   2979     1   108.4600466 328.025600
   2979   2977   2986     1   109.7800468 425.094400
   2981   2980   6002     1   109.7800468 425.094400
   2981   2980   2982     1   108.4600466 328.025600
   2982   2980   6002     1   109.7800468 425.094400
   2984   2983   6031     1   109.7800468 425.094400
   2984   2983   2985     1   108.4600466 328.025600
   2985   2983   6031     1   109.7800468 425.094400
   2987   2988   2989     1   109.8800469 414.216000
   2987   2988   2990     1   109.8800469 414.216000
   2987   2991   2992     1   109.8800469 414.216000
   2987   2991   2993     1   109.8800469 414.216000
   2987   2994   2995     1   109.8800469 414.216000
   2987   2994   2996     1   109.8800469 414.216000
   2988   3000   3001     1   109.8000471 387.438400
   2988   3000   3002     1   109.8000471 387.438400
   2989   2988   3000     1   109.5600471 388.275200
   2989   2988   2990     1   108.4600466 328.025600
   2990   2988   3000     1   109.5600471 388.275200
   2991   3003   3004     1   109.8000471 387.438400
   2991   3003   3005     1   109.8000471 387.438400
   2992   2991   3003     1   109.5600471 388.275200
   2992   2991   2993     1   108.4600466 328.025600
   2993   2991   3003     1   109.5600471 388.275200
   2994   2997   2998     1   109.8000471 387.438400
   2994   2997   2999     1   109.8000471 387.438400
   2995   2994   2997     1   109.5600471 388.275200
   2995   2994   2996     1   108.4600466 328.025600
   2996   2994   2997     1   109.5600471 388.275200
   2997   3006   3007     1   109.5600471 388.275200
   2997   3006   3008     1   109.5600471 388.275200
   2998   2997   3006     1   109.8000471 387.438400
   2998   2997   2999     1   107.5800459 329.699200
   2999   2997   3006     1   109.8000471 387.438400
   3000   3012   3013     1   109.5600471 388.275200
   3000   3012   3014     1   109.5600471 388.275200
   3001   3000   3012     1   109.8000471 387.438400
   3001   3000   3002     1   107.5800459 329.699200
   3002   3000   3012     1   109.8000471 387.438400
   3003   3009   3010     1   109.5600471 388.275200
   3003   3009   3011     1   109.5600471 388.275200
   3004   3003   3009     1   109.8000471 387.438400
   3004   3003   3005     1   107.5800459 329.699200
   3005   3003   3009     1   109.8000471 387.438400
   3007   3006   3015     1   109.7800468 425.094400
   3007   3006   3008     1   108.4600466 328.025600
   3008   3006   3015     1   109.7800468 425.094400
   3010   3009   6060     1   109.7800468 425.094400
   3010   3009   3011     1   108.4600466 328.025600
   3011   3009   6060     1   109.7800468 425.094400
   3013   3012   6089     1   109.7800468 425.094400
   3013   3012   3014     1   108.4600466 328.025600
   3014   3012   6089     1   109.7800468 425.094400
   3016   3017   3018     1   109.8800469 414.216000
   3016   3017   3019     1   109.8800469 414.216000
   3016   3020   3021     1   109.8800469 414.216000
   3016   3020   3022     1   109.8800469 414.216000
   3016   3023   3024     1   109.8800469 414.216000
   3016   3023   3025     1   109.8800469 414.216000
   3017   3029   3030     1   109.8000471 387.438400
   3017   3029   3031     1   109.8000471 387.438400
   3018   3017   3029     1   109.5600471 388.275200
   3018   3017   3019     1   108.4600466 328.025600
   3019   3017   3029     1   109.5600471 388.275200
   3020   3032   3033     1   109.8000471 387.438400
   3020   3032   3034     1   109.8000471 387.438400
   3021   3020   3032     1   109.5600471 388.275200
   3021   3020   3022     1   108.4600466 328.025600
   3022   3020   3032     1   109.5600471 388.275200
   3023   3026   3027     1   109.8000471 387.438400
   3023   3026   3028     1   109.8000471 387.438400
   3024   3023   3026     1   109.5600471 388.275200
   3024   3023   3025     1   108.4600466 328.025600
   3025   3023   3026     1   109.5600471 388.275200
   3026   3035   3036     1   109.5600471 388.275200
   3026   3035   3037     1   109.5600471 388.275200
   3027   3026   3035     1   109.8000471 387.438400
   3027   3026   3028     1   107.5800459 329.699200
   3028   3026   3035     1   109.8000471 387.438400
   3029   3041   3042     1   109.5600471 388.275200
   3029   3041   3043     1   109.5600471 388.275200
   3030   3029   3041     1   109.8000471 387.438400
   3030   3029   3031     1   107.5800459 329.699200
   3031   3029   3041     1   109.8000471 387.438400
   3032   3038   3039     1   109.5600471 388.275200
   3032   3038   3040     1   109.5600471 388.275200
   3033   3032   3038     1   109.8000471 387.438400
   3033   3032   3034     1   107.5800459 329.699200
   3034   3032   3038     1   109.8000471 387.438400
   3036   3035   3044     1   109.7800468 425.094400
   3036   3035   3037     1   108.4600466 328.025600
   3037   3035   3044     1   109.7800468 425.094400
   3039   3038   6118     1   109.7800468 425.094400
   3039   3038   3040     1   108.4600466 328.025600
   3040   3038   6118     1   109.7800468 425.094400
   3042   3041   6147     1   109.7800468 425.094400
   3042   3041   3043     1   108.4600466 328.025600
   3043   3041   6147     1   109.7800468 425.094400
   3045   3046   3047     1   109.8800469 414.216000
   3045   3046   3048     1   109.8800469 414.216000
   3045   3049   3050     1   109.8800469 414.216000
   3045   3049   3051     1   109.8800469 414.216000
   3045   3052   3053     1   109.8800469 414.216000
   3045   3052   3054     1   109.8800469 414.216000
   3046   3058   3059     1   109.8000471 387.438400
   3046   3058   3060     1   109.8000471 387.438400
   3047   3046   3058     1   109.5600471 388.275200
   3047   3046   3048     1   108.4600466 328.025600
   3048   3046   3058     1   109.5600471 388.275200
   3049   3061   3062     1   109.8000471 387.438400
   3049   3061   3063     1   109.8000471 387.438400
   3050   3049   3061     1   109.5600471 388.275200
   3050   3049   3051     1   108.4600466 328.025600
   3051   3049   3061     1   109.5600471 388.275200
   3052   3055   3056     1   109.8000471 387.438400
   3052   3055   3057     1   109.8000471 387.438400
   3053   3052   3055     1   109.5600471 388.275200
   3053   3052   3054     1   108.4600466 328.025600
   3054   3052   3055     1   109.5600471 388.275200
   3055   3064   3065     1   109.5600471 388.275200
   3055   3064   3066     1   109.5600471 388.275200
   3056   3055   3064     1   109.8000471 387.438400
   3056   3055   3057     1   107.5800459 329.699200
   3057   3055   3064     1   109.8000471 387.438400
   3058   3070   3071     1   109.5600471 388.275200
   3058   3070   3072     1   109.5600471 388.275200
   3059   3058   3070     1   109.8000471 387.438400
   3059   3058   3060     1   107.5800459 329.699200
   3060   3058   3070     1   109.8000471 387.438400
   3061   3067   3068     1   109.5600471 388.275200
   3061   3067   3069     1   109.5600471 388.275200
   3062   3061   3067     1   109.8000471 387.438400
   3062   3061   3063     1   107.5800459 329.699200
   3063   3061   3067     1   109.8000471 387.438400
   3065   3064   3073     1   109.7800468 425.094400
   3065   3064   3066     1   108.4600466 328.025600
   3066   3064   3073     1   109.7800468 425.094400
   3068   3067   6176     1   109.7800468 425.094400
   3068   3067   3069     1   108.4600466 328.025600
   3069   3067   6176     1   109.7800468 425.094400
   3071   3070   6205     1   109.7800468 425.094400
   3071   3070   3072     1   108.4600466 328.025600
   3072   3070   6205     1   109.7800468 425.094400
   3074   3075   3076     1   109.8800469 414.216000
   3074   3075   3077     1   109.8800469 414.216000
   3074   3078   3079     1   109.8800469 414.216000
   3074   3078   3080     1   109.8800469 414.216000
   3074   3081   3082     1   109.8800469 414.216000
   3074   3081   3083     1   109.8800469 414.216000
   3075   3087   3088     1   109.8000471 387.438400
   3075   3087   3089     1   109.8000471 387.438400
   3076   3075   3087     1   109.5600471 388.275200
   3076   3075   3077     1   108.4600466 328.025600
   3077   3075   3087     1   109.5600471 388.275200
   3078   3090   3091     1   109.8000471 387.438400
   3078   3090   3092     1   109.8000471 387.438400
   3079   3078   3090     1   109.5600471 388.275200
   3079   3078   3080     1   108.4600466 328.025600
   3080   3078   3090     1   109.5600471 388.275200
   3081   3084   3085     1   109.8000471 387.438400
   3081   3084   3086     1   109.8000471 387.438400
   3082   3081   3084     1   109.5600471 388.275200
   3082   3081   3083     1   108.4600466 328.025600
   3083   3081   3084     1   109.5600471 388.275200
   3084   3093   3094     1   109.5600471 388.275200
   3084   3093   3095     1   109.5600471 388.275200
   3085   3084   3093     1   109.8000471 387.438400
   3085   3084   3086     1   107.5800459 329.699200
   3086   3084   3093     1   109.8000471 387.438400
   3087   3099   3100     1   109.5600471 388.275200
   3087   3099   3101     1   109.5600471 388.275200
   3088   3087   3099     1   109.8000471 387.438400
   3088   3087   3089     1   107.5800459 329.699200
   3089   3087   3099     1   109.8000471 387.438400
   3090   3096   3097     1   109.5600471 388.275200
   3090   3096   3098     1   109.5600471 388.275200
   3091   3090   3096     1   109.8000471 387.438400
   3091   3090   3092     1   107.5800459 329.699200
   3092   3090   3096     1   109.8000471 387.438400
   3094   3093   3102     1   109.7800468 425.094400
   3094   3093   3095     1   108.4600466 328.025600
   3095   3093   3102     1   109.7800468 425.094400
   3097   3096   6234     1   109.7800468 425.094400
   3097   3096   3098     1   108.4600466 328.025600
   3098   3096   6234     1   109.7800468 425.094400
   3100   3099   6263     1   109.7800468 425.094400
   3100   3099   3101     1   108.4600466 328.025600
   3101   3099   6263     1   109.7800468 425.094400
   3103   3104   3105     1   109.8800469 414.216000
   3103   3104   3106     1   109.8800469 414.216000
   3103   3107   3108     1   109.8800469 414.216000
   3103   3107   3109     1   109.8800469 414.216000
   3103   3110   3111     1   109.8800469 414.216000
   3103   3110   3112     1   109.8800469 414.216000
   3104   3116   3117     1   109.8000471 387.438400
   3104   3116   3118     1   109.8000471 387.438400
   3105   3104   3116     1   109.5600471 388.275200
   3105   3104   3106     1   108.4600466 328.025600
   3106   3104   3116     1   109.5600471 388.275200
   3107   3119   3120     1   109.8000471 387.438400
   3107   3119   3121     1   109.8000471 387.438400
   3108   3107   3119     1   109.5600471 388.275200
   3108   3107   3109     1   108.4600466 328.025600
   3109   3107   3119     1   109.5600471 388.275200
   3110   3113   3114     1   109.8000471 387.438400
   3110   3113   3115     1   109.8000471 387.438400
   3111   3110   3113     1   109.5600471 388.275200
   3111   3110   3112     1   108.4600466 328.025600
   3112   3110   3113     1   109.5600471 388.275200
   3113   3122   3123     1   109.5600471 388.275200
   3113   3122   3124     1   109.5600471 388.275200
   3114   3113   3122     1   109.8000471 387.438400
   3114   3113   3115     1   107.5800459 329.699200
   3115   3113   3122     1   109.8000471 387.438400
   3116   3128   3129     1   109.5600471 388.275200
   3116   3128   3130     1   109.5600471 388.275200
   3117   3116   3128     1   109.8000471 387.438400
   3117   3116   3118     1   107.5800459 329.699200
   3118   3116   3128     1   109.8000471 387.438400
   3119   3125   3126     1   109.5600471 388.275200
   3119   3125   3127     1   109.5600471 388.275200
   3120   3119   3125     1   109.8000471 387.438400
   3120   3119   3121     1   107.5800459 329.699200
   3121   3119   3125     1   109.8000471 387.438400
   3123   3122   3131     1   109.7800468 425.094400
   3123   3122   3124     1   108.4600466 328.025600
   3124   3122   3131     1   109.7800468 425.094400
   3126   3125   6292     1   109.7800468 425.094400
   3126   3125   3127     1   108.4600466 328.025600
   3127   3125   6292     1   109.7800468 425.094400
   3129   3128   6321     1   109.7800468 425.094400
   3129   3128   3130     1   108.4600466 328.025600
   3130   3128   6321     1   109.7800468 425.094400
   3132   3133   3134     1   109.8800469 414.216000
   3132   3133   3135     1   109.8800469 414.216000
   3132   3136   3137     1   109.8800469 414.216000
   3132   3136   3138     1   109.8800469 414.216000
   3132   3139   3140     1   109.8800469 414.216000
   3132   3139   3141     1   109.8800469 414.216000
   3133   3145   3146     1   109.8000471 387.438400
   3133   3145   3147     1   109.8000471 387.438400
   3134   3133   3145     1   109.5600471 388.275200
   3134   3133   3135     1   108.4600466 328.025600
   3135   3133   3145     1   109.5600471 388.275200
   3136   3148   3149     1   109.8000471 387.438400
   3136   3148   3150     1   109.8000471 387.438400
   3137   3136   3148     1   109.5600471 388.275200
   3137   3136   3138     1   108.4600466 328.025600
   3138   3136   3148     1   109.5600471 388.275200
   3139   3142   3143     1   109.8000471 387.438400
   3139   3142   3144     1   109.8000471 387.438400
   3140   3139   3142     1   109.5600471 388.275200
   3140   3139   3141     1   108.4600466 328.025600
   3141   3139   3142     1   109.5600471 388.275200
   3142   3151   3152     1   109.5600471 388.275200
   3142   3151   3153     1   109.5600471 388.275200
   3143   3142   3151     1   109.8000471 387.438400
   3143   3142   3144     1   107.5800459 329.699200
   3144   3142   3151     1   109.8000471 387.438400
   3145   3157   3158     1   109.5600471 388.275200
   3145   3157   3159     1   109.5600471 388.275200
   3146   3145   3157     1   109.8000471 387.438400
   3146   3145   3147     1   107.5800459 329.699200
   3147   3145   3157     1   109.8000471 387.438400
   3148   3154   3155     1   109.5600471 388.275200
   3148   3154   3156     1   109.5600471 388.275200
   3149   3148   3154     1   109.8000471 387.438400
   3149   3148   3150     1   107.5800459 329.699200
   3150   3148   3154     1   109.8000471 387.438400
   3152   3151   3160     1   109.7800468 425.094400
   3152   3151   3153     1   108.4600466 328.025600
   3153   3151   3160     1   109.7800468 425.094400
   3155   3154   6350     1   109.7800468 425.094400
   3155   3154   3156     1   108.4600466 328.025600
   3156   3154   6350     1   109.7800468 425.094400
   3158   3157   6379     1   109.7800468 425.094400
   3158   3157   3159     1   108.4600466 328.025600
   3159   3157   6379     1   109.7800468 425.094400
   3161   3162   3163     1   109.8800469 414.216000
   3161   3162   3164     1   109.8800469 414.216000
   3161   3165   3166     1   109.8800469 414.216000
   3161   3165   3167     1   109.8800469 414.216000
   3161   3168   3169     1   109.8800469 414.216000
   3161   3168   3170     1   109.8800469 414.216000
   3162   3174   3175     1   109.8000471 387.438400
   3162   3174   3176     1   109.8000471 387.438400
   3163   3162   3174     1   109.5600471 388.275200
   3163   3162   3164     1   108.4600466 328.025600
   3164   3162   3174     1   109.5600471 388.275200
   3165   3177   3178     1   109.8000471 387.438400
   3165   3177   3179     1   109.8000471 387.438400
   3166   3165   3177     1   109.5600471 388.275200
   3166   3165   3167     1   108.4600466 328.025600
   3167   3165   3177     1   109.5600471 388.275200
   3168   3171   3172     1   109.8000471 387.438400
   3168   3171   3173     1   109.8000471 387.438400
   3169   3168   3171     1   109.5600471 388.275200
   3169   3168   3170     1   108.4600466 328.025600
   3170   3168   3171     1   109.5600471 388.275200
   3171   3180   3181     1   109.5600471 388.275200
   3171   3180   3182     1   109.5600471 388.275200
   3172   3171   3180     1   109.8000471 387.438400
   3172   3171   3173     1   107.5800459 329.699200
   3173   3171   3180     1   109.8000471 387.438400
   3174   3186   3187     1   109.5600471 388.275200
   3174   3186   3188     1   109.5600471 388.275200
   3175   3174   3186     1   109.8000471 387.438400
   3175   3174   3176     1   107.5800459 329.699200
   3176   3174   3186     1   109.8000471 387.438400
   3177   3183   3184     1   109.5600471 388.275200
   3177   3183   3185     1   109.5600471 388.275200
   3178   3177   3183     1   109.8000471 387.438400
   3178   3177   3179     1   107.5800459 329.699200
   3179   3177   3183     1   109.8000471 387.438400
   3181   3180   3189     1   109.7800468 425.094400
   3181   3180   3182     1   108.4600466 328.025600
   3182   3180   3189     1   109.7800468 425.094400
   3184   3183   6408     1   109.7800468 425.094400
   3184   3183   3185     1   108.4600466 328.025600
   3185   3183   6408     1   109.7800468 425.094400
   3187   3186   6437     1   109.7800468 425.094400
   3187   3186   3188     1   108.4600466 328.025600
   3188   3186   6437     1   109.7800468 425.094400
   3190   3191   3192     1   109.8800469 414.216000
   3190   3191   3193     1   109.8800469 414.216000
   3190   3194   3195     1   109.8800469 414.216000
   3190   3194   3196     1   109.8800469 414.216000
   3190   3197   3198     1   109.8800469 414.216000
   3190   3197   3199     1   109.8800469 414.216000
   3191   3203   3204     1   109.8000471 387.438400
   3191   3203   3205     1   109.8000471 387.438400
   3192   3191   3203     1   109.5600471 388.275200
   3192   3191   3193     1   108.4600466 328.025600
   3193   3191   3203     1   109.5600471 388.275200
   3194   3206   3207     1   109.8000471 387.438400
   3194   3206   3208     1   109.8000471 387.438400
   3195   3194   3206     1   109.5600471 388.275200
   3195   3194   3196     1   108.4600466 328.025600
   3196   3194   3206     1   109.5600471 388.275200
   3197   3200   3201     1   109.8000471 387.438400
   3197   3200   3202     1   109.8000471 387.438400
   3198   3197   3200     1   109.5600471 388.275200
   3198   3197   3199     1   108.4600466 328.025600
   3199   3197   3200     1   109.5600471 388.275200
   3200   3209   3210     1   109.5600471 388.275200
   3200   3209   3211     1   109.5600471 388.275200
   3201   3200   3209     1   109.8000471 387.438400
   3201   3200   3202     1   107.5800459 329.699200
   3202   3200   3209     1   109.8000471 387.438400
   3203   3215   3216     1   109.5600471 388.275200
   3203   3215   3217     1   109.5600471 388.275200
   3204   3203   3215     1   109.8000471 387.438400
   3204   3203   3205     1   107.5800459 329.699200
   3205   3203   3215     1   109.8000471 387.438400
   3206   3212   3213     1   109.5600471 388.275200
   3206   3212   3214     1   109.5600471 388.275200
   3207   3206   3212     1   109.8000471 387.438400
   3207   3206   3208     1   107.5800459 329.699200
   3208   3206   3212     1   109.8000471 387.438400
   3210   3209   3218     1   109.7800468 425.094400
   3210   3209   3211     1   108.4600466 328.025600
   3211   3209   3218     1   109.7800468 425.094400
   3213   3212   6466     1   109.7800468 425.094400
   3213   3212   3214     1   108.4600466 328.025600
   3214   3212   6466     1   109.7800468 425.094400
   3216   3215   6495     1   109.7800468 425.094400
   3216   3215   3217     1   108.4600466 328.025600
   3217   3215   6495     1   109.7800468 425.094400
   3219   3220   3221     1   109.8800469 414.216000
   3219   3220   3222     1   109.8800469 414.216000
   3219   3223   3224     1   109.8800469 414.216000
   3219   3223   3225     1   109.8800469 414.216000
   3219   3226   3227     1   109.8800469 414.216000
   3219   3226   3228     1   109.8800469 414.216000
   3220   3232   3233     1   109.8000471 387.438400
   3220   3232   3234     1   109.8000471 387.438400
   3221   3220   3232     1   109.5600471 388.275200
   3221   3220   3222     1   108.4600466 328.025600
   3222   3220   3232     1   109.5600471 388.275200
   3223   3235   3236     1   109.8000471 387.438400
   3223   3235   3237     1   109.8000471 387.438400
   3224   3223   3235     1   109.5600471 388.275200
   3224   3223   3225     1   108.4600466 328.025600
   3225   3223   3235     1   109.5600471 388.275200
   3226   3229   3230     1   109.8000471 387.438400
   3226   3229   3231     1   109.8000471 387.438400
   3227   3226   3229     1   109.5600471 388.275200
   3227   3226   3228     1   108.4600466 328.025600
   3228   3226   3229     1   109.5600471 388.275200
   3229   3238   3239     1   109.5600471 388.275200
   3229   3238   3240     1   109.5600471 388.275200
   3230   3229   3238     1   109.8000471 387.438400
   3230   3229   3231     1   107.5800459 329.699200
   3231   3229   3238     1   109.8000471 387.438400
   3232   3244   3245     1   109.5600471 388.275200
   3232   3244   3246     1   109.5600471 388.275200
   3233   3232   3244     1   109.8000471 387.438400
   3233   3232   3234     1   107.5800459 329.699200
   3234   3232   3244     1   109.8000471 387.438400
   3235   3241   3242     1   109.5600471 388.275200
   3235   3241   3243     1   109.5600471 388.275200
   3236   3235   3241     1   109.8000471 387.438400
   3236   3235   3237     1   107.5800459 329.699200
   3237   3235   3241     1   109.8000471 387.438400
   3239   3238   3247     1   109.7800468 425.094400
   3239   3238   3240     1   108.4600466 328.025600
   3240   3238   3247     1   109.7800468 425.094400
   3242   3241   6524     1   109.7800468 425.094400
   3242   3241   3243     1   108.4600466 328.025600
   3243   3241   6524     1   109.7800468 425.094400
   3245   3244   6553     1   109.7800468 425.094400
   3245   3244   3246     1   108.4600466 328.025600
   3246   3244   6553     1   109.7800468 425.094400
   3248   3249   3250     1   109.8800469 414.216000
   3248   3249   3251     1   109.8800469 414.216000
   3248   3252   3253     1   109.8800469 414.216000
   3248   3252   3254     1   109.8800469 414.216000
   3248   3255   3256     1   109.8800469 414.216000
   3248   3255   3257     1   109.8800469 414.216000
   3249   3261   3262     1   109.8000471 387.438400
   3249   3261   3263     1   109.8000471 387.438400
   3250   3249   3261     1   109.5600471 388.275200
   3250   3249   3251     1   108.4600466 328.025600
   3251   3249   3261     1   109.5600471 388.275200
   3252   3264   3265     1   109.8000471 387.438400
   3252   3264   3266     1   109.8000471 387.438400
   3253   3252   3264     1   109.5600471 388.275200
   3253   3252   3254     1   108.4600466 328.025600
   3254   3252   3264     1   109.5600471 388.275200
   3255   3258   3259     1   109.8000471 387.438400
   3255   3258   3260     1   109.8000471 387.438400
   3256   3255   3258     1   109.5600471 388.275200
   3256   3255   3257     1   108.4600466 328.025600
   3257   3255   3258     1   109.5600471 388.275200
   3258   3267   3268     1   109.5600471 388.275200
   3258   3267   3269     1   109.5600471 388.275200
   3259   3258   3267     1   109.8000471 387.438400
   3259   3258   3260     1   107.5800459 329.699200
   3260   3258   3267     1   109.8000471 387.438400
   3261   3273   3274     1   109.5600471 388.275200
   3261   3273   3275     1   109.5600471 388.275200
   3262   3261   3273     1   109.8000471 387.438400
   3262   3261   3263     1   107.5800459 329.699200
   3263   3261   3273     1   109.8000471 387.438400
   3264   3270   3271     1   109.5600471 388.275200
   3264   3270   3272     1   109.5600471 388.275200
   3265   3264   3270     1   109.8000471 387.438400
   3265   3264   3266     1   107.5800459 329.699200
   3266   3264   3270     1   109.8000471 387.438400
   3268   3267   3276     1   109.7800468 425.094400
   3268   3267   3269     1   108.4600466 328.025600
   3269   3267   3276     1   109.7800468 425.094400
   3271   3270   6582     1   109.7800468 425.094400
   3271   3270   3272     1   108.4600466 328.025600
   3272   3270   6582     1   109.7800468 425.094400
   3274   3273   6611     1   109.7800468 425.094400
   3274   3273   3275     1   108.4600466 328.025600
   3275   3273   6611     1   109.7800468 425.094400
   3277   3278   3279     1   109.8800469 414.216000
   3277   3278   3280     1   109.8800469 414.216000
   3277   3281   3282     1   109.8800469 414.216000
   3277   3281   3283     1   109.8800469 414.216000
   3277   3284   3285     1   109.8800469 414.216000
   3277   3284   3286     1   109.8800469 414.216000
   3278   3290   3291     1   109.8000471 387.438400
   3278   3290   3292     1   109.8000471 387.438400
   3279   3278   3290     1   109.5600471 388.275200
   3279   3278   3280     1   108.4600466 328.025600
   3280   3278   3290     1   109.5600471 388.275200
   3281   3293   3294     1   109.8000471 387.438400
   3281   3293   3295     1   109.8000471 387.438400
   3282   3281   3293     1   109.5600471 388.275200
   3282   3281   3283     1   108.4600466 328.025600
   3283   3281   3293     1   109.5600471 388.275200
   3284   3287   3288     1   109.8000471 387.438400
   3284   3287   3289     1   109.8000471 387.438400
   3285   3284   3287     1   109.5600471 388.275200
   3285   3284   3286     1   108.4600466 328.025600
   3286   3284   3287     1   109.5600471 388.275200
   3287   3296   3297     1   109.5600471 388.275200
   3287   3296   3298     1   109.5600471 388.275200
   3288   3287   3296     1   109.8000471 387.438400
   3288   3287   3289     1   107.5800459 329.699200
   3289   3287   3296     1   109.8000471 387.438400
   3290   3302   3303     1   109.5600471 388.275200
   3290   3302   3304     1   109.5600471 388.275200
   3291   3290   3302     1   109.8000471 387.438400
   3291   3290   3292     1   107.5800459 329.699200
   3292   3290   3302     1   109.8000471 387.438400
   3293   3299   3300     1   109.5600471 388.275200
   3293   3299   3301     1   109.5600471 388.275200
   3294   3293   3299     1   109.8000471 387.438400
   3294   3293   3295     1   107.5800459 329.699200
   3295   3293   3299     1   109.8000471 387.438400
   3297   3296   3305     1   109.7800468 425.094400
   3297   3296   3298     1   108.4600466 328.025600
   3298   3296   3305     1   109.7800468 425.094400
   3300   3299   6640     1   109.7800468 425.094400
   3300   3299   3301     1   108.4600466 328.025600
   3301   3299   6640     1   109.7800468 425.094400
   3303   3302   6669     1   109.7800468 425.094400
   3303   3302   3304     1   108.4600466 328.025600
   3304   3302   6669     1   109.7800468 425.094400
   3306   3307   3308     1   109.8800469 414.216000
   3306   3307   3309     1   109.8800469 414.216000
   3306   3310   3311     1   109.8800469 414.216000
   3306   3310   3312     1   109.8800469 414.216000
   3306   3313   3314     1   109.8800469 414.216000
   3306   3313   3315     1   109.8800469 414.216000
   3307   3319   3320     1   109.8000471 387.438400
   3307   3319   3321     1   109.8000471 387.438400
   3308   3307   3319     1   109.5600471 388.275200
   3308   3307   3309     1   108.4600466 328.025600
   3309   3307   3319     1   109.5600471 388.275200
   3310   3322   3323     1   109.8000471 387.438400
   3310   3322   3324     1   109.8000471 387.438400
   3311   3310   3322     1   109.5600471 388.275200
   3311   3310   3312     1   108.4600466 328.025600
   3312   3310   3322     1   109.5600471 388.275200
   3313   3316   3317     1   109.8000471 387.438400
   3313   3316   3318     1   109.8000471 387.438400
   3314   3313   3316     1   109.5600471 388.275200
   3314   3313   3315     1   108.4600466 328.025600
   3315   3313   3316     1   109.5600471 388.275200
   3316   3325   3326     1   109.5600471 388.275200
   3316   3325   3327     1   109.5600471 388.275200
   3317   3316   3325     1   109.8000471 387.438400
   3317   3316   3318     1   107.5800459 329.699200
   3318   3316   3325     1   109.8000471 387.438400
   3319   3331   3332     1   109.5600471 388.275200
   3319   3331   3333     1   109.5600471 388.275200
   3320   3319   3331     1   109.8000471 387.438400
   3320   3319   3321     1   107.5800459 329.699200
   3321   3319   3331     1   109.8000471 387.438400
   3322   3328   3329     1   109.5600471 388.275200
   3322   3328   3330     1   109.5600471 388.275200
   3323   3322   3328     1   109.8000471 387.438400
   3323   3322   3324     1   107.5800459 329.699200
   3324   3322   3328     1   109.8000471 387.438400
   3326   3325   3334     1   109.7800468 425.094400
   3326   3325   3327     1   108.4600466 328.025600
   3327   3325   3334     1   109.7800468 425.094400
   3329   3328   6698     1   109.7800468 425.094400
   3329   3328   3330     1   108.4600466 328.025600
   3330   3328   6698     1   109.7800468 425.094400
   3332   3331   6727     1   109.7800468 425.094400
   3332   3331   3333     1   108.4600466 328.025600
   3333   3331   6727     1   109.7800468 425.094400
   3335   3336   3337     1   109.8800469 414.216000
   3335   3336   3338     1   109.8800469 414.216000
   3335   3339   3340     1   109.8800469 414.216000
   3335   3339   3341     1   109.8800469 414.216000
   3335   3342   3343     1   109.8800469 414.216000
   3335   3342   3344     1   109.8800469 414.216000
   3336   3348   3349     1   109.8000471 387.438400
   3336   3348   3350     1   109.8000471 387.438400
   3337   3336   3348     1   109.5600471 388.275200
   3337   3336   3338     1   108.4600466 328.025600
   3338   3336   3348     1   109.5600471 388.275200
   3339   3351   3352     1   109.8000471 387.438400
   3339   3351   3353     1   109.8000471 387.438400
   3340   3339   3351     1   109.5600471 388.275200
   3340   3339   3341     1   108.4600466 328.025600
   3341   3339   3351     1   109.5600471 388.275200
   3342   3345   3346     1   109.8000471 387.438400
   3342   3345   3347     1   109.8000471 387.438400
   3343   3342   3345     1   109.5600471 388.275200
   3343   3342   3344     1   108.4600466 328.025600
   3344   3342   3345     1   109.5600471 388.275200
   3345   3354   3355     1   109.5600471 388.275200
   3345   3354   3356     1   109.5600471 388.275200
   3346   3345   3354     1   109.8000471 387.438400
   3346   3345   3347     1   107.5800459 329.699200
   3347   3345   3354     1   109.8000471 387.438400
   3348   3360   3361     1   109.5600471 388.275200
   3348   3360   3362     1   109.5600471 388.275200
   3349   3348   3360     1   109.8000471 387.438400
   3349   3348   3350     1   107.5800459 329.699200
   3350   3348   3360     1   109.8000471 387.438400
   3351   3357   3358     1   109.5600471 388.275200
   3351   3357   3359     1   109.5600471 388.275200
   3352   3351   3357     1   109.8000471 387.438400
   3352   3351   3353     1   107.5800459 329.699200
   3353   3351   3357     1   109.8000471 387.438400
   3355   3354   3363     1   109.7800468 425.094400
   3355   3354   3356     1   108.4600466 328.025600
   3356   3354   3363     1   109.7800468 425.094400
   3358   3357   6756     1   109.7800468 425.094400
   3358   3357   3359     1   108.4600466 328.025600
   3359   3357   6756     1   109.7800468 425.094400
   3361   3360   6785     1   109.7800468 425.094400
   3361   3360   3362     1   108.4600466 328.025600
   3362   3360   6785     1   109.7800468 425.094400
   3364   3365   3366     1   109.8800469 414.216000
   3364   3365   3367     1   109.8800469 414.216000
   3364   3368   3369     1   109.8800469 414.216000
   3364   3368   3370     1   109.8800469 414.216000
   3364   3371   3372     1   109.8800469 414.216000
   3364   3371   3373     1   109.8800469 414.216000
   3365   3377   3378     1   109.8000471 387.438400
   3365   3377   3379     1   109.8000471 387.438400
   3366   3365   3377     1   109.5600471 388.275200
   3366   3365   3367     1   108.4600466 328.025600
   3367   3365   3377     1   109.5600471 388.275200
   3368   3380   3381     1   109.8000471 387.438400
   3368   3380   3382     1   109.8000471 387.438400
   3369   3368   3380     1   109.5600471 388.275200
   3369   3368   3370     1   108.4600466 328.025600
   3370   3368   3380     1   109.5600471 388.275200
   3371   3374   3375     1   109.8000471 387.438400
   3371   3374   3376     1   109.8000471 387.438400
   3372   3371   3374     1   109.5600471 388.275200
   3372   3371   3373     1   108.4600466 328.025600
   3373   3371   3374     1   109.5600471 388.275200
   3374   3383   3384     1   109.5600471 388.275200
   3374   3383   3385     1   109.5600471 388.275200
   3375   3374   3383     1   109.8000471 387.438400
   3375   3374   3376     1   107.5800459 329.699200
   3376   3374   3383     1   109.8000471 387.438400
   3377   3389   3390     1   109.5600471 388.275200
   3377   3389   3391     1   109.5600471 388.275200
   3378   3377   3389     1   109.8000471 387.438400
   3378   3377   3379     1   107.5800459 329.699200
   3379   3377   3389     1   109.8000471 387.438400
   3380   3386   3387     1   109.5600471 388.275200
   3380   3386   3388     1   109.5600471 388.275200
   3381   3380   3386     1   109.8000471 387.438400
   3381   3380   3382     1   107.5800459 329.699200
   3382   3380   3386     1   109.8000471 387.438400
   3384   3383   3392     1   109.7800468 425.094400
   3384   3383   3385     1   108.4600466 328.025600
   3385   3383   3392     1   109.7800468 425.094400
   3387   3386   6814     1   109.7800468 425.094400
   3387   3386   3388     1   108.4600466 328.025600
   3388   3386   6814     1   109.7800468 425.094400
   3390   3389   6843     1   109.7800468 425.094400
   3390   3389   3391     1   108.4600466 328.025600
   3391   3389   6843     1   109.7800468 425.094400
   3393   3394   3395     1   109.8800469 414.216000
   3393   3394   3396     1   109.8800469 414.216000
   3393   3397   3398     1   109.8800469 414.216000
   3393   3397   3399     1   109.8800469 414.216000
   3393   3400   3401     1   109.8800469 414.216000
   3393   3400   3402     1   109.8800469 414.216000
   3394   3406   3407     1   109.8000471 387.438400
   3394   3406   3408     1   109.8000471 387.438400
   3395   3394   3406     1   109.5600471 388.275200
   3395   3394   3396     1   108.4600466 328.025600
   3396   3394   3406     1   109.5600471 388.275200
   3397   3409   3410     1   109.8000471 387.438400
   3397   3409   3411     1   109.8000471 387.438400
   3398   3397   3409     1   109.5600471 388.275200
   3398   3397   3399     1   108.4600466 328.025600
   3399   3397   3409     1   109.5600471 388.275200
   3400   3403   3404     1   109.8000471 387.438400
   3400   3403   3405     1   109.8000471 387.438400
   3401   3400   3403     1   109.5600471 388.275200
   3401   3400   3402     1   108.4600466 328.025600
   3402   3400   3403     1   109.5600471 388.275200
   3403   3412   3413     1   109.5600471 388.275200
   3403   3412   3414     1   109.5600471 388.275200
   3404   3403   3412     1   109.8000471 387.438400
   3404   3403   3405     1   107.5800459 329.699200
   3405   3403   3412     1   109.8000471 387.438400
   3406   3418   3419     1   109.5600471 388.275200
   3406   3418   3420     1   109.5600471 388.275200
   3407   3406   3418     1   109.8000471 387.438400
   3407   3406   3408     1   107.5800459 329.699200
   3408   3406   3418     1   109.8000471 387.438400
   3409   3415   3416     1   109.5600471 388.275200
   3409   3415   3417     1   109.5600471 388.275200
   3410   3409   3415     1   109.8000471 387.438400
   3410   3409   3411     1   107.5800459 329.699200
   3411   3409   3415     1   109.8000471 387.438400
   3413   3412   3421     1   109.7800468 425.094400
   3413   3412   3414     1   108.4600466 328.025600
   3414   3412   3421     1   109.7800468 425.094400
   3416   3415   6872     1   109.7800468 425.094400
   3416   3415   3417     1   108.4600466 328.025600
   3417   3415   6872     1   109.7800468 425.094400
   3419   3418   6901     1   109.7800468 425.094400
   3419   3418   3420     1   108.4600466 328.025600
   3420   3418   6901     1   109.7800468 425.094400
   3422   3423   3424     1   109.8800469 414.216000
   3422   3423   3425     1   109.8800469 414.216000
   3422   3426   3427     1   109.8800469 414.216000
   3422   3426   3428     1   109.8800469 414.216000
   3422   3429   3430     1   109.8800469 414.216000
   3422   3429   3431     1   109.8800469 414.216000
   3423   3435   3436     1   109.8000471 387.438400
   3423   3435   3437     1   109.8000471 387.438400
   3424   3423   3435     1   109.5600471 388.275200
   3424   3423   3425     1   108.4600466 328.025600
   3425   3423   3435     1   109.5600471 388.275200
   3426   3438   3439     1   109.8000471 387.438400
   3426   3438   3440     1   109.8000471 387.438400
   3427   3426   3438     1   109.5600471 388.275200
   3427   3426   3428     1   108.4600466 328.025600
   3428   3426   3438     1   109.5600471 388.275200
   3429   3432   3433     1   109.8000471 387.438400
   3429   3432   3434     1   109.8000471 387.438400
   3430   3429   3432     1   109.5600471 388.275200
   3430   3429   3431     1   108.4600466 328.025600
   3431   3429   3432     1   109.5600471 388.275200
   3432   3441   3442     1   109.5600471 388.275200
   3432   3441   3443     1   109.5600471 388.275200
   3433   3432   3441     1   109.8000471 387.438400
   3433   3432   3434     1   107.5800459 329.699200
   3434   3432   3441     1   109.8000471 387.438400
   3435   3447   3448     1   109.5600471 388.275200
   3435   3447   3449     1   109.5600471 388.275200
   3436   3435   3447     1   109.8000471 387.438400
   3436   3435   3437     1   107.5800459 329.699200
   3437   3435   3447     1   109.8000471 387.438400
   3438   3444   3445     1   109.5600471 388.275200
   3438   3444   3446     1   109.5600471 388.275200
   3439   3438   3444     1   109.8000471 387.438400
   3439   3438   3440     1   107.5800459 329.699200
   3440   3438   3444     1   109.8000471 387.438400
   3442   3441   3450     1   109.7800468 425.094400
   3442   3441   3443     1   108.4600466 328.025600
   3443   3441   3450     1   109.7800468 425.094400
   3445   3444   6930     1   109.7800468 425.094400
   3445   3444   3446     1   108.4600466 328.025600
   3446   3444   6930     1   109.7800468 425.094400
   3448   3447   6959     1   109.7800468 425.094400
   3448   3447   3449     1   108.4600466 328.025600
   3449   3447   6959     1   109.7800468 425.094400
   3451   3452   3453     1   109.8800469 414.216000
   3451   3452   3454     1   109.8800469 414.216000
   3451   3455   3456     1   109.8800469 414.216000
   3451   3455   3457     1   109.8800469 414.216000
   3451   3458   3459     1   109.8800469 414.216000
   3451   3458   3460     1   109.8800469 414.216000
   3452   3464   3465     1   109.8000471 387.438400
   3452   3464   3466     1   109.8000471 387.438400
   3453   3452   3464     1   109.5600471 388.275200
   3453   3452   3454     1   108.4600466 328.025600
   3454   3452   3464     1   109.5600471 388.275200
   3455   3467   3468     1   109.8000471 387.438400
   3455   3467   3469     1   109.8000471 387.438400
   3456   3455   3467     1   109.5600471 388.275200
   3456   3455   3457     1   108.4600466 328.025600
   3457   3455   3467     1   109.5600471 388.275200
   3458   3461   3462     1   109.8000471 387.438400
   3458   3461   3463     1   109.8000471 387.438400
   3459   3458   3461     1   109.5600471 388.275200
   3459   3458   3460     1   108.4600466 328.025600
   3460   3458   3461     1   109.5600471 388.275200
   3461   3470   3471     1   109.5600471 388.275200
   3461   3470   3472     1   109.5600471 388.275200
   3462   3461   3470     1   109.8000471 387.438400
   3462   3461   3463     1   107.5800459 329.699200
   3463   3461   3470     1   109.8000471 387.438400
   3464   3476   3477     1   109.5600471 388.275200
   3464   3476   3478     1   109.5600471 388.275200
   3465   3464   3476     1   109.8000471 387.438400
   3465   3464   3466     1   107.5800459 329.699200
   3466   3464   3476     1   109.8000471 387.438400
   3467   3473   3474     1   109.5600471 388.275200
   3467   3473   3475     1   109.5600471 388.275200
   3468   3467   3473     1   109.8000471 387.438400
   3468   3467   3469     1   107.5800459 329.699200
   3469   3467   3473     1   109.8000471 387.438400
   3471   3470   3479     1   109.7800468 425.094400
   3471   3470   3472     1   108.4600466 328.025600
   3472   3470   3479     1   109.7800468 425.094400
   3474   3473   6988     1   109.7800468 425.094400
   3474   3473   3475     1   108.4600466 328.025600
   3475   3473   6988     1   109.7800468 425.094400
   3477   3476   7017     1   109.7800468 425.094400
   3477   3476   3478     1   108.4600466 328.025600
   3478   3476   7017     1   109.7800468 425.094400
   3480   3481   3482     1   109.8800469 414.216000
   3480   3481   3483     1   109.8800469 414.216000
   3480   3484   3485     1   109.8800469 414.216000
   3480   3484   3486     1   109.8800469 414.216000
   3480   3487   3488     1   109.8800469 414.216000
   3480   3487   3489     1   109.8800469 414.216000
   3481   3493   3494     1   109.8000471 387.438400
   3481   3493   3495     1   109.8000471 387.438400
   3482   3481   3493     1   109.5600471 388.275200
   3482   3481   3483     1   108.4600466 328.025600
   3483   3481   3493     1   109.5600471 388.275200
   3484   3496   3497     1   109.8000471 387.438400
   3484   3496   3498     1   109.8000471 387.438400
   3485   3484   3496     1   109.5600471 388.275200
   3485   3484   3486     1   108.4600466 328.025600
   3486   3484   3496     1   109.5600471 388.275200
   3487   3490   3491     1   109.8000471 387.438400
   3487   3490   3492     1   109.8000471 387.438400
   3488   3487   3490     1   109.5600471 388.275200
   3488   3487   3489     1   108.4600466 328.025600
   3489   3487   3490     1   109.5600471 388.275200
   3490   3499   3500     1   109.5600471 388.275200
   3490   3499   3501     1   109.5600471 388.275200
   3491   3490   3499     1   109.8000471 387.438400
   3491   3490   3492     1   107.5800459 329.699200
   3492   3490   3499     1   109.8000471 387.438400
   3493   3505   3506     1   109.5600471 388.275200
   3493   3505   3507     1   109.5600471 388.275200
   3494   3493   3505     1   109.8000471 387.438400
   3494   3493   3495     1   107.5800459 329.699200
   3495   3493   3505     1   109.8000471 387.438400
   3496   3502   3503     1   109.5600471 388.275200
   3496   3502   3504     1   109.5600471 388.275200
   3497   3496   3502     1   109.8000471 387.438400
   3497   3496   3498     1   107.5800459 329.699200
   3498   3496   3502     1   109.8000471 387.438400
   3500   3499   3508     1   109.7800468 425.094400
   3500   3499   3501     1   108.4600466 328.025600
   3501   3499   3508     1   109.7800468 425.094400
   3503   3502   7046     1   109.7800468 425.094400
   3503   3502   3504     1   108.4600466 328.025600
   3504   3502   7046     1   109.7800468 425.094400
   3506   3505   7075     1   109.7800468 425.094400
   3506   3505   3507     1   108.4600466 328.025600
   3507   3505   7075     1   109.7800468 425.094400
   3509   3510   3511     1   109.8800469 414.216000
   3509   3510   3512     1   109.8800469 414.216000
   3509   3513   3514     1   109.8800469 414.216000
   3509   3513   3515     1   109.8800469 414.216000
   3509   3516   3517     1   109.8800469 414.216000
   3509   3516   3518     1   109.8800469 414.216000
   3510   3522   3523     1   109.8000471 387.438400
   3510   3522   3524     1   109.8000471 387.438400
   3511   3510   3522     1   109.5600471 388.275200
   3511   3510   3512     1   108.4600466 328.025600
   3512   3510   3522     1   109.5600471 388.275200
   3513   3525   3526     1   109.8000471 387.438400
   3513   3525   3527     1   109.8000471 387.438400
   3514   3513   3525     1   109.5600471 388.275200
   3514   3513   3515     1   108.4600466 328.025600
   3515   3513   3525     1   109.5600471 388.275200
   3516   3519   3520     1   109.8000471 387.438400
   3516   3519   3521     1   109.8000471 387.438400
   3517   3516   3519     1   109.5600471 388.275200
   3517   3516   3518     1   108.4600466 328.025600
   3518   3516   3519     1   109.5600471 388.275200
   3519   3528   3529     1   109.5600471 388.275200
   3519   3528   3530     1   109.5600471 388.275200
   3520   3519   3528     1   109.8000471 387.438400
   3520   3519   3521     1   107.5800459 329.699200
   3521   3519   3528     1   109.8000471 387.438400
   3522   3534   3535     1   109.5600471 388.275200
   3522   3534   3536     1   109.5600471 388.275200
   3523   3522   3534     1   109.8000471 387.438400
   3523   3522   3524     1   107.5800459 329.699200
   3524   3522   3534     1   109.8000471 387.438400
   3525   3531   3532     1   109.5600471 388.275200
   3525   3531   3533     1   109.5600471 388.275200
   3526   3525   3531     1   109.8000471 387.438400
   3526   3525   3527     1   107.5800459 329.699200
   3527   3525   3531     1   109.8000471 387.438400
   3529   3528   3537     1   109.7800468 425.094400
   3529   3528   3530     1   108.4600466 328.025600
   3530   3528   3537     1   109.7800468 425.094400
   3532   3531   7104     1   109.7800468 425.094400
   3532   3531   3533     1   108.4600466 328.025600
   3533   3531   7104     1   109.7800468 425.094400
   3535   3534   7133     1   109.7800468 425.094400
   3535   3534   3536     1   108.4600466 328.025600
   3536   3534   7133     1   109.7800468 425.094400
   3538   3539   3540     1   109.8800469 414.216000
   3538   3539   3541     1   109.8800469 414.216000
   3538   3542   3543     1   109.8800469 414.216000
   3538   3542   3544     1   109.8800469 414.216000
   3538   3545   3546     1   109.8800469 414.216000
   3538   3545   3547     1   109.8800469 414.216000
   3539   3551   3552     1   109.8000471 387.438400
   3539   3551   3553     1   109.8000471 387.438400
   3540   3539   3551     1   109.5600471 388.275200
   3540   3539   3541     1   108.4600466 328.025600
   3541   3539   3551     1   109.5600471 388.275200
   3542   3554   3555     1   109.8000471 387.438400
   3542   3554   3556     1   109.8000471 387.438400
   3543   3542   3554     1   109.5600471 388.275200
   3543   3542   3544     1   108.4600466 328.025600
   3544   3542   3554     1   109.5600471 388.275200
   3545   3548   3549     1   109.8000471 387.438400
   3545   3548   3550     1   109.8000471 387.438400
   3546   3545   3548     1   109.5600471 388.275200
   3546   3545   3547     1   108.4600466 328.025600
   3547   3545   3548     1   109.5600471 388.275200
   3548   3557   3558     1   109.5600471 388.275200
   3548   3557   3559     1   109.5600471 388.275200
   3549   3548   3557     1   109.8000471 387.438400
   3549   3548   3550     1   107.5800459 329.699200
   3550   3548   3557     1   109.8000471 387.438400
   3551   3563   3564     1   109.5600471 388.275200
   3551   3563   3565     1   109.5600471 388.275200
   3552   3551   3563     1   109.8000471 387.438400
   3552   3551   3553     1   107.5800459 329.699200
   3553   3551   3563     1   109.8000471 387.438400
   3554   3560   3561     1   109.5600471 388.275200
   3554   3560   3562     1   109.5600471 388.275200
   3555   3554   3560     1   109.8000471 387.438400
   3555   3554   3556     1   107.5800459 329.699200
   3556   3554   3560     1   109.8000471 387.438400
   3558   3557   3566     1   109.7800468 425.094400
   3558   3557   3559     1   108.4600466 328.025600
   3559   3557   3566     1   109.7800468 425.094400
   3561   3560   7162     1   109.7800468 425.094400
   3561   3560   3562     1   108.4600466 328.025600
   3562   3560   7162     1   109.7800468 425.094400
   3564   3563   7191     1   109.7800468 425.094400
   3564   3563   3565     1   108.4600466 328.025600
   3565   3563   7191     1   109.7800468 425.094400
   3567   3568   3569     1   109.8800469 414.216000
   3567   3568   3570     1   109.8800469 414.216000
   3567   3571   3572     1   109.8800469 414.216000
   3567   3571   3573     1   109.8800469 414.216000
   3567   3574   3575     1   109.8800469 414.216000
   3567   3574   3576     1   109.8800469 414.216000
   3568   3580   3581     1   109.8000471 387.438400
   3568   3580   3582     1   109.8000471 387.438400
   3569   3568   3580     1   109.5600471 388.275200
   3569   3568   3570     1   108.4600466 328.025600
   3570   3568   3580     1   109.5600471 388.275200
   3571   3583   3584     1   109.8000471 387.438400
   3571   3583   3585     1   109.8000471 387.438400
   3572   3571   3583     1   109.5600471 388.275200
   3572   3571   3573     1   108.4600466 328.025600
   3573   3571   3583     1   109.5600471 388.275200
   3574   3577   3578     1   109.8000471 387.438400
   3574   3577   3579     1   109.8000471 387.438400
   3575   3574   3577     1   109.5600471 388.275200
   3575   3574   3576     1   108.4600466 328.025600
   3576   3574   3577     1   109.5600471 388.275200
   3577   3586   3587     1   109.5600471 388.275200
   3577   3586   3588     1   109.5600471 388.275200
   3578   3577   3586     1   109.8000471 387.438400
   3578   3577   3579     1   107.5800459 329.699200
   3579   3577   3586     1   109.8000471 387.438400
   3580   3592   3593     1   109.5600471 388.275200
   3580   3592   3594     1   109.5600471 388.275200
   3581   3580   3592     1   109.8000471 387.438400
   3581   3580   3582     1   107.5800459 329.699200
   3582   3580   3592     1   109.8000471 387.438400
   3583   3589   3590     1   109.5600471 388.275200
   3583   3589   3591     1   109.5600471 388.275200
   3584   3583   3589     1   109.8000471 387.438400
   3584   3583   3585     1   107.5800459 329.699200
   3585   3583   3589     1   109.8000471 387.438400
   3587   3586   3595     1   109.7800468 425.094400
   3587   3586   3588     1   108.4600466 328.025600
   3588   3586   3595     1   109.7800468 425.094400
   3590   3589   7220     1   109.7800468 425.094400
   3590   3589   3591     1   108.4600466 328.025600
   3591   3589   7220     1   109.7800468 425.094400
   3593   3592   7249     1   109.7800468 425.094400
   3593   3592   3594     1   108.4600466 328.025600
   3594   3592   7249     1   109.7800468 425.094400
   3596   3597   3598     1   109.8800469 414.216000
   3596   3597   3599     1   109.8800469 414.216000
   3596   3600   3601     1   109.8800469 414.216000
   3596   3600   3602     1   109.8800469 414.216000
   3596   3603   3604     1   109.8800469 414.216000
   3596   3603   3605     1   109.8800469 414.216000
   3597   3609   3610     1   109.8000471 387.438400
   3597   3609   3611     1   109.8000471 387.438400
   3598   3597   3609     1   109.5600471 388.275200
   3598   3597   3599     1   108.4600466 328.025600
   3599   3597   3609     1   109.5600471 388.275200
   3600   3612   3613     1   109.8000471 387.438400
   3600   3612   3614     1   109.8000471 387.438400
   3601   3600   3612     1   109.5600471 388.275200
   3601   3600   3602     1   108.4600466 328.025600
   3602   3600   3612     1   109.5600471 388.275200
   3603   3606   3607     1   109.8000471 387.438400
   3603   3606   3608     1   109.8000471 387.438400
   3604   3603   3606     1   109.5600471 388.275200
   3604   3603   3605     1   108.4600466 328.025600
   3605   3603   3606     1   109.5600471 388.275200
   3606   3615   3616     1   109.5600471 388.275200
   3606   3615   3617     1   109.5600471 388.275200
   3607   3606   3615     1   109.8000471 387.438400
   3607   3606   3608     1   107.5800459 329.699200
   3608   3606   3615     1   109.8000471 387.438400
   3609   3621   3622     1   109.5600471 388.275200
   3609   3621   3623     1   109.5600471 388.275200
   3610   3609   3621     1   109.8000471 387.438400
   3610   3609   3611     1   107.5800459 329.699200
   3611   3609   3621     1   109.8000471 387.438400
   3612   3618   3619     1   109.5600471 388.275200
   3612   3618   3620     1   109.5600471 388.275200
   3613   3612   3618     1   109.8000471 387.438400
   3613   3612   3614     1   107.5800459 329.699200
   3614   3612   3618     1   109.8000471 387.438400
   3616   3615   3624     1   109.7800468 425.094400
   3616   3615   3617     1   108.4600466 328.025600
   3617   3615   3624     1   109.7800468 425.094400
   3619   3618   7278     1   109.7800468 425.094400
   3619   3618   3620     1   108.4600466 328.025600
   3620   3618   7278     1   109.7800468 425.094400
   3622   3621   7307     1   109.7800468 425.094400
   3622   3621   3623     1   108.4600466 328.025600
   3623   3621   7307     1   109.7800468 425.094400
   3625   3626   3627     1   109.8800469 414.216000
   3625   3626   3628     1   109.8800469 414.216000
   3625   3629   3630     1   109.8800469 414.216000
   3625   3629   3631     1   109.8800469 414.216000
   3625   3632   3633     1   109.8800469 414.216000
   3625   3632   3634     1   109.8800469 414.216000
   3626   3638   3639     1   109.8000471 387.438400
   3626   3638   3640     1   109.8000471 387.438400
   3627   3626   3638     1   109.5600471 388.275200
   3627   3626   3628     1   108.4600466 328.025600
   3628   3626   3638     1   109.5600471 388.275200
   3629   3641   3642     1   109.8000471 387.438400
   3629   3641   3643     1   109.8000471 387.438400
   3630   3629   3641     1   109.5600471 388.275200
   3630   3629   3631     1   108.4600466 328.025600
   3631   3629   3641     1   109.5600471 388.275200
   3632   3635   3636     1   109.8000471 387.438400
   3632   3635   3637     1   109.8000471 387.438400
   3633   3632   3635     1   109.5600471 388.275200
   3633   3632   3634     1   108.4600466 328.025600
   3634   3632   3635     1   109.5600471 388.275200
   3635   3644   3645     1   109.5600471 388.275200
   3635   3644   3646     1   109.5600471 388.275200
   3636   3635   3644     1   109.8000471 387.438400
   3636   3635   3637     1   107.5800459 329.699200
   3637   3635   3644     1   109.8000471 387.438400
   3638   3650   3651     1   109.5600471 388.275200
   3638   3650   3652     1   109.5600471 388.275200
   3639   3638   3650     1   109.8000471 387.438400
   3639   3638   3640     1   107.5800459 329.699200
   3640   3638   3650     1   109.8000471 387.438400
   3641   3647   3648     1   109.5600471 388.275200
   3641   3647   3649     1   109.5600471 388.275200
   3642   3641   3647     1   109.8000471 387.438400
   3642   3641   3643     1   107.5800459 329.699200
   3643   3641   3647     1   109.8000471 387.438400
   3645   3644   3653     1   109.7800468 425.094400
   3645   3644   3646     1   108.4600466 328.025600
   3646   3644   3653     1   109.7800468 425.094400
   3648   3647   7336     1   109.7800468 425.094400
   3648   3647   3649     1   108.4600466 328.025600
   3649   3647   7336     1   109.7800468 425.094400
   3651   3650   7365     1   109.7800468 425.094400
   3651   3650   3652     1   108.4600466 328.025600
   3652   3650   7365     1   109.7800468 425.094400
   3654   3655   3656     1   109.8800469 414.216000
   3654   3655   3657     1   109.8800469 414.216000
   3654   3658   3659     1   109.8800469 414.216000
   3654   3658   3660     1   109.8800469 414.216000
   3654   3661   3662     1   109.8800469 414.216000
   3654   3661   3663     1   109.8800469 414.216000
   3655   3667   3668     1   109.8000471 387.438400
   3655   3667   3669     1   109.8000471 387.438400
   3656   3655   3667     1   109.5600471 388.275200
   3656   3655   3657     1   108.4600466 328.025600
   3657   3655   3667     1   109.5600471 388.275200
   3658   3670   3671     1   109.8000471 387.438400
   3658   3670   3672     1   109.8000471 387.438400
   3659   3658   3670     1   109.5600471 388.275200
   3659   3658   3660     1   108.4600466 328.025600
   3660   3658   3670     1   109.5600471 388.275200
   3661   3664   3665     1   109.8000471 387.438400
   3661   3664   3666     1   109.8000471 387.438400
   3662   3661   3664     1   109.5600471 388.275200
   3662   3661   3663     1   108.4600466 328.025600
   3663   3661   3664     1   109.5600471 388.275200
   3664   3673   3674     1   109.5600471 388.275200
   3664   3673   3675     1   109.5600471 388.275200
   3665   3664   3673     1   109.8000471 387.438400
   3665   3664   3666     1   107.5800459 329.699200
   3666   3664   3673     1   109.8000471 387.438400
   3667   3679   3680     1   109.5600471 388.275200
   3667   3679   3681     1   109.5600471 388.275200
   3668   3667   3679     1   109.8000471 387.438400
   3668   3667   3669     1   107.5800459 329.699200
   3669   3667   3679     1   109.8000471 387.438400
   3670   3676   3677     1   109.5600471 388.275200
   3670   3676   3678     1   109.5600471 388.275200
   3671   3670   3676     1   109.8000471 387.438400
   3671   3670   3672     1   107.5800459 329.699200
   3672   3670   3676     1   109.8000471 387.438400
   3674   3673   3682     1   109.7800468 425.094400
   3674   3673   3675     1   108.4600466 328.025600
   3675   3673   3682     1   109.7800468 425.094400
   3677   3676   7376     1   109.7800468 425.094400
   3677   3676   3678     1   108.4600466 328.025600
   3678   3676   7376     1   109.7800468 425.094400
   3680   3679   7399     1   109.7800468 425.094400
   3680   3679   3681     1   108.4600466 328.025600
   3681   3679   7399     1   109.7800468 425.094400
   3683   3684   3685     1   109.8800469 414.216000
   3683   3684   3686     1   109.8800469 414.216000
   3683   3687   3688     1   109.8800469 414.216000
   3683   3687   3689     1   109.8800469 414.216000
   3683   3690   3691     1   109.8800469 414.216000
   3683   3690   3692     1   109.8800469 414.216000
   3684   3696   3697     1   109.8000471 387.438400
   3684   3696   3698     1   109.8000471 387.438400
   3685   3684   3696     1   109.5600471 388.275200
   3685   3684   3686     1   108.4600466 328.025600
   3686   3684   3696     1   109.5600471 388.275200
   3687   3699   3700     1   109.8000471 387.438400
   3687   3699   3701     1   109.8000471 387.438400
   3688   3687   3699     1   109.5600471 388.275200
   3688   3687   3689     1   108.4600466 328.025600
   3689   3687   3699     1   109.5600471 388.275200
   3690   3693   3694     1   109.8000471 387.438400
   3690   3693   3695     1   109.8000471 387.438400
   3691   3690   3693     1   109.5600471 388.275200
   3691   3690   3692     1   108.4600466 328.025600
   3692   3690   3693     1   109.5600471 388.275200
   3693   3702   3703     1   109.5600471 388.275200
   3693   3702   3704     1   109.5600471 388.275200
   3694   3693   3702     1   109.8000471 387.438400
   3694   3693   3695     1   107.5800459 329.699200
   3695   3693   3702     1   109.8000471 387.438400
   3696   3708   3709     1   109.5600471 388.275200
   3696   3708   3710     1   109.5600471 388.275200
   3697   3696   3708     1   109.8000471 387.438400
   3697   3696   3698     1   107.5800459 329.699200
   3698   3696   3708     1   109.8000471 387.438400
   3699   3705   3706     1   109.5600471 388.275200
   3699   3705   3707     1   109.5600471 388.275200
   3700   3699   3705     1   109.8000471 387.438400
   3700   3699   3701     1   107.5800459 329.699200
   3701   3699   3705     1   109.8000471 387.438400
   3703   3702   3711     1   109.7800468 425.094400
   3703   3702   3704     1   108.4600466 328.025600
   3704   3702   3711     1   109.7800468 425.094400
   3706   3705   7422     1   109.7800468 425.094400
   3706   3705   3707     1   108.4600466 328.025600
   3707   3705   7422     1   109.7800468 425.094400
   3709   3708   7445     1   109.7800468 425.094400
   3709   3708   3710     1   108.4600466 328.025600
   3710   3708   7445     1   109.7800468 425.094400
   3712   3713   3714     1   109.8800469 414.216000
   3712   3713   3715     1   109.8800469 414.216000
   3712   3716   3717     1   109.8800469 414.216000
   3712   3716   3718     1   109.8800469 414.216000
   3712   3719   3720     1   109.8800469 414.216000
   3712   3719   3721     1   109.8800469 414.216000
   3713   3725   3726     1   109.8000471 387.438400
   3713   3725   3727     1   109.8000471 387.438400
   3714   3713   3725     1   109.5600471 388.275200
   3714   3713   3715     1   108.4600466 328.025600
   3715   3713   3725     1   109.5600471 388.275200
   3716   3728   3729     1   109.8000471 387.438400
   3716   3728   3730     1   109.8000471 387.438400
   3717   3716   3728     1   109.5600471 388.275200
   3717   3716   3718     1   108.4600466 328.025600
   3718   3716   3728     1   109.5600471 388.275200
   3719   3722   3723     1   109.8000471 387.438400
   3719   3722   3724     1   109.8000471 387.438400
   3720   3719   3722     1   109.5600471 388.275200
   3720   3719   3721     1   108.4600466 328.025600
   3721   3719   3722     1   109.5600471 388.275200
   3722   3731   3732     1   109.5600471 388.275200
   3722   3731   3733     1   109.5600471 388.275200
   3723   3722   3731     1   109.8000471 387.438400
   3723   3722   3724     1   107.5800459 329.699200
   3724   3722   3731     1   109.8000471 387.438400
   3725   3737   3738     1   109.5600471 388.275200
   3725   3737   3739     1   109.5600471 388.275200
   3726   3725   3737     1   109.8000471 387.438400
   3726   3725   3727     1   107.5800459 329.699200
   3727   3725   3737     1   109.8000471 387.438400
   3728   3734   3735     1   109.5600471 388.275200
   3728   3734   3736     1   109.5600471 388.275200
   3729   3728   3734     1   109.8000471 387.438400
   3729   3728   3730     1   107.5800459 329.699200
   3730   3728   3734     1   109.8000471 387.438400
   3732   3731   3740     1   109.7800468 425.094400
   3732   3731   3733     1   108.4600466 328.025600
   3733   3731   3740     1   109.7800468 425.094400
   3735   3734   7468     1   109.7800468 425.094400
   3735   3734   3736     1   108.4600466 328.025600
   3736   3734   7468     1   109.7800468 425.094400
   3738   3737   7491     1   109.7800468 425.094400
   3738   3737   3739     1   108.4600466 328.025600
   3739   3737   7491     1   109.7800468 425.094400
   3741   3742   3743     1   109.8800469 414.216000
   3741   3742   3744     1   109.8800469 414.216000
   3741   3745   3746     1   109.8800469 414.216000
   3741   3745   3747     1   109.8800469 414.216000
   3741   3748   3749     1   109.8800469 414.216000
   3741   3748   3750     1   109.8800469 414.216000
   3742   3754   3755     1   109.8000471 387.438400
   3742   3754   3756     1   109.8000471 387.438400
   3743   3742   3754     1   109.5600471 388.275200
   3743   3742   3744     1   108.4600466 328.025600
   3744   3742   3754     1   109.5600471 388.275200
   3745   3757   3758     1   109.8000471 387.438400
   3745   3757   3759     1   109.8000471 387.438400
   3746   3745   3757     1   109.5600471 388.275200
   3746   3745   3747     1   108.4600466 328.025600
   3747   3745   3757     1   109.5600471 388.275200
   3748   3751   3752     1   109.8000471 387.438400
   3748   3751   3753     1   109.8000471 387.438400
   3749   3748   3751     1   109.5600471 388.275200
   3749   3748   3750     1   108.4600466 328.025600
   3750   3748   3751     1   109.5600471 388.275200
   3751   3760   3761     1   109.5600471 388.275200
   3751   3760   3762     1   109.5600471 388.275200
   3752   3751   3760     1   109.8000471 387.438400
   3752   3751   3753     1   107.5800459 329.699200
   3753   3751   3760     1   109.8000471 387.438400
   3754   3766   3767     1   109.5600471 388.275200
   3754   3766   3768     1   109.5600471 388.275200
   3755   3754   3766     1   109.8000471 387.438400
   3755   3754   3756     1   107.5800459 329.699200
   3756   3754   3766     1   109.8000471 387.438400
   3757   3763   3764     1   109.5600471 388.275200
   3757   3763   3765     1   109.5600471 388.275200
   3758   3757   3763     1   109.8000471 387.438400
   3758   3757   3759     1   107.5800459 329.699200
   3759   3757   3763     1   109.8000471 387.438400
   3761   3760   3769     1   109.7800468 425.094400
   3761   3760   3762     1   108.4600466 328.025600
   3762   3760   3769     1   109.7800468 425.094400
   3764   3763   7514     1   109.7800468 425.094400
   3764   3763   3765     1   108.4600466 328.025600
   3765   3763   7514     1   109.7800468 425.094400
   3767   3766   7537     1   109.7800468 425.094400
   3767   3766   3768     1   108.4600466 328.025600
   3768   3766   7537     1   109.7800468 425.094400
   3770   3771   3772     1   109.8800469 414.216000
   3770   3771   3773     1   109.8800469 414.216000
   3770   3774   3775     1   109.8800469 414.216000
   3770   3774   3776     1   109.8800469 414.216000
   3770   3777   3778     1   109.8800469 414.216000
   3770   3777   3779     1   109.8800469 414.216000
   3771   3783   3784     1   109.8000471 387.438400
   3771   3783   3785     1   109.8000471 387.438400
   3772   3771   3783     1   109.5600471 388.275200
   3772   3771   3773     1   108.4600466 328.025600
   3773   3771   3783     1   109.5600471 388.275200
   3774   3786   3787     1   109.8000471 387.438400
   3774   3786   3788     1   109.8000471 387.438400
   3775   3774   3786     1   109.5600471 388.275200
   3775   3774   3776     1   108.4600466 328.025600
   3776   3774   3786     1   109.5600471 388.275200
   3777   3780   3781     1   109.8000471 387.438400
   3777   3780   3782     1   109.8000471 387.438400
   3778   3777   3780     1   109.5600471 388.275200
   3778   3777   3779     1   108.4600466 328.025600
   3779   3777   3780     1   109.5600471 388.275200
   3780   3789   3790     1   109.5600471 388.275200
   3780   3789   3791     1   109.5600471 388.275200
   3781   3780   3789     1   109.8000471 387.438400
   3781   3780   3782     1   107.5800459 329.699200
   3782   3780   3789     1   109.8000471 387.438400
   3783   3795   3796     1   109.5600471 388.275200
   3783   3795   3797     1   109.5600471 388.275200
   3784   3783   3795     1   109.8000471 387.438400
   3784   3783   3785     1   107.5800459 329.699200
   3785   3783   3795     1   109.8000471 387.438400
   3786   3792   3793     1   109.5600471 388.275200
   3786   3792   3794     1   109.5600471 388.275200
   3787   3786   3792     1   109.8000471 387.438400
   3787   3786   3788     1   107.5800459 329.699200
   3788   3786   3792     1   109.8000471 387.438400
   3790   3789   3798     1   109.7800468 425.094400
   3790   3789   3791     1   108.4600466 328.025600
   3791   3789   3798     1   109.7800468 425.094400
   3793   3792   7560     1   109.7800468 425.094400
   3793   3792   3794     1   108.4600466 328.025600
   3794   3792   7560     1   109.7800468 425.094400
   3796   3795   7583     1   109.7800468 425.094400
   3796   3795   3797     1   108.4600466 328.025600
   3797   3795   7583     1   109.7800468 425.094400
   3799   3800   3801     1   109.8800469 414.216000
   3799   3800   3802     1   109.8800469 414.216000
   3799   3803   3804     1   109.8800469 414.216000
   3799   3803   3805     1   109.8800469 414.216000
   3799   3806   3807     1   109.8800469 414.216000
   3799   3806   3808     1   109.8800469 414.216000
   3800   3812   3813     1   109.8000471 387.438400
   3800   3812   3814     1   109.8000471 387.438400
   3801   3800   3812     1   109.5600471 388.275200
   3801   3800   3802     1   108.4600466 328.025600
   3802   3800   3812     1   109.5600471 388.275200
   3803   3815   3816     1   109.8000471 387.438400
   3803   3815   3817     1   109.8000471 387.438400
   3804   3803   3815     1   109.5600471 388.275200
   3804   3803   3805     1   108.4600466 328.025600
   3805   3803   3815     1   109.5600471 388.275200
   3806   3809   3810     1   109.8000471 387.438400
   3806   3809   3811     1   109.8000471 387.438400
   3807   3806   3809     1   109.5600471 388.275200
   3807   3806   3808     1   108.4600466 328.025600
   3808   3806   3809     1   109.5600471 388.275200
   3809   3818   3819     1   109.5600471 388.275200
   3809   3818   3820     1   109.5600471 388.275200
   3810   3809   3818     1   109.8000471 387.438400
   3810   3809   3811     1   107.5800459 329.699200
   3811   3809   3818     1   109.8000471 387.438400
   3812   3824   3825     1   109.5600471 388.275200
   3812   3824   3826     1   109.5600471 388.275200
   3813   3812   3824     1   109.8000471 387.438400
   3813   3812   3814     1   107.5800459 329.699200
   3814   3812   3824     1   109.8000471 387.438400
   3815   3821   3822     1   109.5600471 388.275200
   3815   3821   3823     1   109.5600471 388.275200
   3816   3815   3821     1   109.8000471 387.438400
   3816   3815   3817     1   107.5800459 329.699200
   3817   3815   3821     1   109.8000471 387.438400
   3819   3818   3827     1   109.7800468 425.094400
   3819   3818   3820     1   108.4600466 328.025600
   3820   3818   3827     1   109.7800468 425.094400
   3822   3821   7606     1   109.7800468 425.094400
   3822   3821   3823     1   108.4600466 328.025600
   3823   3821   7606     1   109.7800468 425.094400
   3825   3824   7629     1   109.7800468 425.094400
   3825   3824   3826     1   108.4600466 328.025600
   3826   3824   7629     1   109.7800468 425.094400
   3828   3829   3830     1   109.8800469 414.216000
   3828   3829   3831     1   109.8800469 414.216000
   3828   3832   3833     1   109.8800469 414.216000
   3828   3832   3834     1   109.8800469 414.216000
   3828   3835   3836     1   109.8800469 414.216000
   3828   3835   3837     1   109.8800469 414.216000
   3829   3841   3842     1   109.8000471 387.438400
   3829   3841   3843     1   109.8000471 387.438400
   3830   3829   3841     1   109.5600471 388.275200
   3830   3829   3831     1   108.4600466 328.025600
   3831   3829   3841     1   109.5600471 388.275200
   3832   3844   3845     1   109.8000471 387.438400
   3832   3844   3846     1   109.8000471 387.438400
   3833   3832   3844     1   109.5600471 388.275200
   3833   3832   3834     1   108.4600466 328.025600
   3834   3832   3844     1   109.5600471 388.275200
   3835   3838   3839     1   109.8000471 387.438400
   3835   3838   3840     1   109.8000471 387.438400
   3836   3835   3838     1   109.5600471 388.275200
   3836   3835   3837     1   108.4600466 328.025600
   3837   3835   3838     1   109.5600471 388.275200
   3838   3847   3848     1   109.5600471 388.275200
   3838   3847   3849     1   109.5600471 388.275200
   3839   3838   3847     1   109.8000471 387.438400
   3839   3838   3840     1   107.5800459 329.699200
   3840   3838   3847     1   109.8000471 387.438400
   3841   3853   3854     1   109.5600471 388.275200
   3841   3853   3855     1   109.5600471 388.275200
   3842   3841   3853     1   109.8000471 387.438400
   3842   3841   3843     1   107.5800459 329.699200
   3843   3841   3853     1   109.8000471 387.438400
   3844   3850   3851     1   109.5600471 388.275200
   3844   3850   3852     1   109.5600471 388.275200
   3845   3844   3850     1   109.8000471 387.438400
   3845   3844   3846     1   107.5800459 329.699200
   3846   3844   3850     1   109.8000471 387.438400
   3848   3847   3856     1   109.7800468 425.094400
   3848   3847   3849     1   108.4600466 328.025600
   3849   3847   3856     1   109.7800468 425.094400
   3851   3850   7652     1   109.7800468 425.094400
   3851   3850   3852     1   108.4600466 328.025600
   3852   3850   7652     1   109.7800468 425.094400
   3854   3853   7675     1   109.7800468 425.094400
   3854   3853   3855     1   108.4600466 328.025600
   3855   3853   7675     1   109.7800468 425.094400
   3857   3858   3859     1   109.8800469 414.216000
   3857   3858   3860     1   109.8800469 414.216000
   3857   3861   3862     1   109.8800469 414.216000
   3857   3861   3863     1   109.8800469 414.216000
   3857   3864   3865     1   109.8800469 414.216000
   3857   3864   3866     1   109.8800469 414.216000
   3858   3870   3871     1   109.8000471 387.438400
   3858   3870   3872     1   109.8000471 387.438400
   3859   3858   3870     1   109.5600471 388.275200
   3859   3858   3860     1   108.4600466 328.025600
   3860   3858   3870     1   109.5600471 388.275200
   3861   3873   3874     1   109.8000471 387.438400
   3861   3873   3875     1   109.8000471 387.438400
   3862   3861   3873     1   109.5600471 388.275200
   3862   3861   3863     1   108.4600466 328.025600
   3863   3861   3873     1   109.5600471 388.275200
   3864   3867   3868     1   109.8000471 387.438400
   3864   3867   3869     1   109.8000471 387.438400
   3865   3864   3867     1   109.5600471 388.275200
   3865   3864   3866     1   108.4600466 328.025600
   3866   3864   3867     1   109.5600471 388.275200
   3867   3876   3877     1   109.5600471 388.275200
   3867   3876   3878     1   109.5600471 388.275200
   3868   3867   3876     1   109.8000471 387.438400
   3868   3867   3869     1   107.5800459 329.699200
   3869   3867   3876     1   109.8000471 387.438400
   3870   3882   3883     1   109.5600471 388.275200
   3870   3882   3884     1   109.5600471 388.275200
   3871   3870   3882     1   109.8000471 387.438400
   3871   3870   3872     1   107.5800459 329.699200
   3872   3870   3882     1   109.8000471 387.438400
   3873   3879   3880     1   109.5600471 388.275200
   3873   3879   3881     1   109.5600471 388.275200
   3874   3873   3879     1   109.8000471 387.438400
   3874   3873   3875     1   107.5800459 329.699200
   3875   3873   3879     1   109.8000471 387.438400
   3877   3876   3885     1   109.7800468 425.094400
   3877   3876   3878     1   108.4600466 328.025600
   3878   3876   3885     1   109.7800468 425.094400
   3880   3879   7698     1   109.7800468 425.094400
   3880   3879   3881     1   108.4600466 328.025600
   3881   3879   7698     1   109.7800468 425.094400
   3883   3882   7721     1   109.7800468 425.094400
   3883   3882   3884     1   108.4600466 328.025600
   3884   3882   7721     1   109.7800468 425.094400
   3886   3887   3888     1   109.8800469 414.216000
   3886   3887   3889     1   109.8800469 414.216000
   3886   3890   3891     1   109.8800469 414.216000
   3886   3890   3892     1   109.8800469 414.216000
   3886   3893   3894     1   109.8800469 414.216000
   3886   3893   3895     1   109.8800469 414.216000
   3887   3899   3900     1   109.8000471 387.438400
   3887   3899   3901     1   109.8000471 387.438400
   3888   3887   3899     1   109.5600471 388.275200
   3888   3887   3889     1   108.4600466 328.025600
   3889   3887   3899     1   109.5600471 388.275200
   3890   3902   3903     1   109.8000471 387.438400
   3890   3902   3904     1   109.8000471 387.438400
   3891   3890   3902     1   109.5600471 388.275200
   3891   3890   3892     1   108.4600466 328.025600
   3892   3890   3902     1   109.5600471 388.275200
   3893   3896   3897     1   109.8000471 387.438400
   3893   3896   3898     1   109.8000471 387.438400
   3894   3893   3896     1   109.5600471 388.275200
   3894   3893   3895     1   108.4600466 328.025600
   3895   3893   3896     1   109.5600471 388.275200
   3896   3905   3906     1   109.5600471 388.275200
   3896   3905   3907     1   109.5600471 388.275200
   3897   3896   3905     1   109.8000471 387.438400
   3897   3896   3898     1   107.5800459 329.699200
   3898   3896   3905     1   109.8000471 387.438400
   3899   3911   3912     1   109.5600471 388.275200
   3899   3911   3913     1   109.5600471 388.275200
   3900   3899   3911     1   109.8000471 387.438400
   3900   3899   3901     1   107.5800459 329.699200
   3901   3899   3911     1   109.8000471 387.438400
   3902   3908   3909     1   109.5600471 388.275200
   3902   3908   3910     1   109.5600471 388.275200
   3903   3902   3908     1   109.8000471 387.438400
   3903   3902   3904     1   107.5800459 329.699200
   3904   3902   3908     1   109.8000471 387.438400
   3906   3905   3914     1   109.7800468 425.094400
   3906   3905   3907     1   108.4600466 328.025600
   3907   3905   3914     1   109.7800468 425.094400
   3909   3908   7744     1   109.7800468 425.094400
   3909   3908   3910     1   108.4600466 328.025600
   3910   3908   7744     1   109.7800468 425.094400
   3912   3911   7767     1   109.7800468 425.094400
   3912   3911   3913     1   108.4600466 328.025600
   3913   3911   7767     1   109.7800468 425.094400
   3915   3916   3917     1   109.8800469 414.216000
   3915   3916   3918     1   109.8800469 414.216000
   3915   3919   3920     1   109.8800469 414.216000
   3915   3919   3921     1   109.8800469 414.216000
   3915   3922   3923     1   109.8800469 414.216000
   3915   3922   3924     1   109.8800469 414.216000
   3916   3928   3929     1   109.8000471 387.438400
   3916   3928   3930     1   109.8000471 387.438400
   3917   3916   3928     1   109.5600471 388.275200
   3917   3916   3918     1   108.4600466 328.025600
   3918   3916   3928     1   109.5600471 388.275200
   3919   3931   3932     1   109.8000471 387.438400
   3919   3931   3933     1   109.8000471 387.438400
   3920   3919   3931     1   109.5600471 388.275200
   3920   3919   3921     1   108.4600466 328.025600
   3921   3919   3931     1   109.5600471 388.275200
   3922   3925   3926     1   109.8000471 387.438400
   3922   3925   3927     1   109.8000471 387.438400
   3923   3922   3925     1   109.5600471 388.275200
   3923   3922   3924     1   108.4600466 328.025600
   3924   3922   3925     1   109.5600471 388.275200
   3925   3934   3935     1   109.5600471 388.275200
   3925   3934   3936     1   109.5600471 388.275200
   3926   3925   3934     1   109.8000471 387.438400
   3926   3925   3927     1   107.5800459 329.699200
   3927   3925   3934     1   109.8000471 387.438400
   3928   3940   3941     1   109.5600471 388.275200
   3928   3940   3942     1   109.5600471 388.275200
   3929   3928   3940     1   109.8000471 387.438400
   3929   3928   3930     1   107.5800459 329.699200
   3930   3928   3940     1   109.8000471 387.438400
   3931   3937   3938     1   109.5600471 388.275200
   3931   3937   3939     1   109.5600471 388.275200
   3932   3931   3937     1   109.8000471 387.438400
   3932   3931   3933     1   107.5800459 329.699200
   3933   3931   3937     1   109.8000471 387.438400
   3935   3934   3943     1   109.7800468 425.094400
   3935   3934   3936     1   108.4600466 328.025600
   3936   3934   3943     1   109.7800468 425.094400
   3938   3937   7790     1   109.7800468 425.094400
   3938   3937   3939     1   108.4600466 328.025600
   3939   3937   7790     1   109.7800468 425.094400
   3941   3940   7813     1   109.7800468 425.094400
   3941   3940   3942     1   108.4600466 328.025600
   3942   3940   7813     1   109.7800468 425.094400
   3944   3945   3946     1   109.8800469 414.216000
   3944   3945   3947     1   109.8800469 414.216000
   3944   3948   3949     1   109.8800469 414.216000
   3944   3948   3950     1   109.8800469 414.216000
   3944   3951   3952     1   109.8800469 414.216000
   3944   3951   3953     1   109.8800469 414.216000
   3945   3957   3958     1   109.8000471 387.438400
   3945   3957   3959     1   109.8000471 387.438400
   3946   3945   3957     1   109.5600471 388.275200
   3946   3945   3947     1   108.4600466 328.025600
   3947   3945   3957     1   109.5600471 388.275200
   3948   3960   3961     1   109.8000471 387.438400
   3948   3960   3962     1   109.8000471 387.438400
   3949   3948   3960     1   109.5600471 388.275200
   3949   3948   3950     1   108.4600466 328.025600
   3950   3948   3960     1   109.5600471 388.275200
   3951   3954   3955     1   109.8000471 387.438400
   3951   3954   3956     1   109.8000471 387.438400
   3952   3951   3954     1   109.5600471 388.275200
   3952   3951   3953     1   108.4600466 328.025600
   3953   3951   3954     1   109.5600471 388.275200
   3954   3963   3964     1   109.5600471 388.275200
   3954   3963   3965     1   109.5600471 388.275200
   3955   3954   3963     1   109.8000471 387.438400
   3955   3954   3956     1   107.5800459 329.699200
   3956   3954   3963     1   109.8000471 387.438400
   3957   3969   3970     1   109.5600471 388.275200
   3957   3969   3971     1   109.5600471 388.275200
   3958   3957   3969     1   109.8000471 387.438400
   3958   3957   3959     1   107.5800459 329.699200
   3959   3957   3969     1   109.8000471 387.438400
   3960   3966   3967     1   109.5600471 388.275200
   3960   3966   3968     1   109.5600471 388.275200
   3961   3960   3966     1   109.8000471 387.438400
   3961   3960   3962     1   107.5800459 329.699200
   3962   3960   3966     1   109.8000471 387.438400
   3964   3963   3972     1   109.7800468 425.094400
   3964   3963   3965     1   108.4600466 328.025600
   3965   3963   3972     1   109.7800468 425.094400
   3967   3966   7836     1   109.7800468 425.094400
   3967   3966   3968     1   108.4600466 328.025600
   3968   3966   7836     1   109.7800468 425.094400
   3970   3969   7859     1   109.7800468 425.094400
   3970   3969   3971     1   108.4600466 328.025600
   3971   3969   7859     1   109.7800468 425.094400
   3973   3974   3975     1   109.8800469 414.216000
   3973   3974   3976     1   109.8800469 414.216000
   3973   3977   3978     1   109.8800469 414.216000
   3973   3977   3979     1   109.8800469 414.216000
   3973   3980   3981     1   109.8800469 414.216000
   3973   3980   3982     1   109.8800469 414.216000
   3974   3986   3987     1   109.8000471 387.438400
   3974   3986   3988     1   109.8000471 387.438400
   3975   3974   3986     1   109.5600471 388.275200
   3975   3974   3976     1   108.4600466 328.025600
   3976   3974   3986     1   109.5600471 388.275200
   3977   3989   3990     1   109.8000471 387.438400
   3977   3989   3991     1   109.8000471 387.438400
   3978   3977   3989     1   109.5600471 388.275200
   3978   3977   3979     1   108.4600466 328.025600
   3979   3977   3989     1   109.5600471 388.275200
   3980   3983   3984     1   109.8000471 387.438400
   3980   3983   3985     1   109.8000471 387.438400
   3981   3980   3983     1   109.5600471 388.275200
   3981   3980   3982     1   108.4600466 328.025600
   3982   3980   3983     1   109.5600471 388.275200
   3983   3992   3993     1   109.5600471 388.275200
   3983   3992   3994     1   109.5600471 388.275200
   3984   3983   3992     1   109.8000471 387.438400
   3984   3983   3985     1   107.5800459 329.699200
   3985   3983   3992     1   109.8000471 387.438400
   3986   3998   3999     1   109.5600471 388.275200
   3986   3998   4000     1   109.5600471 388.275200
   3987   3986   3998     1   109.8000471 387.438400
   3987   3986   3988     1   107.5800459 329.699200
   3988   3986   3998     1   109.8000471 387.438400
   3989   3995   3996     1   109.5600471 388.275200
   3989   3995   3997     1   109.5600471 388.275200
   3990   3989   3995     1   109.8000471 387.438400
   3990   3989   3991     1   107.5800459 329.699200
   3991   3989   3995     1   109.8000471 387.438400
   3993   3992   4001     1   109.7800468 425.094400
   3993   3992   3994     1   108.4600466 328.025600
   3994   3992   4001     1   109.7800468 425.094400
   3996   3995   7882     1   109.7800468 425.094400
   3996   3995   3997     1   108.4600466 328.025600
   3997   3995   7882     1   109.7800468 425.094400
   3999   3998   7905     1   109.7800468 425.094400
   3999   3998   4000     1   108.4600466 328.025600
   4000   3998   7905     1   109.7800468 425.094400
   4002   4003   4004     1   109.8800469 414.216000
   4002   4003   4005     1   109.8800469 414.216000
   4002   4006   4007     1   109.8800469 414.216000
   4002   4006   4008     1   109.8800469 414.216000
   4002   4009   4010     1   109.8800469 414.216000
   4002   4009   4011     1   109.8800469 414.216000
   4003   4015   4016     1   109.8000471 387.438400
   4003   4015   4017     1   109.8000471 387.438400
   4004   4003   4015     1   109.5600471 388.275200
   4004   4003   4005     1   108.4600466 328.025600
   4005   4003   4015     1   109.5600471 388.275200
   4006   4018   4019     1   109.8000471 387.438400
   4006   4018   4020     1   109.8000471 387.438400
   4007   4006   4018     1   109.5600471 388.275200
   4007   4006   4008     1   108.4600466 328.025600
   4008   4006   4018     1   109.5600471 388.275200
   4009   4012   4013     1   109.8000471 387.438400
   4009   4012   4014     1   109.8000471 387.438400
   4010   4009   4012     1   109.5600471 388.275200
   4010   4009   4011     1   108.4600466 328.025600
   4011   4009   4012     1   109.5600471 388.275200
   4012   4021   4022     1   109.5600471 388.275200
   4012   4021   4023     1   109.5600471 388.275200
   4013   4012   4021     1   109.8000471 387.438400
   4013   4012   4014     1   107.5800459 329.699200
   4014   4012   4021     1   109.8000471 387.438400
   4015   4027   4028     1   109.5600471 388.275200
   4015   4027   4029     1   109.5600471 388.275200
   4016   4015   4027     1   109.8000471 387.438400
   4016   4015   4017     1   107.5800459 329.699200
   4017   4015   4027     1   109.8000471 387.438400
   4018   4024   4025     1   109.5600471 388.275200
   4018   4024   4026     1   109.5600471 388.275200
   4019   4018   4024     1   109.8000471 387.438400
   4019   4018   4020     1   107.5800459 329.699200
   4020   4018   4024     1   109.8000471 387.438400
   4022   4021   4030     1   109.7800468 425.094400
   4022   4021   4023     1   108.4600466 328.025600
   4023   4021   4030     1   109.7800468 425.094400
   4025   4024   7928     1   109.7800468 425.094400
   4025   4024   4026     1   108.4600466 328.025600
   4026   4024   7928     1   109.7800468 425.094400
   4028   4027   7951     1   109.7800468 425.094400
   4028   4027   4029     1   108.4600466 328.025600
   4029   4027   7951     1   109.7800468 425.094400
   4031   4032   4033     1   109.8800469 414.216000
   4031   4032   4034     1   109.8800469 414.216000
   4031   4035   4036     1   109.8800469 414.216000
   4031   4035   4037     1   109.8800469 414.216000
   4031   4038   4039     1   109.8800469 414.216000
   4031   4038   4040     1   109.8800469 414.216000
   4032   4044   4045     1   109.8000471 387.438400
   4032   4044   4046     1   109.8000471 387.438400
   4033   4032   4044     1   109.5600471 388.275200
   4033   4032   4034     1   108.4600466 328.025600
   4034   4032   4044     1   109.5600471 388.275200
   4035   4047   4048     1   109.8000471 387.438400
   4035   4047   4049     1   109.8000471 387.438400
   4036   4035   4047     1   109.5600471 388.275200
   4036   4035   4037     1   108.4600466 328.025600
   4037   4035   4047     1   109.5600471 388.275200
   4038   4041   4042     1   109.8000471 387.438400
   4038   4041   4043     1   109.8000471 387.438400
   4039   4038   4041     1   109.5600471 388.275200
   4039   4038   4040     1   108.4600466 328.025600
   4040   4038   4041     1   109.5600471 388.275200
   4041   4050   4051     1   109.5600471 388.275200
   4041   4050   4052     1   109.5600471 388.275200
   4042   4041   4050     1   109.8000471 387.438400
   4042   4041   4043     1   107.5800459 329.699200
   4043   4041   4050     1   109.8000471 387.438400
   4044   4056   4057     1   109.5600471 388.275200
   4044   4056   4058     1   109.5600471 388.275200
   4045   4044   4056     1   109.8000471 387.438400
   4045   4044   4046     1   107.5800459 329.699200
   4046   4044   4056     1   109.8000471 387.438400
   4047   4053   4054     1   109.5600471 388.275200
   4047   4053   4055     1   109.5600471 388.275200
   4048   4047   4053     1   109.8000471 387.438400
   4048   4047   4049     1   107.5800459 329.699200
   4049   4047   4053     1   109.8000471 387.438400
   4051   4050   4059     1   109.7800468 425.094400
   4051   4050   4052     1   108.4600466 328.025600
   4052   4050   4059     1   109.7800468 425.094400
   4054   4053   7974     1   109.7800468 425.094400
   4054   4053   4055     1   108.4600466 328.025600
   4055   4053   7974     1   109.7800468 425.094400
   4057   4056   7997     1   109.7800468 425.094400
   4057   4056   4058     1   108.4600466 328.025600
   4058   4056   7997     1   109.7800468 425.094400
   4060   4061   4062     1   109.8800469 414.216000
   4060   4061   4063     1   109.8800469 414.216000
   4060   4064   4065     1   109.8800469 414.216000
   4060   4064   4066     1   109.8800469 414.216000
   4060   4067   4068     1   109.8800469 414.216000
   4060   4067   4069     1   109.8800469 414.216000
   4061   4073   4074     1   109.8000471 387.438400
   4061   4073   4075     1   109.8000471 387.438400
   4062   4061   4073     1   109.5600471 388.275200
   4062   4061   4063     1   108.4600466 328.025600
   4063   4061   4073     1   109.5600471 388.275200
   4064   4076   4077     1   109.8000471 387.438400
   4064   4076   4078     1   109.8000471 387.438400
   4065   4064   4076     1   109.5600471 388.275200
   4065   4064   4066     1   108.4600466 328.025600
   4066   4064   4076     1   109.5600471 388.275200
   4067   4070   4071     1   109.8000471 387.438400
   4067   4070   4072     1   109.8000471 387.438400
   4068   4067   4070     1   109.5600471 388.275200
   4068   4067   4069     1   108.4600466 328.025600
   4069   4067   4070     1   109.5600471 388.275200
   4070   4079   4080     1   109.5600471 388.275200
   4070   4079   4081     1   109.5600471 388.275200
   4071   4070   4079     1   109.8000471 387.438400
   4071   4070   4072     1   107.5800459 329.699200
   4072   4070   4079     1   109.8000471 387.438400
   4073   4085   4086     1   109.5600471 388.275200
   4073   4085   4087     1   109.5600471 388.275200
   4074   4073   4085     1   109.8000471 387.438400
   4074   4073   4075     1   107.5800459 329.699200
   4075   4073   4085     1   109.8000471 387.438400
   4076   4082   4083     1   109.5600471 388.275200
   4076   4082   4084     1   109.5600471 388.275200
   4077   4076   4082     1   109.8000471 387.438400
   4077   4076   4078     1   107.5800459 329.699200
   4078   4076   4082     1   109.8000471 387.438400
   4080   4079   4088     1   109.7800468 425.094400
   4080   4079   4081     1   108.4600466 328.025600
   4081   4079   4088     1   109.7800468 425.094400
   4083   4082   8020     1   109.7800468 425.094400
   4083   4082   4084     1   108.4600466 328.025600
   4084   4082   8020     1   109.7800468 425.094400
   4086   4085   8043     1   109.7800468 425.094400
   4086   4085   4087     1   108.4600466 328.025600
   4087   4085   8043     1   109.7800468 425.094400
   4089   4090   4091     1   109.8800469 414.216000
   4089   4090   4092     1   109.8800469 414.216000
   4089   4093   4094     1   109.8800469 414.216000
   4089   4093   4095     1   109.8800469 414.216000
   4089   4096   4097     1   109.8800469 414.216000
   4089   4096   4098     1   109.8800469 414.216000
   4090   4102   4103     1   109.8000471 387.438400
   4090   4102   4104     1   109.8000471 387.438400
   4091   4090   4102     1   109.5600471 388.275200
   4091   4090   4092     1   108.4600466 328.025600
   4092   4090   4102     1   109.5600471 388.275200
   4093   4105   4106     1   109.8000471 387.438400
   4093   4105   4107     1   109.8000471 387.438400
   4094   4093   4105     1   109.5600471 388.275200
   4094   4093   4095     1   108.4600466 328.025600
   4095   4093   4105     1   109.5600471 388.275200
   4096   4099   4100     1   109.8000471 387.438400
   4096   4099   4101     1   109.8000471 387.438400
   4097   4096   4099     1   109.5600471 388.275200
   4097   4096   4098     1   108.4600466 328.025600
   4098   4096   4099     1   109.5600471 388.275200
   4099   4108   4109     1   109.5600471 388.275200
   4099   4108   4110     1   109.5600471 388.275200
   4100   4099   4108     1   109.8000471 387.438400
   4100   4099   4101     1   107.5800459 329.699200
   4101   4099   4108     1   109.8000471 387.438400
   4102   4114   4115     1   109.5600471 388.275200
   4102   4114   4116     1   109.5600471 388.275200
   4103   4102   4114     1   109.8000471 387.438400
   4103   4102   4104     1   107.5800459 329.699200
   4104   4102   4114     1   109.8000471 387.438400
   4105   4111   4112     1   109.5600471 388.275200
   4105   4111   4113     1   109.5600471 388.275200
   4106   4105   4111     1   109.8000471 387.438400
   4106   4105   4107     1   107.5800459 329.699200
   4107   4105   4111     1   109.8000471 387.438400
   4109   4108   4117     1   109.7800468 425.094400
   4109   4108   4110     1   108.4600466 328.025600
   4110   4108   4117     1   109.7800468 425.094400
   4112   4111   8066     1   109.7800468 425.094400
   4112   4111   4113     1   108.4600466 328.025600
   4113   4111   8066     1   109.7800468 425.094400
   4115   4114   8089     1   109.7800468 425.094400
   4115   4114   4116     1   108.4600466 328.025600
   4116   4114   8089     1   109.7800468 425.094400
   4118   4119   4120     1   109.8800469 414.216000
   4118   4119   4121     1   109.8800469 414.216000
   4118   4122   4123     1   109.8800469 414.216000
   4118   4122   4124     1   109.8800469 414.216000
   4118   4125   4126     1   109.8800469 414.216000
   4118   4125   4127     1   109.8800469 414.216000
   4119   4131   4132     1   109.8000471 387.438400
   4119   4131   4133     1   109.8000471 387.438400
   4120   4119   4131     1   109.5600471 388.275200
   4120   4119   4121     1   108.4600466 328.025600
   4121   4119   4131     1   109.5600471 388.275200
   4122   4134   4135     1   109.8000471 387.438400
   4122   4134   4136     1   109.8000471 387.438400
   4123   4122   4134     1   109.5600471 388.275200
   4123   4122   4124     1   108.4600466 328.025600
   4124   4122   4134     1   109.5600471 388.275200
   4125   4128   4129     1   109.8000471 387.438400
   4125   4128   4130     1   109.8000471 387.438400
   4126   4125   4128     1   109.5600471 388.275200
   4126   4125   4127     1   108.4600466 328.025600
   4127   4125   4128     1   109.5600471 388.275200
   4128   4137   4138     1   109.5600471 388.275200
   4128   4137   4139     1   109.5600471 388.275200
   4129   4128   4137     1   109.8000471 387.438400
   4129   4128   4130     1   107.5800459 329.699200
   4130   4128   4137     1   109.8000471 387.438400
   4131   4143   4144     1   109.5600471 388.275200
   4131   4143   4145     1   109.5600471 388.275200
   4132   4131   4143     1   109.8000471 387.438400
   4132   4131   4133     1   107.5800459 329.699200
   4133   4131   4143     1   109.8000471 387.438400
   4134   4140   4141     1   109.5600471 388.275200
   4134   4140   4142     1   109.5600471 388.275200
   4135   4134   4140     1   109.8000471 387.438400
   4135   4134   4136     1   107.5800459 329.699200
   4136   4134   4140     1   109.8000471 387.438400
   4138   4137   4146     1   109.7800468 425.094400
   4138   4137   4139     1   108.4600466 328.025600
   4139   4137   4146     1   109.7800468 425.094400
   4141   4140   8112     1   109.7800468 425.094400
   4141   4140   4142     1   108.4600466 328.025600
   4142   4140   8112     1   109.7800468 425.094400
   4144   4143   8135     1   109.7800468 425.094400
   4144   4143   4145     1   108.4600466 328.025600
   4145   4143   8135     1   109.7800468 425.094400
   4147   4148   4149     1   109.8800469 414.216000
   4147   4148   4150     1   109.8800469 414.216000
   4147   4151   4152     1   109.8800469 414.216000
   4147   4151   4153     1   109.8800469 414.216000
   4147   4154   4155     1   109.8800469 414.216000
   4147   4154   4156     1   109.8800469 414.216000
   4148   4160   4161     1   109.8000471 387.438400
   4148   4160   4162     1   109.8000471 387.438400
   4149   4148   4160     1   109.5600471 388.275200
   4149   4148   4150     1   108.4600466 328.025600
   4150   4148   4160     1   109.5600471 388.275200
   4151   4163   4164     1   109.8000471 387.438400
   4151   4163   4165     1   109.8000471 387.438400
   4152   4151   4163     1   109.5600471 388.275200
   4152   4151   4153     1   108.4600466 328.025600
   4153   4151   4163     1   109.5600471 388.275200
   4154   4157   4158     1   109.8000471 387.438400
   4154   4157   4159     1   109.8000471 387.438400
   4155   4154   4157     1   109.5600471 388.275200
   4155   4154   4156     1   108.4600466 328.025600
   4156   4154   4157     1   109.5600471 388.275200
   4157   4166   4167     1   109.5600471 388.275200
   4157   4166   4168     1   109.5600471 388.275200
   4158   4157   4166     1   109.8000471 387.438400
   4158   4157   4159     1   107.5800459 329.699200
   4159   4157   4166     1   109.8000471 387.438400
   4160   4172   4173     1   109.5600471 388.275200
   4160   4172   4174     1   109.5600471 388.275200
   4161   4160   4172     1   109.8000471 387.438400
   4161   4160   4162     1   107.5800459 329.699200
   4162   4160   4172     1   109.8000471 387.438400
   4163   4169   4170     1   109.5600471 388.275200
   4163   4169   4171     1   109.5600471 388.275200
   4164   4163   4169     1   109.8000471 387.438400
   4164   4163   4165     1   107.5800459 329.699200
   4165   4163   4169     1   109.8000471 387.438400
   4167   4166   4175     1   109.7800468 425.094400
   4167   4166   4168     1   108.4600466 328.025600
   4168   4166   4175     1   109.7800468 425.094400
   4170   4169   8158     1   109.7800468 425.094400
   4170   4169   4171     1   108.4600466 328.025600
   4171   4169   8158     1   109.7800468 425.094400
   4173   4172   8181     1   109.7800468 425.094400
   4173   4172   4174     1   108.4600466 328.025600
   4174   4172   8181     1   109.7800468 425.094400
   4176   4177   4178     1   109.8800469 414.216000
   4176   4177   4179     1   109.8800469 414.216000
   4176   4180   4181     1   109.8800469 414.216000
   4176   4180   4182     1   109.8800469 414.216000
   4176   4183   4184     1   109.8800469 414.216000
   4176   4183   4185     1   109.8800469 414.216000
   4177   4189   4190     1   109.8000471 387.438400
   4177   4189   4191     1   109.8000471 387.438400
   4178   4177   4189     1   109.5600471 388.275200
   4178   4177   4179     1   108.4600466 328.025600
   4179   4177   4189     1   109.5600471 388.275200
   4180   4192   4193     1   109.8000471 387.438400
   4180   4192   4194     1   109.8000471 387.438400
   4181   4180   4192     1   109.5600471 388.275200
   4181   4180   4182     1   108.4600466 328.025600
   4182   4180   4192     1   109.5600471 388.275200
   4183   4186   4187     1   109.8000471 387.438400
   4183   4186   4188     1   109.8000471 387.438400
   4184   4183   4186     1   109.5600471 388.275200
   4184   4183   4185     1   108.4600466 328.025600
   4185   4183   4186     1   109.5600471 388.275200
   4186   4195   4196     1   109.5600471 388.275200
   4186   4195   4197     1   109.5600471 388.275200
   4187   4186   4195     1   109.8000471 387.438400
   4187   4186   4188     1   107.5800459 329.699200
   4188   4186   4195     1   109.8000471 387.438400
   4189   4201   4202     1   109.5600471 388.275200
   4189   4201   4203     1   109.5600471 388.275200
   4190   4189   4201     1   109.8000471 387.438400
   4190   4189   4191     1   107.5800459 329.699200
   4191   4189   4201     1   109.8000471 387.438400
   4192   4198   4199     1   109.5600471 388.275200
   4192   4198   4200     1   109.5600471 388.275200
   4193   4192   4198     1   109.8000471 387.438400
   4193   4192   4194     1   107.5800459 329.699200
   4194   4192   4198     1   109.8000471 387.438400
   4196   4195   4204     1   109.7800468 425.094400
   4196   4195   4197     1   108.4600466 328.025600
   4197   4195   4204     1   109.7800468 425.094400
   4199   4198   8204     1   109.7800468 425.094400
   4199   4198   4200     1   108.4600466 328.025600
   4200   4198   8204     1   109.7800468 425.094400
   4202   4201   8227     1   109.7800468 425.094400
   4202   4201   4203     1   108.4600466 328.025600
   4203   4201   8227     1   109.7800468 425.094400
   4205   4206   4207     1   109.8800469 414.216000
   4205   4206   4208     1   109.8800469 414.216000
   4205   4209   4210     1   109.8800469 414.216000
   4205   4209   4211     1   109.8800469 414.216000
   4205   4212   4213     1   109.8800469 414.216000
   4205   4212   4214     1   109.8800469 414.216000
   4206   4218   4219     1   109.8000471 387.438400
   4206   4218   4220     1   109.8000471 387.438400
   4207   4206   4218     1   109.5600471 388.275200
   4207   4206   4208     1   108.4600466 328.025600
   4208   4206   4218     1   109.5600471 388.275200
   4209   4221   4222     1   109.8000471 387.438400
   4209   4221   4223     1   109.8000471 387.438400
   4210   4209   4221     1   109.5600471 388.275200
   4210   4209   4211     1   108.4600466 328.025600
   4211   4209   4221     1   109.5600471 388.275200
   4212   4215   4216     1   109.8000471 387.438400
   4212   4215   4217     1   109.8000471 387.438400
   4213   4212   4215     1   109.5600471 388.275200
   4213   4212   4214     1   108.4600466 328.025600
   4214   4212   4215     1   109.5600471 388.275200
   4215   4224   4225     1   109.5600471 388.275200
   4215   4224   4226     1   109.5600471 388.275200
   4216   4215   4224     1   109.8000471 387.438400
   4216   4215   4217     1   107.5800459 329.699200
   4217   4215   4224     1   109.8000471 387.438400
   4218   4230   4231     1   109.5600471 388.275200
   4218   4230   4232     1   109.5600471 388.275200
   4219   4218   4230     1   109.8000471 387.438400
   4219   4218   4220     1   107.5800459 329.699200
   4220   4218   4230     1   109.8000471 387.438400
   4221   4227   4228     1   109.5600471 388.275200
   4221   4227   4229     1   109.5600471 388.275200
   4222   4221   4227     1   109.8000471 387.438400
   4222   4221   4223     1   107.5800459 329.699200
   4223   4221   4227     1   109.8000471 387.438400
   4225   4224   4233     1   109.7800468 425.094400
   4225   4224   4226     1   108.4600466 328.025600
   4226   4224   4233     1   109.7800468 425.094400
   4228   4227   8250     1   109.7800468 425.094400
   4228   4227   4229     1   108.4600466 328.025600
   4229   4227   8250     1   109.7800468 425.094400
   4231   4230   8273     1   109.7800468 425.094400
   4231   4230   4232     1   108.4600466 328.025600
   4232   4230   8273     1   109.7800468 425.094400
   4234   4235   4236     1   109.8800469 414.216000
   4234   4235   4237     1   109.8800469 414.216000
   4234   4238   4239     1   109.8800469 414.216000
   4234   4238   4240     1   109.8800469 414.216000
   4234   4241   4242     1   109.8800469 414.216000
   4234   4241   4243     1   109.8800469 414.216000
   4235   4247   4248     1   109.8000471 387.438400
   4235   4247   4249     1   109.8000471 387.438400
   4236   4235   4247     1   109.5600471 388.275200
   4236   4235   4237     1   108.4600466 328.025600
   4237   4235   4247     1   109.5600471 388.275200
   4238   4250   4251     1   109.8000471 387.438400
   4238   4250   4252     1   109.8000471 387.438400
   4239   4238   4250     1   109.5600471 388.275200
   4239   4238   4240     1   108.4600466 328.025600
   4240   4238   4250     1   109.5600471 388.275200
   4241   4244   4245     1   109.8000471 387.438400
   4241   4244   4246     1   109.8000471 387.438400
   4242   4241   4244     1   109.5600471 388.275200
   4242   4241   4243     1   108.4600466 328.025600
   4243   4241   4244     1   109.5600471 388.275200
   4244   4253   4254     1   109.5600471 388.275200
   4244   4253   4255     1   109.5600471 388.275200
   4245   4244   4253     1   109.8000471 387.438400
   4245   4244   4246     1   107.5800459 329.699200
   4246   4244   4253     1   109.8000471 387.438400
   4247   4259   4260     1   109.5600471 388.275200
   4247   4259   4261     1   109.5600471 388.275200
   4248   4247   4259     1   109.8000471 387.438400
   4248   4247   4249     1   107.5800459 329.699200
   4249   4247   4259     1   109.8000471 387.438400
   4250   4256   4257     1   109.5600471 388.275200
   4250   4256   4258     1   109.5600471 388.275200
   4251   4250   4256     1   109.8000471 387.438400
   4251   4250   4252     1   107.5800459 329.699200
   4252   4250   4256     1   109.8000471 387.438400
   4254   4253   4262     1   109.7800468 425.094400
   4254   4253   4255     1   108.4600466 328.025600
   4255   4253   4262     1   109.7800468 425.094400
   4257   4256   8296     1   109.7800468 425.094400
   4257   4256   4258     1   108.4600466 328.025600
   4258   4256   8296     1   109.7800468 425.094400
   4260   4259   8319     1   109.7800468 425.094400
   4260   4259   4261     1   108.4600466 328.025600
   4261   4259   8319     1   109.7800468 425.094400
   4263   4264   4265     1   109.8800469 414.216000
   4263   4264   4266     1   109.8800469 414.216000
   4263   4267   4268     1   109.8800469 414.216000
   4263   4267   4269     1   109.8800469 414.216000
   4263   4270   4271     1   109.8800469 414.216000
   4263   4270   4272     1   109.8800469 414.216000
   4264   4276   4277     1   109.8000471 387.438400
   4264   4276   4278     1   109.8000471 387.438400
   4265   4264   4276     1   109.5600471 388.275200
   4265   4264   4266     1   108.4600466 328.025600
   4266   4264   4276     1   109.5600471 388.275200
   4267   4279   4280     1   109.8000471 387.438400
   4267   4279   4281     1   109.8000471 387.438400
   4268   4267   4279     1   109.5600471 388.275200
   4268   4267   4269     1   108.4600466 328.025600
   4269   4267   4279     1   109.5600471 388.275200
   4270   4273   4274     1   109.8000471 387.438400
   4270   4273   4275     1   109.8000471 387.438400
   4271   4270   4273     1   109.5600471 388.275200
   4271   4270   4272     1   108.4600466 328.025600
   4272   4270   4273     1   109.5600471 388.275200
   4273   4282   4283     1   109.5600471 388.275200
   4273   4282   4284     1   109.5600471 388.275200
   4274   4273   4282     1   109.8000471 387.438400
   4274   4273   4275     1   107.5800459 329.699200
   4275   4273   4282     1   109.8000471 387.438400
   4276   4288   4289     1   109.5600471 388.275200
   4276   4288   4290     1   109.5600471 388.275200
   4277   4276   4288     1   109.8000471 387.438400
   4277   4276   4278     1   107.5800459 329.699200
   4278   4276   4288     1   109.8000471 387.438400
   4279   4285   4286     1   109.5600471 388.275200
   4279   4285   4287     1   109.5600471 388.275200
   4280   4279   4285     1   109.8000471 387.438400
   4280   4279   4281     1   107.5800459 329.699200
   4281   4279   4285     1   109.8000471 387.438400
   4283   4282   4291     1   109.7800468 425.094400
   4283   4282   4284     1   108.4600466 328.025600
   4284   4282   4291     1   109.7800468 425.094400
   4286   4285   8342     1   109.7800468 425.094400
   4286   4285   4287     1   108.4600466 328.025600
   4287   4285   8342     1   109.7800468 425.094400
   4289   4288   8365     1   109.7800468 425.094400
   4289   4288   4290     1   108.4600466 328.025600
   4290   4288   8365     1   109.7800468 425.094400
   4292   4293   4294     1   109.8800469 414.216000
   4292   4293   4295     1   109.8800469 414.216000
   4292   4296   4297     1   109.8800469 414.216000
   4292   4296   4298     1   109.8800469 414.216000
   4292   4299   4300     1   109.8800469 414.216000
   4292   4299   4301     1   109.8800469 414.216000
   4293   4305   4306     1   109.8000471 387.438400
   4293   4305   4307     1   109.8000471 387.438400
   4294   4293   4305     1   109.5600471 388.275200
   4294   4293   4295     1   108.4600466 328.025600
   4295   4293   4305     1   109.5600471 388.275200
   4296   4308   4309     1   109.8000471 387.438400
   4296   4308   4310     1   109.8000471 387.438400
   4297   4296   4308     1   109.5600471 388.275200
   4297   4296   4298     1   108.4600466 328.025600
   4298   4296   4308     1   109.5600471 388.275200
   4299   4302   4303     1   109.8000471 387.438400
   4299   4302   4304     1   109.8000471 387.438400
   4300   4299   4302     1   109.5600471 388.275200
   4300   4299   4301     1   108.4600466 328.025600
   4301   4299   4302     1   109.5600471 388.275200
   4302   4311   4312     1   109.5600471 388.275200
   4302   4311   4313     1   109.5600471 388.275200
   4303   4302   4311     1   109.8000471 387.438400
   4303   4302   4304     1   107.5800459 329.699200
   4304   4302   4311     1   109.8000471 387.438400
   4305   4317   4318     1   109.5600471 388.275200
   4305   4317   4319     1   109.5600471 388.275200
   4306   4305   4317     1   109.8000471 387.438400
   4306   4305   4307     1   107.5800459 329.699200
   4307   4305   4317     1   109.8000471 387.438400
   4308   4314   4315     1   109.5600471 388.275200
   4308   4314   4316     1   109.5600471 388.275200
   4309   4308   4314     1   109.8000471 387.438400
   4309   4308   4310     1   107.5800459 329.699200
   4310   4308   4314     1   109.8000471 387.438400
   4312   4311   4320     1   109.7800468 425.094400
   4312   4311   4313     1   108.4600466 328.025600
   4313   4311   4320     1   109.7800468 425.094400
   4315   4314   8388     1   109.7800468 425.094400
   4315   4314   4316     1   108.4600466 328.025600
   4316   4314   8388     1   109.7800468 425.094400
   4318   4317   8411     1   109.7800468 425.094400
   4318   4317   4319     1   108.4600466 328.025600
   4319   4317   8411     1   109.7800468 425.094400
   4321   4322   4323     1   109.8800469 414.216000
   4321   4322   4324     1   109.8800469 414.216000
   4321   4325   4326     1   109.8800469 414.216000
   4321   4325   4327     1   109.8800469 414.216000
   4321   4328   4329     1   109.8800469 414.216000
   4321   4328   4330     1   109.8800469 414.216000
   4322   4334   4335     1   109.8000471 387.438400
   4322   4334   4336     1   109.8000471 387.438400
   4323   4322   4334     1   109.5600471 388.275200
   4323   4322   4324     1   108.4600466 328.025600
   4324   4322   4334     1   109.5600471 388.275200
   4325   4337   4338     1   109.8000471 387.438400
   4325   4337   4339     1   109.8000471 387.438400
   4326   4325   4337     1   109.5600471 388.275200
   4326   4325   4327     1   108.4600466 328.025600
   4327   4325   4337     1   109.5600471 388.275200
   4328   4331   4332     1   109.8000471 387.438400
   4328   4331   4333     1   109.8000471 387.438400
   4329   4328   4331     1   109.5600471 388.275200
   4329   4328   4330     1   108.4600466 328.025600
   4330   4328   4331     1   109.5600471 388.275200
   4331   4340   4341     1   109.5600471 388.275200
   4331   4340   4342     1   109.5600471 388.275200
   4332   4331   4340     1   109.8000471 387.438400
   4332   4331   4333     1   107.5800459 329.699200
   4333   4331   4340     1   109.8000471 387.438400
   4334   4346   4347     1   109.5600471 388.275200
   4334   4346   4348     1   109.5600471 388.275200
   4335   4334   4346     1   109.8000471 387.438400
   4335   4334   4336     1   107.5800459 329.699200
   4336   4334   4346     1   109.8000471 387.438400
   4337   4343   4344     1   109.5600471 388.275200
   4337   4343   4345     1   109.5600471 388.275200
   4338   4337   4343     1   109.8000471 387.438400
   4338   4337   4339     1   107.5800459 329.699200
   4339   4337   4343     1   109.8000471 387.438400
   4341   4340   4349     1   109.7800468 425.094400
   4341   4340   4342     1   108.4600466 328.025600
   4342   4340   4349     1   109.7800468 425.094400
   4344   4343   8434     1   109.7800468 425.094400
   4344   4343   4345     1   108.4600466 328.025600
   4345   4343   8434     1   109.7800468 425.094400
   4347   4346   8457     1   109.7800468 425.094400
   4347   4346   4348     1   108.4600466 328.025600
   4348   4346   8457     1   109.7800468 425.094400
   4350   4351   4352     1   109.8800469 414.216000
   4350   4351   4353     1   109.8800469 414.216000
   4350   4354   4355     1   109.8800469 414.216000
   4350   4354   4356     1   109.8800469 414.216000
   4350   4357   4358     1   109.8800469 414.216000
   4350   4357   4359     1   109.8800469 414.216000
   4351   4363   4364     1   109.8000471 387.438400
   4351   4363   4365     1   109.8000471 387.438400
   4352   4351   4363     1   109.5600471 388.275200
   4352   4351   4353     1   108.4600466 328.025600
   4353   4351   4363     1   109.5600471 388.275200
   4354   4366   4367     1   109.8000471 387.438400
   4354   4366   4368     1   109.8000471 387.438400
   4355   4354   4366     1   109.5600471 388.275200
   4355   4354   4356     1   108.4600466 328.025600
   4356   4354   4366     1   109.5600471 388.275200
   4357   4360   4361     1   109.8000471 387.438400
   4357   4360   4362     1   109.8000471 387.438400
   4358   4357   4360     1   109.5600471 388.275200
   4358   4357   4359     1   108.4600466 328.025600
   4359   4357   4360     1   109.5600471 388.275200
   4360   4369   4370     1   109.5600471 388.275200
   4360   4369   4371     1   109.5600471 388.275200
   4361   4360   4369     1   109.8000471 387.438400
   4361   4360   4362     1   107.5800459 329.699200
   4362   4360   4369     1   109.8000471 387.438400
   4363   4375   4376     1   109.5600471 388.275200
   4363   4375   4377     1   109.5600471 388.275200
   4364   4363   4375     1   109.8000471 387.438400
   4364   4363   4365     1   107.5800459 329.699200
   4365   4363   4375     1   109.8000471 387.438400
   4366   4372   4373     1   109.5600471 388.275200
   4366   4372   4374     1   109.5600471 388.275200
   4367   4366   4372     1   109.8000471 387.438400
   4367   4366   4368     1   107.5800459 329.699200
   4368   4366   4372     1   109.8000471 387.438400
   4370   4369   4378     1   109.7800468 425.094400
   4370   4369   4371     1   108.4600466 328.025600
   4371   4369   4378     1   109.7800468 425.094400
   4373   4372   8480     1   109.7800468 425.094400
   4373   4372   4374     1   108.4600466 328.025600
   4374   4372   8480     1   109.7800468 425.094400
   4376   4375   8503     1   109.7800468 425.094400
   4376   4375   4377     1   108.4600466 328.025600
   4377   4375   8503     1   109.7800468 425.094400
   4379   4380   4381     1   109.8800469 414.216000
   4379   4380   4382     1   109.8800469 414.216000
   4379   4383   4384     1   109.8800469 414.216000
   4379   4383   4385     1   109.8800469 414.216000
   4379   4386   4387     1   109.8800469 414.216000
   4379   4386   4388     1   109.8800469 414.216000
   4380   4392   4393     1   109.8000471 387.438400
   4380   4392   4394     1   109.8000471 387.438400
   4381   4380   4392     1   109.5600471 388.275200
   4381   4380   4382     1   108.4600466 328.025600
   4382   4380   4392     1   109.5600471 388.275200
   4383   4395   4396     1   109.8000471 387.438400
   4383   4395   4397     1   109.8000471 387.438400
   4384   4383   4395     1   109.5600471 388.275200
   4384   4383   4385     1   108.4600466 328.025600
   4385   4383   4395     1   109.5600471 388.275200
   4386   4389   4390     1   109.8000471 387.438400
   4386   4389   4391     1   109.8000471 387.438400
   4387   4386   4389     1   109.5600471 388.275200
   4387   4386   4388     1   108.4600466 328.025600
   4388   4386   4389     1   109.5600471 388.275200
   4389   4398   4399     1   109.5600471 388.275200
   4389   4398   4400     1   109.5600471 388.275200
   4390   4389   4398     1   109.8000471 387.438400
   4390   4389   4391     1   107.5800459 329.699200
   4391   4389   4398     1   109.8000471 387.438400
   4392   4404   4405     1   109.5600471 388.275200
   4392   4404   4406     1   109.5600471 388.275200
   4393   4392   4404     1   109.8000471 387.438400
   4393   4392   4394     1   107.5800459 329.699200
   4394   4392   4404     1   109.8000471 387.438400
   4395   4401   4402     1   109.5600471 388.275200
   4395   4401   4403     1   109.5600471 388.275200
   4396   4395   4401     1   109.8000471 387.438400
   4396   4395   4397     1   107.5800459 329.699200
   4397   4395   4401     1   109.8000471 387.438400
   4399   4398   4407     1   109.7800468 425.094400
   4399   4398   4400     1   108.4600466 328.025600
   4400   4398   4407     1   109.7800468 425.094400
   4402   4401   8526     1   109.7800468 425.094400
   4402   4401   4403     1   108.4600466 328.025600
   4403   4401   8526     1   109.7800468 425.094400
   4405   4404   8549     1   109.7800468 425.094400
   4405   4404   4406     1   108.4600466 328.025600
   4406   4404   8549     1   109.7800468 425.094400
   4408   4409   4410     1   109.8800469 414.216000
   4408   4409   4411     1   109.8800469 414.216000
   4408   4412   4413     1   109.8800469 414.216000
   4408   4412   4414     1   109.8800469 414.216000
   4408   4415   4416     1   109.8800469 414.216000
   4408   4415   4417     1   109.8800469 414.216000
   4409   4421   4422     1   109.8000471 387.438400
   4409   4421   4423     1   109.8000471 387.438400
   4410   4409   4421     1   109.5600471 388.275200
   4410   4409   4411     1   108.4600466 328.025600
   4411   4409   4421     1   109.5600471 388.275200
   4412   4424   4425     1   109.8000471 387.438400
   4412   4424   4426     1   109.8000471 387.438400
   4413   4412   4424     1   109.5600471 388.275200
   4413   4412   4414     1   108.4600466 328.025600
   4414   4412   4424     1   109.5600471 388.275200
   4415   4418   4419     1   109.8000471 387.438400
   4415   4418   4420     1   109.8000471 387.438400
   4416   4415   4418     1   109.5600471 388.275200
   4416   4415   4417     1   108.4600466 328.025600
   4417   4415   4418     1   109.5600471 388.275200
   4418   4427   4428     1   109.5600471 388.275200
   4418   4427   4429     1   109.5600471 388.275200
   4419   4418   4427     1   109.8000471 387.438400
   4419   4418   4420     1   107.5800459 329.699200
   4420   4418   4427     1   109.8000471 387.438400
   4421   4433   4434     1   109.5600471 388.275200
   4421   4433   4435     1   109.5600471 388.275200
   4422   4421   4433     1   109.8000471 387.438400
   4422   4421   4423     1   107.5800459 329.699200
   4423   4421   4433     1   109.8000471 387.438400
   4424   4430   4431     1   109.5600471 388.275200
   4424   4430   4432     1   109.5600471 388.275200
   4425   4424   4430     1   109.8000471 387.438400
   4425   4424   4426     1   107.5800459 329.699200
   4426   4424   4430     1   109.8000471 387.438400
   4428   4427   4436     1   109.7800468 425.094400
   4428   4427   4429     1   108.4600466 328.025600
   4429   4427   4436     1   109.7800468 425.094400
   4431   4430   8572     1   109.7800468 425.094400
   4431   4430   4432     1   108.4600466 328.025600
   4432   4430   8572     1   109.7800468 425.094400
   4434   4433   8595     1   109.7800468 425.094400
   4434   4433   4435     1   108.4600466 328.025600
   4435   4433   8595     1   109.7800468 425.094400
   4437   4438   4439     1   109.8800469 414.216000
   4437   4438   4440     1   109.8800469 414.216000
   4437   4441   4442     1   109.8800469 414.216000
   4437   4441   4443     1   109.8800469 414.216000
   4437   4444   4445     1   109.8800469 414.216000
   4437   4444   4446     1   109.8800469 414.216000
   4438   4450   4451     1   109.8000471 387.438400
   4438   4450   4452     1   109.8000471 387.438400
   4439   4438   4450     1   109.5600471 388.275200
   4439   4438   4440     1   108.4600466 328.025600
   4440   4438   4450     1   109.5600471 388.275200
   4441   4453   4454     1   109.8000471 387.438400
   4441   4453   4455     1   109.8000471 387.438400
   4442   4441   4453     1   109.5600471 388.275200
   4442   4441   4443     1   108.4600466 328.025600
   4443   4441   4453     1   109.5600471 388.275200
   4444   4447   4448     1   109.8000471 387.438400
   4444   4447   4449     1   109.8000471 387.438400
   4445   4444   4447     1   109.5600471 388.275200
   4445   4444   4446     1   108.4600466 328.025600
   4446   4444   4447     1   109.5600471 388.275200
   4447   4456   4457     1   109.5600471 388.275200
   4447   4456   4458     1   109.5600471 388.275200
   4448   4447   4456     1   109.8000471 387.438400
   4448   4447   4449     1   107.5800459 329.699200
   4449   4447   4456     1   109.8000471 387.438400
   4450   4462   4463     1   109.5600471 388.275200
   4450   4462   4464     1   109.5600471 388.275200
   4451   4450   4462     1   109.8000471 387.438400
   4451   4450   4452     1   107.5800459 329.699200
   4452   4450   4462     1   109.8000471 387.438400
   4453   4459   4460     1   109.5600471 388.275200
   4453   4459   4461     1   109.5600471 388.275200
   4454   4453   4459     1   109.8000471 387.438400
   4454   4453   4455     1   107.5800459 329.699200
   4455   4453   4459     1   109.8000471 387.438400
   4457   4456   4465     1   109.7800468 425.094400
   4457   4456   4458     1   108.4600466 328.025600
   4458   4456   4465     1   109.7800468 425.094400
   4460   4459   8618     1   109.7800468 425.094400
   4460   4459   4461     1   108.4600466 328.025600
   4461   4459   8618     1   109.7800468 425.094400
   4463   4462   8641     1   109.7800468 425.094400
   4463   4462   4464     1   108.4600466 328.025600
   4464   4462   8641     1   109.7800468 425.094400
   4466   4467   4468     1   109.8800469 414.216000
   4466   4467   4469     1   109.8800469 414.216000
   4466   4470   4471     1   109.8800469 414.216000
   4466   4470   4472     1   109.8800469 414.216000
   4466   4473   4474     1   109.8800469 414.216000
   4466   4473   4475     1   109.8800469 414.216000
   4467   4479   4480     1   109.8000471 387.438400
   4467   4479   4481     1   109.8000471 387.438400
   4468   4467   4479     1   109.5600471 388.275200
   4468   4467   4469     1   108.4600466 328.025600
   4469   4467   4479     1   109.5600471 388.275200
   4470   4482   4483     1   109.8000471 387.438400
   4470   4482   4484     1   109.8000471 387.438400
   4471   4470   4482     1   109.5600471 388.275200
   4471   4470   4472     1   108.4600466 328.025600
   4472   4470   4482     1   109.5600471 388.275200
   4473   4476   4477     1   109.8000471 387.438400
   4473   4476   4478     1   109.8000471 387.438400
   4474   4473   4476     1   109.5600471 388.275200
   4474   4473   4475     1   108.4600466 328.025600
   4475   4473   4476     1   109.5600471 388.275200
   4476   4485   4486     1   109.5600471 388.275200
   4476   4485   4487     1   109.5600471 388.275200
   4477   4476   4485     1   109.8000471 387.438400
   4477   4476   4478     1   107.5800459 329.699200
   4478   4476   4485     1   109.8000471 387.438400
   4479   4491   4492     1   109.5600471 388.275200
   4479   4491   4493     1   109.5600471 388.275200
   4480   4479   4491     1   109.8000471 387.438400
   4480   4479   4481     1   107.5800459 329.699200
   4481   4479   4491     1   109.8000471 387.438400
   4482   4488   4489     1   109.5600471 388.275200
   4482   4488   4490     1   109.5600471 388.275200
   4483   4482   4488     1   109.8000471 387.438400
   4483   4482   4484     1   107.5800459 329.699200
   4484   4482   4488     1   109.8000471 387.438400
   4486   4485   4494     1   109.7800468 425.094400
   4486   4485   4487     1   108.4600466 328.025600
   4487   4485   4494     1   109.7800468 425.094400
   4489   4488   8664     1   109.7800468 425.094400
   4489   4488   4490     1   108.4600466 328.025600
   4490   4488   8664     1   109.7800468 425.094400
   4492   4491   8687     1   109.7800468 425.094400
   4492   4491   4493     1   108.4600466 328.025600
   4493   4491   8687     1   109.7800468 425.094400
   4495   4496   4497     1   109.8800469 414.216000
   4495   4496   4498     1   109.8800469 414.216000
   4495   4499   4500     1   109.8800469 414.216000
   4495   4499   4501     1   109.8800469 414.216000
   4495   4502   4503     1   109.8800469 414.216000
   4495   4502   4504     1   109.8800469 414.216000
   4496   4508   4509     1   109.8000471 387.438400
   4496   4508   4510     1   109.8000471 387.438400
   4497   4496   4508     1   109.5600471 388.275200
   4497   4496   4498     1   108.4600466 328.025600
   4498   4496   4508     1   109.5600471 388.275200
   4499   4511   4512     1   109.8000471 387.438400
   4499   4511   4513     1   109.8000471 387.438400
   4500   4499   4511     1   109.5600471 388.275200
   4500   4499   4501     1   108.4600466 328.025600
   4501   4499   4511     1   109.5600471 388.275200
   4502   4505   4506     1   109.8000471 387.438400
   4502   4505   4507     1   109.8000471 387.438400
   4503   4502   4505     1   109.5600471 388.275200
   4503   4502   4504     1   108.4600466 328.025600
   4504   4502   4505     1   109.5600471 388.275200
   4505   4514   4515     1   109.5600471 388.275200
   4505   4514   4516     1   109.5600471 388.275200
   4506   4505   4514     1   109.8000471 387.438400
   4506   4505   4507     1   107.5800459 329.699200
   4507   4505   4514     1   109.8000471 387.438400
   4508   4520   4521     1   109.5600471 388.275200
   4508   4520   4522     1   109.5600471 388.275200
   4509   4508   4520     1   109.8000471 387.438400
   4509   4508   4510     1   107.5800459 329.699200
   4510   4508   4520     1   109.8000471 387.438400
   4511   4517   4518     1   109.5600471 388.275200
   4511   4517   4519     1   109.5600471 388.275200
   4512   4511   4517     1   109.8000471 387.438400
   4512   4511   4513     1   107.5800459 329.699200
   4513   4511   4517     1   109.8000471 387.438400
   4515   4514   4523     1   109.7800468 425.094400
   4515   4514   4516     1   108.4600466 328.025600
   4516   4514   4523     1   109.7800468 425.094400
   4518   4517   8710     1   109.7800468 425.094400
   4518   4517   4519     1   108.4600466 328.025600
   4519   4517   8710     1   109.7800468 425.094400
   4521   4520   8733     1   109.7800468 425.094400
   4521   4520   4522     1   108.4600466 328.025600
   4522   4520   8733     1   109.7800468 425.094400
   4524   4525   4526     1   109.8800469 414.216000
   4524   4525   4527     1   109.8800469 414.216000
   4524   4528   4529     1   109.8800469 414.216000
   4524   4528   4530     1   109.8800469 414.216000
   4524   4531   4532     1   109.8800469 414.216000
   4524   4531   4533     1   109.8800469 414.216000
   4525   4537   4538     1   109.8000471 387.438400
   4525   4537   4539     1   109.8000471 387.438400
   4526   4525   4537     1   109.5600471 388.275200
   4526   4525   4527     1   108.4600466 328.025600
   4527   4525   4537     1   109.5600471 388.275200
   4528   4540   4541     1   109.8000471 387.438400
   4528   4540   4542     1   109.8000471 387.438400
   4529   4528   4540     1   109.5600471 388.275200
   4529   4528   4530     1   108.4600466 328.025600
   4530   4528   4540     1   109.5600471 388.275200
   4531   4534   4535     1   109.8000471 387.438400
   4531   4534   4536     1   109.8000471 387.438400
   4532   4531   4534     1   109.5600471 388.275200
   4532   4531   4533     1   108.4600466 328.025600
   4533   4531   4534     1   109.5600471 388.275200
   4534   4543   4544     1   109.5600471 388.275200
   4534   4543   4545     1   109.5600471 388.275200
   4535   4534   4543     1   109.8000471 387.438400
   4535   4534   4536     1   107.5800459 329.699200
   4536   4534   4543     1   109.8000471 387.438400
   4537   4549   4550     1   109.5600471 388.275200
   4537   4549   4551     1   109.5600471 388.275200
   4538   4537   4549     1   109.8000471 387.438400
   4538   4537   4539     1   107.5800459 329.699200
   4539   4537   4549     1   109.8000471 387.438400
   4540   4546   4547     1   109.5600471 388.275200
   4540   4546   4548     1   109.5600471 388.275200
   4541   4540   4546     1   109.8000471 387.438400
   4541   4540   4542     1   107.5800459 329.699200
   4542   4540   4546     1   109.8000471 387.438400
   4544   4543   4552     1   109.7800468 425.094400
   4544   4543   4545     1   108.4600466 328.025600
   4545   4543   4552     1   109.7800468 425.094400
   4547   4546   8756     1   109.7800468 425.094400
   4547   4546   4548     1   108.4600466 328.025600
   4548   4546   8756     1   109.7800468 425.094400
   4550   4549   8779     1   109.7800468 425.094400
   4550   4549   4551     1   108.4600466 328.025600
   4551   4549   8779     1   109.7800468 425.094400
   4553   4554   4555     1   109.8800469 414.216000
   4553   4554   4556     1   109.8800469 414.216000
   4553   4557   4558     1   109.8800469 414.216000
   4553   4557   4559     1   109.8800469 414.216000
   4553   4560   4561     1   109.8800469 414.216000
   4553   4560   4562     1   109.8800469 414.216000
   4554   4566   4567     1   109.8000471 387.438400
   4554   4566   4568     1   109.8000471 387.438400
   4555   4554   4566     1   109.5600471 388.275200
   4555   4554   4556     1   108.4600466 328.025600
   4556   4554   4566     1   109.5600471 388.275200
   4557   4569   4570     1   109.8000471 387.438400
   4557   4569   4571     1   109.8000471 387.438400
   4558   4557   4569     1   109.5600471 388.275200
   4558   4557   4559     1   108.4600466 328.025600
   4559   4557   4569     1   109.5600471 388.275200
   4560   4563   4564     1   109.8000471 387.438400
   4560   4563   4565     1   109.8000471 387.438400
   4561   4560   4563     1   109.5600471 388.275200
   4561   4560   4562     1   108.4600466 328.025600
   4562   4560   4563     1   109.5600471 388.275200
   4563   4572   4573     1   109.5600471 388.275200
   4563   4572   4574     1   109.5600471 388.275200
   4564   4563   4572     1   109.8000471 387.438400
   4564   4563   4565     1   107.5800459 329.699200
   4565   4563   4572     1   109.8000471 387.438400
   4566   4578   4579     1   109.5600471 388.275200
   4566   4578   4580     1   109.5600471 388.275200
   4567   4566   4578     1   109.8000471 387.438400
   4567   4566   4568     1   107.5800459 329.699200
   4568   4566   4578     1   109.8000471 387.438400
   4569   4575   4576     1   109.5600471 388.275200
   4569   4575   4577     1   109.5600471 388.275200
   4570   4569   4575     1   109.8000471 387.438400
   4570   4569   4571     1   107.5800459 329.699200
   4571   4569   4575     1   109.8000471 387.438400
   4573   4572   4581     1   109.7800468 425.094400
   4573   4572   4574     1   108.4600466 328.025600
   4574   4572   4581     1   109.7800468 425.094400
   4576   4575   8802     1   109.7800468 425.094400
   4576   4575   4577     1   108.4600466 328.025600
   4577   4575   8802     1   109.7800468 425.094400
   4579   4578   8825     1   109.7800468 425.094400
   4579   4578   4580     1   108.4600466 328.025600
   4580   4578   8825     1   109.7800468 425.094400
   4582   4583   4584     1   109.8800469 414.216000
   4582   4583   4585     1   109.8800469 414.216000
   4582   4586   4587     1   109.8800469 414.216000
   4582   4586   4588     1   109.8800469 414.216000
   4582   4589   4590     1   109.8800469 414.216000
   4582   4589   4591     1   109.8800469 414.216000
   4583   4595   4596     1   109.8000471 387.438400
   4583   4595   4597     1   109.8000471 387.438400
   4584   4583   4595     1   109.5600471 388.275200
   4584   4583   4585     1   108.4600466 328.025600
   4585   4583   4595     1   109.5600471 388.275200
   4586   4598   4599     1   109.8000471 387.438400
   4586   4598   4600     1   109.8000471 387.438400
   4587   4586   4598     1   109.5600471 388.275200
   4587   4586   4588     1   108.4600466 328.025600
   4588   4586   4598     1   109.5600471 388.275200
   4589   4592   4593     1   109.8000471 387.438400
   4589   4592   4594     1   109.8000471 387.438400
   4590   4589   4592     1   109.5600471 388.275200
   4590   4589   4591     1   108.4600466 328.025600
   4591   4589   4592     1   109.5600471 388.275200
   4592   4601   4602     1   109.5600471 388.275200
   4592   4601   4603     1   109.5600471 388.275200
   4593   4592   4601     1   109.8000471 387.438400
   4593   4592   4594     1   107.5800459 329.699200
   4594   4592   4601     1   109.8000471 387.438400
   4595   4607   4608     1   109.5600471 388.275200
   4595   4607   4609     1   109.5600471 388.275200
   4596   4595   4607     1   109.8000471 387.438400
   4596   4595   4597     1   107.5800459 329.699200
   4597   4595   4607     1   109.8000471 387.438400
   4598   4604   4605     1   109.5600471 388.275200
   4598   4604   4606     1   109.5600471 388.275200
   4599   4598   4604     1   109.8000471 387.438400
   4599   4598   4600     1   107.5800459 329.699200
   4600   4598   4604     1   109.8000471 387.438400
   4602   4601   4610     1   109.7800468 425.094400
   4602   4601   4603     1   108.4600466 328.025600
   4603   4601   4610     1   109.7800468 425.094400
   4605   4604   8848     1   109.7800468 425.094400
   4605   4604   4606     1   108.4600466 328.025600
   4606   4604   8848     1   109.7800468 425.094400
   4608   4607   8871     1   109.7800468 425.094400
   4608   4607   4609     1   108.4600466 328.025600
   4609   4607   8871     1   109.7800468 425.094400
   4611   4612   4613     1   109.8800469 414.216000
   4611   4612   4614     1   109.8800469 414.216000
   4611   4615   4616     1   109.8800469 414.216000
   4611   4615   4617     1   109.8800469 414.216000
   4611   4618   4619     1   109.8800469 414.216000
   4611   4618   4620     1   109.8800469 414.216000
   4612   4624   4625     1   109.8000471 387.438400
   4612   4624   4626     1   109.8000471 387.438400
   4613   4612   4624     1   109.5600471 388.275200
   4613   4612   4614     1   108.4600466 328.025600
   4614   4612   4624     1   109.5600471 388.275200
   4615   4627   4628     1   109.8000471 387.438400
   4615   4627   4629     1   109.8000471 387.438400
   4616   4615   4627     1   109.5600471 388.275200
   4616   4615   4617     1   108.4600466 328.025600
   4617   4615   4627     1   109.5600471 388.275200
   4618   4621   4622     1   109.8000471 387.438400
   4618   4621   4623     1   109.8000471 387.438400
   4619   4618   4621     1   109.5600471 388.275200
   4619   4618   4620     1   108.4600466 328.025600
   4620   4618   4621     1   109.5600471 388.275200
   4621   4630   4631     1   109.5600471 388.275200
   4621   4630   4632     1   109.5600471 388.275200
   4622   4621   4630     1   109.8000471 387.438400
   4622   4621   4623     1   107.5800459 329.699200
   4623   4621   4630     1   109.8000471 387.438400
   4624   4636   4637     1   109.5600471 388.275200
   4624   4636   4638     1   109.5600471 388.275200
   4625   4624   4636     1   109.8000471 387.438400
   4625   4624   4626     1   107.5800459 329.699200
   4626   4624   4636     1   109.8000471 387.438400
   4627   4633   4634     1   109.5600471 388.275200
   4627   4633   4635     1   109.5600471 388.275200
   4628   4627   4633     1   109.8000471 387.438400
   4628   4627   4629     1   107.5800459 329.699200
   4629   4627   4633     1   109.8000471 387.438400
   4631   4630   4639     1   109.7800468 425.094400
   4631   4630   4632     1   108.4600466 328.025600
   4632   4630   4639     1   109.7800468 425.094400
   4634   4633   8894     1   109.7800468 425.094400
   4634   4633   4635     1   108.4600466 328.025600
   4635   4633   8894     1   109.7800468 425.094400
   4637   4636   8917     1   109.7800468 425.094400
   4637   4636   4638     1   108.4600466 328.025600
   4638   4636   8917     1   109.7800468 425.094400
   4640   4641   4642     1   109.8800469 414.216000
   4640   4641   4643     1   109.8800469 414.216000
   4640   4644   4645     1   109.8800469 414.216000
   4640   4644   4646     1   109.8800469 414.216000
   4640   4647   4648     1   109.8800469 414.216000
   4640   4647   4649     1   109.8800469 414.216000
   4641   4653   4654     1   109.8000471 387.438400
   4641   4653   4655     1   109.8000471 387.438400
   4642   4641   4653     1   109.5600471 388.275200
   4642   4641   4643     1   108.4600466 328.025600
   4643   4641   4653     1   109.5600471 388.275200
   4644   4656   4657     1   109.8000471 387.438400
   4644   4656   4658     1   109.8000471 387.438400
   4645   4644   4656     1   109.5600471 388.275200
   4645   4644   4646     1   108.4600466 328.025600
   4646   4644   4656     1   109.5600471 388.275200
   4647   4650   4651     1   109.8000471 387.438400
   4647   4650   4652     1   109.8000471 387.438400
   4648   4647   4650     1   109.5600471 388.275200
   4648   4647   4649     1   108.4600466 328.025600
   4649   4647   4650     1   109.5600471 388.275200
   4650   4659   4660     1   109.5600471 388.275200
   4650   4659   4661     1   109.5600471 388.275200
   4651   4650   4659     1   109.8000471 387.438400
   4651   4650   4652     1   107.5800459 329.699200
   4652   4650   4659     1   109.8000471 387.438400
   4653   4665   4666     1   109.5600471 388.275200
   4653   4665   4667     1   109.5600471 388.275200
   4654   4653   4665     1   109.8000471 387.438400
   4654   4653   4655     1   107.5800459 329.699200
   4655   4653   4665     1   109.8000471 387.438400
   4656   4662   4663     1   109.5600471 388.275200
   4656   4662   4664     1   109.5600471 388.275200
   4657   4656   4662     1   109.8000471 387.438400
   4657   4656   4658     1   107.5800459 329.699200
   4658   4656   4662     1   109.8000471 387.438400
   4660   4659   4668     1   109.7800468 425.094400
   4660   4659   4661     1   108.4600466 328.025600
   4661   4659   4668     1   109.7800468 425.094400
   4663   4662   8940     1   109.7800468 425.094400
   4663   4662   4664     1   108.4600466 328.025600
   4664   4662   8940     1   109.7800468 425.094400
   4666   4665   8963     1   109.7800468 425.094400
   4666   4665   4667     1   108.4600466 328.025600
   4667   4665   8963     1   109.7800468 425.094400
   4669   4670   4671     1   109.8800469 414.216000
   4669   4670   4672     1   109.8800469 414.216000
   4669   4673   4674     1   109.8800469 414.216000
   4669   4673   4675     1   109.8800469 414.216000
   4669   4676   4677     1   109.8800469 414.216000
   4669   4676   4678     1   109.8800469 414.216000
   4670   4682   4683     1   109.8000471 387.438400
   4670   4682   4684     1   109.8000471 387.438400
   4671   4670   4682     1   109.5600471 388.275200
   4671   4670   4672     1   108.4600466 328.025600
   4672   4670   4682     1   109.5600471 388.275200
   4673   4685   4686     1   109.8000471 387.438400
   4673   4685   4687     1   109.8000471 387.438400
   4674   4673   4685     1   109.5600471 388.275200
   4674   4673   4675     1   108.4600466 328.025600
   4675   4673   4685     1   109.5600471 388.275200
   4676   4679   4680     1   109.8000471 387.438400
   4676   4679   4681     1   109.8000471 387.438400
   4677   4676   4679     1   109.5600471 388.275200
   4677   4676   4678     1   108.4600466 328.025600
   4678   4676   4679     1   109.5600471 388.275200
   4679   4688   4689     1   109.5600471 388.275200
   4679   4688   4690     1   109.5600471 388.275200
   4680   4679   4688     1   109.8000471 387.438400
   4680   4679   4681     1   107.5800459 329.699200
   4681   4679   4688     1   109.8000471 387.438400
   4682   4694   4695     1   109.5600471 388.275200
   4682   4694   4696     1   109.5600471 388.275200
   4683   4682   4694     1   109.8000471 387.438400
   4683   4682   4684     1   107.5800459 329.699200
   4684   4682   4694     1   109.8000471 387.438400
   4685   4691   4692     1   109.5600471 388.275200
   4685   4691   4693     1   109.5600471 388.275200
   4686   4685   4691     1   109.8000471 387.438400
   4686   4685   4687     1   107.5800459 329.699200
   4687   4685   4691     1   109.8000471 387.438400
   4689   4688   4697     1   109.7800468 425.094400
   4689   4688   4690     1   108.4600466 328.025600
   4690   4688   4697     1   109.7800468 425.094400
   4692   4691   8986     1   109.7800468 425.094400
   4692   4691   4693     1   108.4600466 328.025600
   4693   4691   8986     1   109.7800468 425.094400
   4695   4694   9009     1   109.7800468 425.094400
   4695   4694   4696     1   108.4600466 328.025600
   4696   4694   9009     1   109.7800468 425.094400
   4698   4699   4700     1   109.8800469 414.216000
   4698   4699   4701     1   109.8800469 414.216000
   4698   4702   4703     1   109.8800469 414.216000
   4698   4702   4704     1   109.8800469 414.216000
   4698   4705   4706     1   109.8800469 414.216000
   4698   4705   4707     1   109.8800469 414.216000
   4699   4711   4712     1   109.8000471 387.438400
   4699   4711   4713     1   109.8000471 387.438400
   4700   4699   4711     1   109.5600471 388.275200
   4700   4699   4701     1   108.4600466 328.025600
   4701   4699   4711     1   109.5600471 388.275200
   4702   4714   4715     1   109.8000471 387.438400
   4702   4714   4716     1   109.8000471 387.438400
   4703   4702   4714     1   109.5600471 388.275200
   4703   4702   4704     1   108.4600466 328.025600
   4704   4702   4714     1   109.5600471 388.275200
   4705   4708   4709     1   109.8000471 387.438400
   4705   4708   4710     1   109.8000471 387.438400
   4706   4705   4708     1   109.5600471 388.275200
   4706   4705   4707     1   108.4600466 328.025600
   4707   4705   4708     1   109.5600471 388.275200
   4708   4717   4718     1   109.5600471 388.275200
   4708   4717   4719     1   109.5600471 388.275200
   4709   4708   4717     1   109.8000471 387.438400
   4709   4708   4710     1   107.5800459 329.699200
   4710   4708   4717     1   109.8000471 387.438400
   4711   4723   4724     1   109.5600471 388.275200
   4711   4723   4725     1   109.5600471 388.275200
   4712   4711   4723     1   109.8000471 387.438400
   4712   4711   4713     1   107.5800459 329.699200
   4713   4711   4723     1   109.8000471 387.438400
   4714   4720   4721     1   109.5600471 388.275200
   4714   4720   4722     1   109.5600471 388.275200
   4715   4714   4720     1   109.8000471 387.438400
   4715   4714   4716     1   107.5800459 329.699200
   4716   4714   4720     1   109.8000471 387.438400
   4718   4717   4726     1   109.7800468 425.094400
   4718   4717   4719     1   108.4600466 328.025600
   4719   4717   4726     1   109.7800468 425.094400
   4721   4720   9032     1   109.7800468 425.094400
   4721   4720   4722     1   108.4600466 328.025600
   4722   4720   9032     1   109.7800468 425.094400
   4724   4723   9055     1   109.7800468 425.094400
   4724   4723   4725     1   108.4600466 328.025600
   4725   4723   9055     1   109.7800468 425.094400
   4727   4728   4729     1   109.8800469 414.216000
   4727   4728   4730     1   109.8800469 414.216000
   4727   4731   4732     1   109.8800469 414.216000
   4727   4731   4733     1   109.8800469 414.216000
   4727   4734   4735     1   109.8800469 414.216000
   4727   4734   4736     1   109.8800469 414.216000
   4728   4740   4741     1   109.8000471 387.438400
   4728   4740   4742     1   109.8000471 387.438400
   4729   4728   4740     1   109.5600471 388.275200
   4729   4728   4730     1   108.4600466 328.025600
   4730   4728   4740     1   109.5600471 388.275200
   4731   4743   4744     1   109.8000471 387.438400
   4731   4743   4745     1   109.8000471 387.438400
   4732   4731   4743     1   109.5600471 388.275200
   4732   4731   4733     1   108.4600466 328.025600
   4733   4731   4743     1   109.5600471 388.275200
   4734   4737   4738     1   109.8000471 387.438400
   4734   4737   4739     1   109.8000471 387.438400
   4735   4734   4737     1   109.5600471 388.275200
   4735   4734   4736     1   108.4600466 328.025600
   4736   4734   4737     1   109.5600471 388.275200
   4737   4746   4747     1   109.5600471 388.275200
   4737   4746   4748     1   109.5600471 388.275200
   4738   4737   4746     1   109.8000471 387.438400
   4738   4737   4739     1   107.5800459 329.699200
   4739   4737   4746     1   109.8000471 387.438400
   4740   4752   4753     1   109.5600471 388.275200
   4740   4752   4754     1   109.5600471 388.275200
   4741   4740   4752     1   109.8000471 387.438400
   4741   4740   4742     1   107.5800459 329.699200
   4742   4740   4752     1   109.8000471 387.438400
   4743   4749   4750     1   109.5600471 388.275200
   4743   4749   4751     1   109.5600471 388.275200
   4744   4743   4749     1   109.8000471 387.438400
   4744   4743   4745     1   107.5800459 329.699200
   4745   4743   4749     1   109.8000471 387.438400
   4747   4746   4755     1   109.7800468 425.094400
   4747   4746   4748     1   108.4600466 328.025600
   4748   4746   4755     1   109.7800468 425.094400
   4750   4749   9078     1   109.7800468 425.094400
   4750   4749   4751     1   108.4600466 328.025600
   4751   4749   9078     1   109.7800468 425.094400
   4753   4752   9101     1   109.7800468 425.094400
   4753   4752   4754     1   108.4600466 328.025600
   4754   4752   9101     1   109.7800468 425.094400
   4756   4757   4758     1   109.8800469 414.216000
   4756   4757   4759     1   109.8800469 414.216000
   4756   4760   4761     1   109.8800469 414.216000
   4756   4760   4762     1   109.8800469 414.216000
   4756   4763   4764     1   109.8800469 414.216000
   4756   4763   4765     1   109.8800469 414.216000
   4757   4769   4770     1   109.8000471 387.438400
   4757   4769   4771     1   109.8000471 387.438400
   4758   4757   4769     1   109.5600471 388.275200
   4758   4757   4759     1   108.4600466 328.025600
   4759   4757   4769     1   109.5600471 388.275200
   4760   4772   4773     1   109.8000471 387.438400
   4760   4772   4774     1   109.8000471 387.438400
   4761   4760   4772     1   109.5600471 388.275200
   4761   4760   4762     1   108.4600466 328.025600
   4762   4760   4772     1   109.5600471 388.275200
   4763   4766   4767     1   109.8000471 387.438400
   4763   4766   4768     1   109.8000471 387.438400
   4764   4763   4766     1   109.5600471 388.275200
   4764   4763   4765     1   108.4600466 328.025600
   4765   4763   4766     1   109.5600471 388.275200
   4766   4775   4776     1   109.5600471 388.275200
   4766   4775   4777     1   109.5600471 388.275200
   4767   4766   4775     1   109.8000471 387.438400
   4767   4766   4768     1   107.5800459 329.699200
   4768   4766   4775     1   109.8000471 387.438400
   4769   4781   4782     1   109.5600471 388.275200
   4769   4781   4783     1   109.5600471 388.275200
   4770   4769   4781     1   109.8000471 387.438400
   4770   4769   4771     1   107.5800459 329.699200
   4771   4769   4781     1   109.8000471 387.438400
   4772   4778   4779     1   109.5600471 388.275200
   4772   4778   4780     1   109.5600471 388.275200
   4773   4772   4778     1   109.8000471 387.438400
   4773   4772   4774     1   107.5800459 329.699200
   4774   4772   4778     1   109.8000471 387.438400
   4776   4775   4784     1   109.7800468 425.094400
   4776   4775   4777     1   108.4600466 328.025600
   4777   4775   4784     1   109.7800468 425.094400
   4779   4778   9124     1   109.7800468 425.094400
   4779   4778   4780     1   108.4600466 328.025600
   4780   4778   9124     1   109.7800468 425.094400
   4782   4781   9147     1   109.7800468 425.094400
   4782   4781   4783     1   108.4600466 328.025600
   4783   4781   9147     1   109.7800468 425.094400
   4785   4786   4787     1   109.8800469 414.216000
   4785   4786   4788     1   109.8800469 414.216000
   4785   4789   4790     1   109.8800469 414.216000
   4785   4789   4791     1   109.8800469 414.216000
   4785   4792   4793     1   109.8800469 414.216000
   4785   4792   4794     1   109.8800469 414.216000
   4786   4798   4799     1   109.8000471 387.438400
   4786   4798   4800     1   109.8000471 387.438400
   4787   4786   4798     1   109.5600471 388.275200
   4787   4786   4788     1   108.4600466 328.025600
   4788   4786   4798     1   109.5600471 388.275200
   4789   4801   4802     1   109.8000471 387.438400
   4789   4801   4803     1   109.8000471 387.438400
   4790   4789   4801     1   109.5600471 388.275200
   4790   4789   4791     1   108.4600466 328.025600
   4791   4789   4801     1   109.5600471 388.275200
   4792   4795   4796     1   109.8000471 387.438400
   4792   4795   4797     1   109.8000471 387.438400
   4793   4792   4795     1   109.5600471 388.275200
   4793   4792   4794     1   108.4600466 328.025600
   4794   4792   4795     1   109.5600471 388.275200
   4795   4804   4805     1   109.5600471 388.275200
   4795   4804   4806     1   109.5600471 388.275200
   4796   4795   4804     1   109.8000471 387.438400
   4796   4795   4797     1   107.5800459 329.699200
   4797   4795   4804     1   109.8000471 387.438400
   4798   4810   4811     1   109.5600471 388.275200
   4798   4810   4812     1   109.5600471 388.275200
   4799   4798   4810     1   109.8000471 387.438400
   4799   4798   4800     1   107.5800459 329.699200
   4800   4798   4810     1   109.8000471 387.438400
   4801   4807   4808     1   109.5600471 388.275200
   4801   4807   4809     1   109.5600471 388.275200
   4802   4801   4807     1   109.8000471 387.438400
   4802   4801   4803     1   107.5800459 329.699200
   4803   4801   4807     1   109.8000471 387.438400
   4805   4804   4813     1   109.7800468 425.094400
   4805   4804   4806     1   108.4600466 328.025600
   4806   4804   4813     1   109.7800468 425.094400
   4808   4807   9170     1   109.7800468 425.094400
   4808   4807   4809     1   108.4600466 328.025600
   4809   4807   9170     1   109.7800468 425.094400
   4811   4810   9193     1   109.7800468 425.094400
   4811   4810   4812     1   108.4600466 328.025600
   4812   4810   9193     1   109.7800468 425.094400
   4814   4815   4816     1   109.8800469 414.216000
   4814   4815   4817     1   109.8800469 414.216000
   4814   4818   4819     1   109.8800469 414.216000
   4814   4818   4820     1   109.8800469 414.216000
   4814   4821   4822     1   109.8800469 414.216000
   4814   4821   4823     1   109.8800469 414.216000
   4815   4827   4828     1   109.8000471 387.438400
   4815   4827   4829     1   109.8000471 387.438400
   4816   4815   4827     1   109.5600471 388.275200
   4816   4815   4817     1   108.4600466 328.025600
   4817   4815   4827     1   109.5600471 388.275200
   4818   4830   4831     1   109.8000471 387.438400
   4818   4830   4832     1   109.8000471 387.438400
   4819   4818   4830     1   109.5600471 388.275200
   4819   4818   4820     1   108.4600466 328.025600
   4820   4818   4830     1   109.5600471 388.275200
   4821   4824   4825     1   109.8000471 387.438400
   4821   4824   4826     1   109.8000471 387.438400
   4822   4821   4824     1   109.5600471 388.275200
   4822   4821   4823     1   108.4600466 328.025600
   4823   4821   4824     1   109.5600471 388.275200
   4824   4833   4834     1   109.5600471 388.275200
   4824   4833   4835     1   109.5600471 388.275200
   4825   4824   4833     1   109.8000471 387.438400
   4825   4824   4826     1   107.5800459 329.699200
   4826   4824   4833     1   109.8000471 387.438400
   4827   4839   4840     1   109.5600471 388.275200
   4827   4839   4841     1   109.5600471 388.275200
   4828   4827   4839     1   109.8000471 387.438400
   4828   4827   4829     1   107.5800459 329.699200
   4829   4827   4839     1   109.8000471 387.438400
   4830   4836   4837     1   109.5600471 388.275200
   4830   4836   4838     1   109.5600471 388.275200
   4831   4830   4836     1   109.8000471 387.438400
   4831   4830   4832     1   107.5800459 329.699200
   4832   4830   4836     1   109.8000471 387.438400
   4834   4833   4842     1   109.7800468 425.094400
   4834   4833   4835     1   108.4600466 328.025600
   4835   4833   4842     1   109.7800468 425.094400
   4837   4836   9216     1   109.7800468 425.094400
   4837   4836   4838     1   108.4600466 328.025600
   4838   4836   9216     1   109.7800468 425.094400
   4840   4839   9239     1   109.7800468 425.094400
   4840   4839   4841     1   108.4600466 328.025600
   4841   4839   9239     1   109.7800468 425.094400
   4843   4844   4845     1   109.8800469 414.216000
   4843   4844   4846     1   109.8800469 414.216000
   4843   4847   4848     1   109.8800469 414.216000
   4843   4847   4849     1   109.8800469 414.216000
   4843   4850   4851     1   109.8800469 414.216000
   4843   4850   4852     1   109.8800469 414.216000
   4844   4856   4857     1   109.8000471 387.438400
   4844   4856   4858     1   109.8000471 387.438400
   4845   4844   4856     1   109.5600471 388.275200
   4845   4844   4846     1   108.4600466 328.025600
   4846   4844   4856     1   109.5600471 388.275200
   4847   4859   4860     1   109.8000471 387.438400
   4847   4859   4861     1   109.8000471 387.438400
   4848   4847   4859     1   109.5600471 388.275200
   4848   4847   4849     1   108.4600466 328.025600
   4849   4847   4859     1   109.5600471 388.275200
   4850   4853   4854     1   109.8000471 387.438400
   4850   4853   4855     1   109.8000471 387.438400
   4851   4850   4853     1   109.5600471 388.275200
   4851   4850   4852     1   108.4600466 328.025600
   4852   4850   4853     1   109.5600471 388.275200
   4853   4862   4863     1   109.5600471 388.275200
   4853   4862   4864     1   109.5600471 388.275200
   4854   4853   4862     1   109.8000471 387.438400
   4854   4853   4855     1   107.5800459 329.699200
   4855   4853   4862     1   109.8000471 387.438400
   4856   4868   4869     1   109.5600471 388.275200
   4856   4868   4870     1   109.5600471 388.275200
   4857   4856   4868     1   109.8000471 387.438400
   4857   4856   4858     1   107.5800459 329.699200
   4858   4856   4868     1   109.8000471 387.438400
   4859   4865   4866     1   109.5600471 388.275200
   4859   4865   4867     1   109.5600471 388.275200
   4860   4859   4865     1   109.8000471 387.438400
   4860   4859   4861     1   107.5800459 329.699200
   4861   4859   4865     1   109.8000471 387.438400
   4863   4862   4871     1   109.7800468 425.094400
   4863   4862   4864     1   108.4600466 328.025600
   4864   4862   4871     1   109.7800468 425.094400
   4866   4865   9262     1   109.7800468 425.094400
   4866   4865   4867     1   108.4600466 328.025600
   4867   4865   9262     1   109.7800468 425.094400
   4869   4868   9285     1   109.7800468 425.094400
   4869   4868   4870     1   108.4600466 328.025600
   4870   4868   9285     1   109.7800468 425.094400
   4872   4873   4874     1   109.8800469 414.216000
   4872   4873   4875     1   109.8800469 414.216000
   4872   4876   4877     1   109.8800469 414.216000
   4872   4876   4878     1   109.8800469 414.216000
   4872   4879   4880     1   109.8800469 414.216000
   4872   4879   4881     1   109.8800469 414.216000
   4873   4885   4886     1   109.8000471 387.438400
   4873   4885   4887     1   109.8000471 387.438400
   4874   4873   4885     1   109.5600471 388.275200
   4874   4873   4875     1   108.4600466 328.025600
   4875   4873   4885     1   109.5600471 388.275200
   4876   4888   4889     1   109.8000471 387.438400
   4876   4888   4890     1   109.8000471 387.438400
   4877   4876   4888     1   109.5600471 388.275200
   4877   4876   4878     1   108.4600466 328.025600
   4878   4876   4888     1   109.5600471 388.275200
   4879   4882   4883     1   109.8000471 387.438400
   4879   4882   4884     1   109.8000471 387.438400
   4880   4879   4882     1   109.5600471 388.275200
   4880   4879   4881     1   108.4600466 328.025600
   4881   4879   4882     1   109.5600471 388.275200
   4882   4891   4892     1   109.5600471 388.275200
   4882   4891   4893     1   109.5600471 388.275200
   4883   4882   4891     1   109.8000471 387.438400
   4883   4882   4884     1   107.5800459 329.699200
   4884   4882   4891     1   109.8000471 387.438400
   4885   4897   4898     1   109.5600471 388.275200
   4885   4897   4899     1   109.5600471 388.275200
   4886   4885   4897     1   109.8000471 387.438400
   4886   4885   4887     1   107.5800459 329.699200
   4887   4885   4897     1   109.8000471 387.438400
   4888   4894   4895     1   109.5600471 388.275200
   4888   4894   4896     1   109.5600471 388.275200
   4889   4888   4894     1   109.8000471 387.438400
   4889   4888   4890     1   107.5800459 329.699200
   4890   4888   4894     1   109.8000471 387.438400
   4892   4891   4900     1   109.7800468 425.094400
   4892   4891   4893     1   108.4600466 328.025600
   4893   4891   4900     1   109.7800468 425.094400
   4895   4894   9308     1   109.7800468 425.094400
   4895   4894   4896     1   108.4600466 328.025600
   4896   4894   9308     1   109.7800468 425.094400
   4898   4897   9331     1   109.7800468 425.094400
   4898   4897   4899     1   108.4600466 328.025600
   4899   4897   9331     1   109.7800468 425.094400
   4901   4902   4903     1   109.8800469 414.216000
   4901   4902   4904     1   109.8800469 414.216000
   4901   4905   4906     1   109.8800469 414.216000
   4901   4905   4907     1   109.8800469 414.216000
   4901   4908   4909     1   109.8800469 414.216000
   4901   4908   4910     1   109.8800469 414.216000
   4902   4914   4915     1   109.8000471 387.438400
   4902   4914   4916     1   109.8000471 387.438400
   4903   4902   4914     1   109.5600471 388.275200
   4903   4902   4904     1   108.4600466 328.025600
   4904   4902   4914     1   109.5600471 388.275200
   4905   4917   4918     1   109.8000471 387.438400
   4905   4917   4919     1   109.8000471 387.438400
   4906   4905   4917     1   109.5600471 388.275200
   4906   4905   4907     1   108.4600466 328.025600
   4907   4905   4917     1   109.5600471 388.275200
   4908   4911   4912     1   109.8000471 387.438400
   4908   4911   4913     1   109.8000471 387.438400
   4909   4908   4911     1   109.5600471 388.275200
   4909   4908   4910     1   108.4600466 328.025600
   4910   4908   4911     1   109.5600471 388.275200
   4911   4920   4921     1   109.5600471 388.275200
   4911   4920   4922     1   109.5600471 388.275200
   4912   4911   4920     1   109.8000471 387.438400
   4912   4911   4913     1   107.5800459 329.699200
   4913   4911   4920     1   109.8000471 387.438400
   4914   4926   4927     1   109.5600471 388.275200
   4914   4926   4928     1   109.5600471 388.275200
   4915   4914   4926     1   109.8000471 387.438400
   4915   4914   4916     1   107.5800459 329.699200
   4916   4914   4926     1   109.8000471 387.438400
   4917   4923   4924     1   109.5600471 388.275200
   4917   4923   4925     1   109.5600471 388.275200
   4918   4917   4923     1   109.8000471 387.438400
   4918   4917   4919     1   107.5800459 329.699200
   4919   4917   4923     1   109.8000471 387.438400
   4921   4920   4929     1   109.7800468 425.094400
   4921   4920   4922     1   108.4600466 328.025600
   4922   4920   4929     1   109.7800468 425.094400
   4924   4923   9354     1   109.7800468 425.094400
   4924   4923   4925     1   108.4600466 328.025600
   4925   4923   9354     1   109.7800468 425.094400
   4927   4926   9377     1   109.7800468 425.094400
   4927   4926   4928     1   108.4600466 328.025600
   4928   4926   9377     1   109.7800468 425.094400
   4930   4931   4932     1   109.8800469 414.216000
   4930   4931   4933     1   109.8800469 414.216000
   4930   4934   4935     1   109.8800469 414.216000
   4930   4934   4936     1   109.8800469 414.216000
   4930   4937   4938     1   109.8800469 414.216000
   4930   4937   4939     1   109.8800469 414.216000
   4931   4943   4944     1   109.8000471 387.438400
   4931   4943   4945     1   109.8000471 387.438400
   4932   4931   4943     1   109.5600471 388.275200
   4932   4931   4933     1   108.4600466 328.025600
   4933   4931   4943     1   109.5600471 388.275200
   4934   4946   4947     1   109.8000471 387.438400
   4934   4946   4948     1   109.8000471 387.438400
   4935   4934   4946     1   109.5600471 388.275200
   4935   4934   4936     1   108.4600466 328.025600
   4936   4934   4946     1   109.5600471 388.275200
   4937   4940   4941     1   109.8000471 387.438400
   4937   4940   4942     1   109.8000471 387.438400
   4938   4937   4940     1   109.5600471 388.275200
   4938   4937   4939     1   108.4600466 328.025600
   4939   4937   4940     1   109.5600471 388.275200
   4940   4949   4950     1   109.5600471 388.275200
   4940   4949   4951     1   109.5600471 388.275200
   4941   4940   4949     1   109.8000471 387.438400
   4941   4940   4942     1   107.5800459 329.699200
   4942   4940   4949     1   109.8000471 387.438400
   4943   4955   4956     1   109.5600471 388.275200
   4943   4955   4957     1   109.5600471 388.275200
   4944   4943   4955     1   109.8000471 387.438400
   4944   4943   4945     1   107.5800459 329.699200
   4945   4943   4955     1   109.8000471 387.438400
   4946   4952   4953     1   109.5600471 388.275200
   4946   4952   4954     1   109.5600471 388.275200
   4947   4946   4952     1   109.8000471 387.438400
   4947   4946   4948     1   107.5800459 329.699200
   4948   4946   4952     1   109.8000471 387.438400
   4950   4949   4958     1   109.7800468 425.094400
   4950   4949   4951     1   108.4600466 328.025600
   4951   4949   4958     1   109.7800468 425.094400
   4953   4952   9400     1   109.7800468 425.094400
   4953   4952   4954     1   108.4600466 328.025600
   4954   4952   9400     1   109.7800468 425.094400
   4956   4955   9423     1   109.7800468 425.094400
   4956   4955   4957     1   108.4600466 328.025600
   4957   4955   9423     1   109.7800468 425.094400
   4959   4960   4961     1   109.8800469 414.216000
   4959   4960   4962     1   109.8800469 414.216000
   4959   4963   4964     1   109.8800469 414.216000
   4959   4963   4965     1   109.8800469 414.216000
   4959   4966   4967     1   109.8800469 414.216000
   4959   4966   4968     1   109.8800469 414.216000
   4960   4972   4973     1   109.8000471 387.438400
   4960   4972   4974     1   109.8000471 387.438400
   4961   4960   4972     1   109.5600471 388.275200
   4961   4960   4962     1   108.4600466 328.025600
   4962   4960   4972     1   109.5600471 388.275200
   4963   4975   4976     1   109.8000471 387.438400
   4963   4975   4977     1   109.8000471 387.438400
   4964   4963   4975     1   109.5600471 388.275200
   4964   4963   4965     1   108.4600466 328.025600
   4965   4963   4975     1   109.5600471 388.275200
   4966   4969   4970     1   109.8000471 387.438400
   4966   4969   4971     1   109.8000471 387.438400
   4967   4966   4969     1   109.5600471 388.275200
   4967   4966   4968     1   108.4600466 328.025600
   4968   4966   4969     1   109.5600471 388.275200
   4969   4978   4979     1   109.5600471 388.275200
   4969   4978   4980     1   109.5600471 388.275200
   4970   4969   4978     1   109.8000471 387.438400
   4970   4969   4971     1   107.5800459 329.699200
   4971   4969   4978     1   109.8000471 387.438400
   4972   4984   4985     1   109.5600471 388.275200
   4972   4984   4986     1   109.5600471 388.275200
   4973   4972   4984     1   109.8000471 387.438400
   4973   4972   4974     1   107.5800459 329.699200
   4974   4972   4984     1   109.8000471 387.438400
   4975   4981   4982     1   109.5600471 388.275200
   4975   4981   4983     1   109.5600471 388.275200
   4976   4975   4981     1   109.8000471 387.438400
   4976   4975   4977     1   107.5800459 329.699200
   4977   4975   4981     1   109.8000471 387.438400
   4979   4978   4987     1   109.7800468 425.094400
   4979   4978   4980     1   108.4600466 328.025600
   4980   4978   4987     1   109.7800468 425.094400
   4982   4981   9446     1   109.7800468 425.094400
   4982   4981   4983     1   108.4600466 328.025600
   4983   4981   9446     1   109.7800468 425.094400
   4985   4984   9469     1   109.7800468 425.094400
   4985   4984   4986     1   108.4600466 328.025600
   4986   4984   9469     1   109.7800468 425.094400
   4988   4989   4990     1   109.8800469 414.216000
   4988   4989   4991     1   109.8800469 414.216000
   4988   4992   4993     1   109.8800469 414.216000
   4988   4992   4994     1   109.8800469 414.216000
   4988   4995   4996     1   109.8800469 414.216000
   4988   4995   4997     1   109.8800469 414.216000
   4989   5001   5002     1   109.8000471 387.438400
   4989   5001   5003     1   109.8000471 387.438400
   4990   4989   5001     1   109.5600471 388.275200
   4990   4989   4991     1   108.4600466 328.025600
   4991   4989   5001     1   109.5600471 388.275200
   4992   5004   5005     1   109.8000471 387.438400
   4992   5004   5006     1   109.8000471 387.438400
   4993   4992   5004     1   109.5600471 388.275200
   4993   4992   4994     1   108.4600466 328.025600
   4994   4992   5004     1   109.5600471 388.275200
   4995   4998   4999     1   109.8000471 387.438400
   4995   4998   5000     1   109.8000471 387.438400
   4996   4995   4998     1   109.5600471 388.275200
   4996   4995   4997     1   108.4600466 328.025600
   4997   4995   4998     1   109.5600471 388.275200
   4998   5007   5008     1   109.5600471 388.275200
   4998   5007   5009     1   109.5600471 388.275200
   4999   4998   5007     1   109.8000471 387.438400
   4999   4998   5000     1   107.5800459 329.699200
   5000   4998   5007     1   109.8000471 387.438400
   5001   5013   5014     1   109.5600471 388.275200
   5001   5013   5015     1   109.5600471 388.275200
   5002   5001   5013     1   109.8000471 387.438400
   5002   5001   5003     1   107.5800459 329.699200
   5003   5001   5013     1   109.8000471 387.438400
   5004   5010   5011     1   109.5600471 388.275200
   5004   5010   5012     1   109.5600471 388.275200
   5005   5004   5010     1   109.8000471 387.438400
   5005   5004   5006     1   107.5800459 329.699200
   5006   5004   5010     1   109.8000471 387.438400
   5008   5007   5016     1   109.7800468 425.094400
   5008   5007   5009     1   108.4600466 328.025600
   5009   5007   5016     1   109.7800468 425.094400
   5011   5010   9492     1   109.7800468 425.094400
   5011   5010   5012     1   108.4600466 328.025600
   5012   5010   9492     1   109.7800468 425.094400
   5014   5013   9515     1   109.7800468 425.094400
   5014   5013   5015     1   108.4600466 328.025600
   5015   5013   9515     1   109.7800468 425.094400
   5017   5018   5019     1   109.8800469 414.216000
   5017   5018   5020     1   109.8800469 414.216000
   5017   5021   5022     1   109.8800469 414.216000
   5017   5021   5023     1   109.8800469 414.216000
   5017   5024   5025     1   109.8800469 414.216000
   5017   5024   5026     1   109.8800469 414.216000
   5018   5030   5031     1   109.8000471 387.438400
   5018   5030   5032     1   109.8000471 387.438400
   5019   5018   5030     1   109.5600471 388.275200
   5019   5018   5020     1   108.4600466 328.025600
   5020   5018   5030     1   109.5600471 388.275200
   5021   5033   5034     1   109.8000471 387.438400
   5021   5033   5035     1   109.8000471 387.438400
   5022   5021   5033     1   109.5600471 388.275200
   5022   5021   5023     1   108.4600466 328.025600
   5023   5021   5033     1   109.5600471 388.275200
   5024   5027   5028     1   109.8000471 387.438400
   5024   5027   5029     1   109.8000471 387.438400
   5025   5024   5027     1   109.5600471 388.275200
   5025   5024   5026     1   108.4600466 328.025600
   5026   5024   5027     1   109.5600471 388.275200
   5027   5036   5037     1   109.5600471 388.275200
   5027   5036   5038     1   109.5600471 388.275200
   5028   5027   5036     1   109.8000471 387.438400
   5028   5027   5029     1   107.5800459 329.699200
   5029   5027   5036     1   109.8000471 387.438400
   5030   5042   5043     1   109.5600471 388.275200
   5030   5042   5044     1   109.5600471 388.275200
   5031   5030   5042     1   109.8000471 387.438400
   5031   5030   5032     1   107.5800459 329.699200
   5032   5030   5042     1   109.8000471 387.438400
   5033   5039   5040     1   109.5600471 388.275200
   5033   5039   5041     1   109.5600471 388.275200
   5034   5033   5039     1   109.8000471 387.438400
   5034   5033   5035     1   107.5800459 329.699200
   5035   5033   5039     1   109.8000471 387.438400
   5037   5036   5045     1   109.7800468 425.094400
   5037   5036   5038     1   108.4600466 328.025600
   5038   5036   5045     1   109.7800468 425.094400
   5040   5039   9538     1   109.7800468 425.094400
   5040   5039   5041     1   108.4600466 328.025600
   5041   5039   9538     1   109.7800468 425.094400
   5043   5042   9561     1   109.7800468 425.094400
   5043   5042   5044     1   108.4600466 328.025600
   5044   5042   9561     1   109.7800468 425.094400
   5046   5047   5048     1   109.8800469 414.216000
   5046   5047   5049     1   109.8800469 414.216000
   5046   5050   5051     1   109.8800469 414.216000
   5046   5050   5052     1   109.8800469 414.216000
   5046   5053   5054     1   109.8800469 414.216000
   5046   5053   5055     1   109.8800469 414.216000
   5047   5059   5060     1   109.8000471 387.438400
   5047   5059   5061     1   109.8000471 387.438400
   5048   5047   5059     1   109.5600471 388.275200
   5048   5047   5049     1   108.4600466 328.025600
   5049   5047   5059     1   109.5600471 388.275200
   5050   5062   5063     1   109.8000471 387.438400
   5050   5062   5064     1   109.8000471 387.438400
   5051   5050   5062     1   109.5600471 388.275200
   5051   5050   5052     1   108.4600466 328.025600
   5052   5050   5062     1   109.5600471 388.275200
   5053   5056   5057     1   109.8000471 387.438400
   5053   5056   5058     1   109.8000471 387.438400
   5054   5053   5056     1   109.5600471 388.275200
   5054   5053   5055     1   108.4600466 328.025600
   5055   5053   5056     1   109.5600471 388.275200
   5056   5065   5066     1   109.5600471 388.275200
   5056   5065   5067     1   109.5600471 388.275200
   5057   5056   5065     1   109.8000471 387.438400
   5057   5056   5058     1   107.5800459 329.699200
   5058   5056   5065     1   109.8000471 387.438400
   5059   5071   5072     1   109.5600471 388.275200
   5059   5071   5073     1   109.5600471 388.275200
   5060   5059   5071     1   109.8000471 387.438400
   5060   5059   5061     1   107.5800459 329.699200
   5061   5059   5071     1   109.8000471 387.438400
   5062   5068   5069     1   109.5600471 388.275200
   5062   5068   5070     1   109.5600471 388.275200
   5063   5062   5068     1   109.8000471 387.438400
   5063   5062   5064     1   107.5800459 329.699200
   5064   5062   5068     1   109.8000471 387.438400
   5066   5065   5074     1   109.7800468 425.094400
   5066   5065   5067     1   108.4600466 328.025600
   5067   5065   5074     1   109.7800468 425.094400
   5069   5068   9584     1   109.7800468 425.094400
   5069   5068   5070     1   108.4600466 328.025600
   5070   5068   9584     1   109.7800468 425.094400
   5072   5071   9607     1   109.7800468 425.094400
   5072   5071   5073     1   108.4600466 328.025600
   5073   5071   9607     1   109.7800468 425.094400
   5075   5076   5077     1   109.8800469 414.216000
   5075   5076   5078     1   109.8800469 414.216000
   5075   5079   5080     1   109.8800469 414.216000
   5075   5079   5081     1   109.8800469 414.216000
   5075   5082   5083     1   109.8800469 414.216000
   5075   5082   5084     1   109.8800469 414.216000
   5076   5088   5089     1   109.8000471 387.438400
   5076   5088   5090     1   109.8000471 387.438400
   5077   5076   5088     1   109.5600471 388.275200
   5077   5076   5078     1   108.4600466 328.025600
   5078   5076   5088     1   109.5600471 388.275200
   5079   5091   5092     1   109.8000471 387.438400
   5079   5091   5093     1   109.8000471 387.438400
   5080   5079   5091     1   109.5600471 388.275200
   5080   5079   5081     1   108.4600466 328.025600
   5081   5079   5091     1   109.5600471 388.275200
   5082   5085   5086     1   109.8000471 387.438400
   5082   5085   5087     1   109.8000471 387.438400
   5083   5082   5085     1   109.5600471 388.275200
   5083   5082   5084     1   108.4600466 328.025600
   5084   5082   5085     1   109.5600471 388.275200
   5085   5094   5095     1   109.5600471 388.275200
   5085   5094   5096     1   109.5600471 388.275200
   5086   5085   5094     1   109.8000471 387.438400
   5086   5085   5087     1   107.5800459 329.699200
   5087   5085   5094     1   109.8000471 387.438400
   5088   5100   5101     1   109.5600471 388.275200
   5088   5100   5102     1   109.5600471 388.275200
   5089   5088   5100     1   109.8000471 387.438400
   5089   5088   5090     1   107.5800459 329.699200
   5090   5088   5100     1   109.8000471 387.438400
   5091   5097   5098     1   109.5600471 388.275200
   5091   5097   5099     1   109.5600471 388.275200
   5092   5091   5097     1   109.8000471 387.438400
   5092   5091   5093     1   107.5800459 329.699200
   5093   5091   5097     1   109.8000471 387.438400
   5095   5094   5103     1   109.7800468 425.094400
   5095   5094   5096     1   108.4600466 328.025600
   5096   5094   5103     1   109.7800468 425.094400
   5098   5097   9630     1   109.7800468 425.094400
   5098   5097   5099     1   108.4600466 328.025600
   5099   5097   9630     1   109.7800468 425.094400
   5101   5100   9653     1   109.7800468 425.094400
   5101   5100   5102     1   108.4600466 328.025600
   5102   5100   9653     1   109.7800468 425.094400
   5104   5105   5106     1   109.8800469 414.216000
   5104   5105   5107     1   109.8800469 414.216000
   5104   5108   5109     1   109.8800469 414.216000
   5104   5108   5110     1   109.8800469 414.216000
   5104   5111   5112     1   109.8800469 414.216000
   5104   5111   5113     1   109.8800469 414.216000
   5105   5117   5118     1   109.8000471 387.438400
   5105   5117   5119     1   109.8000471 387.438400
   5106   5105   5117     1   109.5600471 388.275200
   5106   5105   5107     1   108.4600466 328.025600
   5107   5105   5117     1   109.5600471 388.275200
   5108   5120   5121     1   109.8000471 387.438400
   5108   5120   5122     1   109.8000471 387.438400
   5109   5108   5120     1   109.5600471 388.275200
   5109   5108   5110     1   108.4600466 328.025600
   5110   5108   5120     1   109.5600471 388.275200
   5111   5114   5115     1   109.8000471 387.438400
   5111   5114   5116     1   109.8000471 387.438400
   5112   5111   5114     1   109.5600471 388.275200
   5112   5111   5113     1   108.4600466 328.025600
   5113   5111   5114     1   109.5600471 388.275200
   5114   5123   5124     1   109.5600471 388.275200
   5114   5123   5125     1   109.5600471 388.275200
   5115   5114   5123     1   109.8000471 387.438400
   5115   5114   5116     1   107.5800459 329.699200
   5116   5114   5123     1   109.8000471 387.438400
   5117   5129   5130     1   109.5600471 388.275200
   5117   5129   5131     1   109.5600471 388.275200
   5118   5117   5129     1   109.8000471 387.438400
   5118   5117   5119     1   107.5800459 329.699200
   5119   5117   5129     1   109.8000471 387.438400
   5120   5126   5127     1   109.5600471 388.275200
   5120   5126   5128     1   109.5600471 388.275200
   5121   5120   5126     1   109.8000471 387.438400
   5121   5120   5122     1   107.5800459 329.699200
   5122   5120   5126     1   109.8000471 387.438400
   5124   5123   5132     1   109.7800468 425.094400
   5124   5123   5125     1   108.4600466 328.025600
   5125   5123   5132     1   109.7800468 425.094400
   5127   5126   9676     1   109.7800468 425.094400
   5127   5126   5128     1   108.4600466 328.025600
   5128   5126   9676     1   109.7800468 425.094400
   5130   5129   9699     1   109.7800468 425.094400
   5130   5129   5131     1   108.4600466 328.025600
   5131   5129   9699     1   109.7800468 425.094400
   5133   5134   5135     1   109.8800469 414.216000
   5133   5134   5136     1   109.8800469 414.216000
   5133   5137   5138     1   109.8800469 414.216000
   5133   5137   5139     1   109.8800469 414.216000
   5133   5140   5141     1   109.8800469 414.216000
   5133   5140   5142     1   109.8800469 414.216000
   5134   5146   5147     1   109.8000471 387.438400
   5134   5146   5148     1   109.8000471 387.438400
   5135   5134   5146     1   109.5600471 388.275200
   5135   5134   5136     1   108.4600466 328.025600
   5136   5134   5146     1   109.5600471 388.275200
   5137   5149   5150     1   109.8000471 387.438400
   5137   5149   5151     1   109.8000471 387.438400
   5138   5137   5149     1   109.5600471 388.275200
   5138   5137   5139     1   108.4600466 328.025600
   5139   5137   5149     1   109.5600471 388.275200
   5140   5143   5144     1   109.8000471 387.438400
   5140   5143   5145     1   109.8000471 387.438400
   5141   5140   5143     1   109.5600471 388.275200
   5141   5140   5142     1   108.4600466 328.025600
   5142   5140   5143     1   109.5600471 388.275200
   5143   5152   5153     1   109.5600471 388.275200
   5143   5152   5154     1   109.5600471 388.275200
   5144   5143   5152     1   109.8000471 387.438400
   5144   5143   5145     1   107.5800459 329.699200
   5145   5143   5152     1   109.8000471 387.438400
   5146   5158   5159     1   109.5600471 388.275200
   5146   5158   5160     1   109.5600471 388.275200
   5147   5146   5158     1   109.8000471 387.438400
   5147   5146   5148     1   107.5800459 329.699200
   5148   5146   5158     1   109.8000471 387.438400
   5149   5155   5156     1   109.5600471 388.275200
   5149   5155   5157     1   109.5600471 388.275200
   5150   5149   5155     1   109.8000471 387.438400
   5150   5149   5151     1   107.5800459 329.699200
   5151   5149   5155     1   109.8000471 387.438400
   5153   5152   5161     1   109.7800468 425.094400
   5153   5152   5154     1   108.4600466 328.025600
   5154   5152   5161     1   109.7800468 425.094400
   5156   5155   9722     1   109.7800468 425.094400
   5156   5155   5157     1   108.4600466 328.025600
   5157   5155   9722     1   109.7800468 425.094400
   5159   5158   9745     1   109.7800468 425.094400
   5159   5158   5160     1   108.4600466 328.025600
   5160   5158   9745     1   109.7800468 425.094400
   5162   5163   5164     1   109.8800469 414.216000
   5162   5163   5165     1   109.8800469 414.216000
   5162   5166   5167     1   109.8800469 414.216000
   5162   5166   5168     1   109.8800469 414.216000
   5162   5169   5170     1   109.8800469 414.216000
   5162   5169   5171     1   109.8800469 414.216000
   5163   5175   5176     1   109.8000471 387.438400
   5163   5175   5177     1   109.8000471 387.438400
   5164   5163   5175     1   109.5600471 388.275200
   5164   5163   5165     1   108.4600466 328.025600
   5165   5163   5175     1   109.5600471 388.275200
   5166   5178   5179     1   109.8000471 387.438400
   5166   5178   5180     1   109.8000471 387.438400
   5167   5166   5178     1   109.5600471 388.275200
   5167   5166   5168     1   108.4600466 328.025600
   5168   5166   5178     1   109.5600471 388.275200
   5169   5172   5173     1   109.8000471 387.438400
   5169   5172   5174     1   109.8000471 387.438400
   5170   5169   5172     1   109.5600471 388.275200
   5170   5169   5171     1   108.4600466 328.025600
   5171   5169   5172     1   109.5600471 388.275200
   5172   5181   5182     1   109.5600471 388.275200
   5172   5181   5183     1   109.5600471 388.275200
   5173   5172   5181     1   109.8000471 387.438400
   5173   5172   5174     1   107.5800459 329.699200
   5174   5172   5181     1   109.8000471 387.438400
   5175   5187   5188     1   109.5600471 388.275200
   5175   5187   5189     1   109.5600471 388.275200
   5176   5175   5187     1   109.8000471 387.438400
   5176   5175   5177     1   107.5800459 329.699200
   5177   5175   5187     1   109.8000471 387.438400
   5178   5184   5185     1   109.5600471 388.275200
   5178   5184   5186     1   109.5600471 388.275200
   5179   5178   5184     1   109.8000471 387.438400
   5179   5178   5180     1   107.5800459 329.699200
   5180   5178   5184     1   109.8000471 387.438400
   5182   5181   5190     1   109.7800468 425.094400
   5182   5181   5183     1   108.4600466 328.025600
   5183   5181   5190     1   109.7800468 425.094400
   5185   5184   9768     1   109.7800468 425.094400
   5185   5184   5186     1   108.4600466 328.025600
   5186   5184   9768     1   109.7800468 425.094400
   5188   5187   9791     1   109.7800468 425.094400
   5188   5187   5189     1   108.4600466 328.025600
   5189   5187   9791     1   109.7800468 425.094400
   5191   5192   5193     1   109.8800469 414.216000
   5191   5192   5194     1   109.8800469 414.216000
   5191   5195   5196     1   109.8800469 414.216000
   5191   5195   5197     1   109.8800469 414.216000
   5191   5198   5199     1   109.8800469 414.216000
   5191   5198   5200     1   109.8800469 414.216000
   5192   5204   5205     1   109.8000471 387.438400
   5192   5204   5206     1   109.8000471 387.438400
   5193   5192   5204     1   109.5600471 388.275200
   5193   5192   5194     1   108.4600466 328.025600
   5194   5192   5204     1   109.5600471 388.275200
   5195   5207   5208     1   109.8000471 387.438400
   5195   5207   5209     1   109.8000471 387.438400
   5196   5195   5207     1   109.5600471 388.275200
   5196   5195   5197     1   108.4600466 328.025600
   5197   5195   5207     1   109.5600471 388.275200
   5198   5201   5202     1   109.8000471 387.438400
   5198   5201   5203     1   109.8000471 387.438400
   5199   5198   5201     1   109.5600471 388.275200
   5199   5198   5200     1   108.4600466 328.025600
   5200   5198   5201     1   109.5600471 388.275200
   5201   5210   5211     1   109.5600471 388.275200
   5201   5210   5212     1   109.5600471 388.275200
   5202   5201   5210     1   109.8000471 387.438400
   5202   5201   5203     1   107.5800459 329.699200
   5203   5201   5210     1   109.8000471 387.438400
   5204   5216   5217     1   109.5600471 388.275200
   5204   5216   5218     1   109.5600471 388.275200
   5205   5204   5216     1   109.8000471 387.438400
   5205   5204   5206     1   107.5800459 329.699200
   5206   5204   5216     1   109.8000471 387.438400
   5207   5213   5214     1   109.5600471 388.275200
   5207   5213   5215     1   109.5600471 388.275200
   5208   5207   5213     1   109.8000471 387.438400
   5208   5207   5209     1   107.5800459 329.699200
   5209   5207   5213     1   109.8000471 387.438400
   5211   5210   5219     1   109.7800468 425.094400
   5211   5210   5212     1   108.4600466 328.025600
   5212   5210   5219     1   109.7800468 425.094400
   5214   5213   9814     1   109.7800468 425.094400
   5214   5213   5215     1   108.4600466 328.025600
   5215   5213   9814     1   109.7800468 425.094400
   5217   5216   9837     1   109.7800468 425.094400
   5217   5216   5218     1   108.4600466 328.025600
   5218   5216   9837     1   109.7800468 425.094400
   5220   5221   5222     1   109.8800469 414.216000
   5220   5221   5223     1   109.8800469 414.216000
   5220   5224   5225     1   109.8800469 414.216000
   5220   5224   5226     1   109.8800469 414.216000
   5220   5227   5228     1   109.8800469 414.216000
   5220   5227   5229     1   109.8800469 414.216000
   5221   5233   5234     1   109.8000471 387.438400
   5221   5233   5235     1   109.8000471 387.438400
   5222   5221   5233     1   109.5600471 388.275200
   5222   5221   5223     1   108.4600466 328.025600
   5223   5221   5233     1   109.5600471 388.275200
   5224   5236   5237     1   109.8000471 387.438400
   5224   5236   5238     1   109.8000471 387.438400
   5225   5224   5236     1   109.5600471 388.275200
   5225   5224   5226     1   108.4600466 328.025600
   5226   5224   5236     1   109.5600471 388.275200
   5227   5230   5231     1   109.8000471 387.438400
   5227   5230   5232     1   109.8000471 387.438400
   5228   5227   5230     1   109.5600471 388.275200
   5228   5227   5229     1   108.4600466 328.025600
   5229   5227   5230     1   109.5600471 388.275200
   5230   5239   5240     1   109.5600471 388.275200
   5230   5239   5241     1   109.5600471 388.275200
   5231   5230   5239     1   109.8000471 387.438400
   5231   5230   5232     1   107.5800459 329.699200
   5232   5230   5239     1   109.8000471 387.438400
   5233   5245   5246     1   109.5600471 388.275200
   5233   5245   5247     1   109.5600471 388.275200
   5234   5233   5245     1   109.8000471 387.438400
   5234   5233   5235     1   107.5800459 329.699200
   5235   5233   5245     1   109.8000471 387.438400
   5236   5242   5243     1   109.5600471 388.275200
   5236   5242   5244     1   109.5600471 388.275200
   5237   5236   5242     1   109.8000471 387.438400
   5237   5236   5238     1   107.5800459 329.699200
   5238   5236   5242     1   109.8000471 387.438400
   5240   5239   5248     1   109.7800468 425.094400
   5240   5239   5241     1   108.4600466 328.025600
   5241   5239   5248     1   109.7800468 425.094400
   5243   5242   9860     1   109.7800468 425.094400
   5243   5242   5244     1   108.4600466 328.025600
   5244   5242   9860     1   109.7800468 425.094400
   5246   5245   9883     1   109.7800468 425.094400
   5246   5245   5247     1   108.4600466 328.025600
   5247   5245   9883     1   109.7800468 425.094400
   5249   5250   5251     1   109.8800469 414.216000
   5249   5250   5252     1   109.8800469 414.216000
   5249   5253   5254     1   109.8800469 414.216000
   5249   5253   5255     1   109.8800469 414.216000
   5249   5256   5257     1   109.8800469 414.216000
   5249   5256   5258     1   109.8800469 414.216000
   5250   5262   5263     1   109.8000471 387.438400
   5250   5262   5264     1   109.8000471 387.438400
   5251   5250   5262     1   109.5600471 388.275200
   5251   5250   5252     1   108.4600466 328.025600
   5252   5250   5262     1   109.5600471 388.275200
   5253   5265   5266     1   109.8000471 387.438400
   5253   5265   5267     1   109.8000471 387.438400
   5254   5253   5265     1   109.5600471 388.275200
   5254   5253   5255     1   108.4600466 328.025600
   5255   5253   5265     1   109.5600471 388.275200
   5256   5259   5260     1   109.8000471 387.438400
   5256   5259   5261     1   109.8000471 387.438400
   5257   5256   5259     1   109.5600471 388.275200
   5257   5256   5258     1   108.4600466 328.025600
   5258   5256   5259     1   109.5600471 388.275200
   5259   5268   5269     1   109.5600471 388.275200
   5259   5268   5270     1   109.5600471 388.275200
   5260   5259   5268     1   109.8000471 387.438400
   5260   5259   5261     1   107.5800459 329.699200
   5261   5259   5268     1   109.8000471 387.438400
   5262   5274   5275     1   109.5600471 388.275200
   5262   5274   5276     1   109.5600471 388.275200
   5263   5262   5274     1   109.8000471 387.438400
   5263   5262   5264     1   107.5800459 329.699200
   5264   5262   5274     1   109.8000471 387.438400
   5265   5271   5272     1   109.5600471 388.275200
   5265   5271   5273     1   109.5600471 388.275200
   5266   5265   5271     1   109.8000471 387.438400
   5266   5265   5267     1   107.5800459 329.699200
   5267   5265   5271     1   109.8000471 387.438400
   5269   5268   5277     1   109.7800468 425.094400
   5269   5268   5270     1   108.4600466 328.025600
   5270   5268   5277     1   109.7800468 425.094400
   5272   5271   9906     1   109.7800468 425.094400
   5272   5271   5273     1   108.4600466 328.025600
   5273   5271   9906     1   109.7800468 425.094400
   5275   5274   9929     1   109.7800468 425.094400
   5275   5274   5276     1   108.4600466 328.025600
   5276   5274   9929     1   109.7800468 425.094400
   5278   5279   5280     1   109.8800469 414.216000
   5278   5279   5281     1   109.8800469 414.216000
   5278   5282   5283     1   109.8800469 414.216000
   5278   5282   5284     1   109.8800469 414.216000
   5278   5285   5286     1   109.8800469 414.216000
   5278   5285   5287     1   109.8800469 414.216000
   5279   5291   5292     1   109.8000471 387.438400
   5279   5291   5293     1   109.8000471 387.438400
   5280   5279   5291     1   109.5600471 388.275200
   5280   5279   5281     1   108.4600466 328.025600
   5281   5279   5291     1   109.5600471 388.275200
   5282   5294   5295     1   109.8000471 387.438400
   5282   5294   5296     1   109.8000471 387.438400
   5283   5282   5294     1   109.5600471 388.275200
   5283   5282   5284     1   108.4600466 328.025600
   5284   5282   5294     1   109.5600471 388.275200
   5285   5288   5289     1   109.8000471 387.438400
   5285   5288   5290     1   109.8000471 387.438400
   5286   5285   5288     1   109.5600471 388.275200
   5286   5285   5287     1   108.4600466 328.025600
   5287   5285   5288     1   109.5600471 388.275200
   5288   5297   5298     1   109.5600471 388.275200
   5288   5297   5299     1   109.5600471 388.275200
   5289   5288   5297     1   109.8000471 387.438400
   5289   5288   5290     1   107.5800459 329.699200
   5290   5288   5297     1   109.8000471 387.438400
   5291   5303   5304     1   109.5600471 388.275200
   5291   5303   5305     1   109.5600471 388.275200
   5292   5291   5303     1   109.8000471 387.438400
   5292   5291   5293     1   107.5800459 329.699200
   5293   5291   5303     1   109.8000471 387.438400
   5294   5300   5301     1   109.5600471 388.275200
   5294   5300   5302     1   109.5600471 388.275200
   5295   5294   5300     1   109.8000471 387.438400
   5295   5294   5296     1   107.5800459 329.699200
   5296   5294   5300     1   109.8000471 387.438400
   5298   5297   5306     1   109.7800468 425.094400
   5298   5297   5299     1   108.4600466 328.025600
   5299   5297   5306     1   109.7800468 425.094400
   5301   5300   9952     1   109.7800468 425.094400
   5301   5300   5302     1   108.4600466 328.025600
   5302   5300   9952     1   109.7800468 425.094400
   5304   5303   9975     1   109.7800468 425.094400
   5304   5303   5305     1   108.4600466 328.025600
   5305   5303   9975     1   109.7800468 425.094400
   5307   5308   5309     1   109.8800469 414.216000
   5307   5308   5310     1   109.8800469 414.216000
   5307   5311   5312     1   109.8800469 414.216000
   5307   5311   5313     1   109.8800469 414.216000
   5307   5314   5315     1   109.8800469 414.216000
   5307   5314   5316     1   109.8800469 414.216000
   5308   5320   5321     1   109.8000471 387.438400
   5308   5320   5322     1   109.8000471 387.438400
   5309   5308   5320     1   109.5600471 388.275200
   5309   5308   5310     1   108.4600466 328.025600
   5310   5308   5320     1   109.5600471 388.275200
   5311   5323   5324     1   109.8000471 387.438400
   5311   5323   5325     1   109.8000471 387.438400
   5312   5311   5323     1   109.5600471 388.275200
   5312   5311   5313     1   108.4600466 328.025600
   5313   5311   5323     1   109.5600471 388.275200
   5314   5317   5318     1   109.8000471 387.438400
   5314   5317   5319     1   109.8000471 387.438400
   5315   5314   5317     1   109.5600471 388.275200
   5315   5314   5316     1   108.4600466 328.025600
   5316   5314   5317     1   109.5600471 388.275200
   5317   5326   5327     1   109.5600471 388.275200
   5317   5326   5328     1   109.5600471 388.275200
   5318   5317   5326     1   109.8000471 387.438400
   5318   5317   5319     1   107.5800459 329.699200
   5319   5317   5326     1   109.8000471 387.438400
   5320   5332   5333     1   109.5600471 388.275200
   5320   5332   5334     1   109.5600471 388.275200
   5321   5320   5332     1   109.8000471 387.438400
   5321   5320   5322     1   107.5800459 329.699200
   5322   5320   5332     1   109.8000471 387.438400
   5323   5329   5330     1   109.5600471 388.275200
   5323   5329   5331     1   109.5600471 388.275200
   5324   5323   5329     1   109.8000471 387.438400
   5324   5323   5325     1   107.5800459 329.699200
   5325   5323   5329     1   109.8000471 387.438400
   5327   5326   5335     1   109.7800468 425.094400
   5327   5326   5328     1   108.4600466 328.025600
   5328   5326   5335     1   109.7800468 425.094400
   5330   5329   9998     1   109.7800468 425.094400
   5330   5329   5331     1   108.4600466 328.025600
   5331   5329   9998     1   109.7800468 425.094400
   5333   5332  10021     1   109.7800468 425.094400
   5333   5332   5334     1   108.4600466 328.025600
   5334   5332  10021     1   109.7800468 425.094400
   5336   5337   5338     1   109.8800469 414.216000
   5336   5337   5339     1   109.8800469 414.216000
   5336   5340   5341     1   109.8800469 414.216000
   5336   5340   5342     1   109.8800469 414.216000
   5336   5343   5344     1   109.8800469 414.216000
   5336   5343   5345     1   109.8800469 414.216000
   5337   5349   5350     1   109.8000471 387.438400
   5337   5349   5351     1   109.8000471 387.438400
   5338   5337   5349     1   109.5600471 388.275200
   5338   5337   5339     1   108.4600466 328.025600
   5339   5337   5349     1   109.5600471 388.275200
   5340   5352   5353     1   109.8000471 387.438400
   5340   5352   5354     1   109.8000471 387.438400
   5341   5340   5352     1   109.5600471 388.275200
   5341   5340   5342     1   108.4600466 328.025600
   5342   5340   5352     1   109.5600471 388.275200
   5343   5346   5347     1   109.8000471 387.438400
   5343   5346   5348     1   109.8000471 387.438400
   5344   5343   5346     1   109.5600471 388.275200
   5344   5343   5345     1   108.4600466 328.025600
   5345   5343   5346     1   109.5600471 388.275200
   5346   5355   5356     1   109.5600471 388.275200
   5346   5355   5357     1   109.5600471 388.275200
   5347   5346   5355     1   109.8000471 387.438400
   5347   5346   5348     1   107.5800459 329.699200
   5348   5346   5355     1   109.8000471 387.438400
   5349   5361   5362     1   109.5600471 388.275200
   5349   5361   5363     1   109.5600471 388.275200
   5350   5349   5361     1   109.8000471 387.438400
   5350   5349   5351     1   107.5800459 329.699200
   5351   5349   5361     1   109.8000471 387.438400
   5352   5358   5359     1   109.5600471 388.275200
   5352   5358   5360     1   109.5600471 388.275200
   5353   5352   5358     1   109.8000471 387.438400
   5353   5352   5354     1   107.5800459 329.699200
   5354   5352   5358     1   109.8000471 387.438400
   5356   5355   5364     1   109.7800468 425.094400
   5356   5355   5357     1   108.4600466 328.025600
   5357   5355   5364     1   109.7800468 425.094400
   5359   5358  10044     1   109.7800468 425.094400
   5359   5358   5360     1   108.4600466 328.025600
   5360   5358  10044     1   109.7800468 425.094400
   5362   5361  10067     1   109.7800468 425.094400
   5362   5361   5363     1   108.4600466 328.025600
   5363   5361  10067     1   109.7800468 425.094400
   5365   5366   5367     1   109.8800469 414.216000
   5365   5366   5368     1   109.8800469 414.216000
   5365   5369   5370     1   109.8800469 414.216000
   5365   5369   5371     1   109.8800469 414.216000
   5365   5372   5373     1   109.8800469 414.216000
   5365   5372   5374     1   109.8800469 414.216000
   5366   5378   5379     1   109.8000471 387.438400
   5366   5378   5380     1   109.8000471 387.438400
   5367   5366   5378     1   109.5600471 388.275200
   5367   5366   5368     1   108.4600466 328.025600
   5368   5366   5378     1   109.5600471 388.275200
   5369   5381   5382     1   109.8000471 387.438400
   5369   5381   5383     1   109.8000471 387.438400
   5370   5369   5381     1   109.5600471 388.275200
   5370   5369   5371     1   108.4600466 328.025600
   5371   5369   5381     1   109.5600471 388.275200
   5372   5375   5376     1   109.8000471 387.438400
   5372   5375   5377     1   109.8000471 387.438400
   5373   5372   5375     1   109.5600471 388.275200
   5373   5372   5374     1   108.4600466 328.025600
   5374   5372   5375     1   109.5600471 388.275200
   5375   5384   5385     1   109.5600471 388.275200
   5375   5384   5386     1   109.5600471 388.275200
   5376   5375   5384     1   109.8000471 387.438400
   5376   5375   5377     1   107.5800459 329.699200
   5377   5375   5384     1   109.8000471 387.438400
   5378   5390   5391     1   109.5600471 388.275200
   5378   5390   5392     1   109.5600471 388.275200
   5379   5378   5390     1   109.8000471 387.438400
   5379   5378   5380     1   107.5800459 329.699200
   5380   5378   5390     1   109.8000471 387.438400
   5381   5387   5388     1   109.5600471 388.275200
   5381   5387   5389     1   109.5600471 388.275200
   5382   5381   5387     1   109.8000471 387.438400
   5382   5381   5383     1   107.5800459 329.699200
   5383   5381   5387     1   109.8000471 387.438400
   5385   5384   5393     1   109.7800468 425.094400
   5385   5384   5386     1   108.4600466 328.025600
   5386   5384   5393     1   109.7800468 425.094400
   5388   5387  10090     1   109.7800468 425.094400
   5388   5387   5389     1   108.4600466 328.025600
   5389   5387  10090     1   109.7800468 425.094400
   5391   5390  10113     1   109.7800468 425.094400
   5391   5390   5392     1   108.4600466 328.025600
   5392   5390  10113     1   109.7800468 425.094400
   5394   5395   5396     1   109.8800469 414.216000
   5394   5395   5397     1   109.8800469 414.216000
   5394   5398   5399     1   109.8800469 414.216000
   5394   5398   5400     1   109.8800469 414.216000
   5394   5401   5402     1   109.8800469 414.216000
   5394   5401   5403     1   109.8800469 414.216000
   5395   5407   5408     1   109.8000471 387.438400
   5395   5407   5409     1   109.8000471 387.438400
   5396   5395   5407     1   109.5600471 388.275200
   5396   5395   5397     1   108.4600466 328.025600
   5397   5395   5407     1   109.5600471 388.275200
   5398   5410   5411     1   109.8000471 387.438400
   5398   5410   5412     1   109.8000471 387.438400
   5399   5398   5410     1   109.5600471 388.275200
   5399   5398   5400     1   108.4600466 328.025600
   5400   5398   5410     1   109.5600471 388.275200
   5401   5404   5405     1   109.8000471 387.438400
   5401   5404   5406     1   109.8000471 387.438400
   5402   5401   5404     1   109.5600471 388.275200
   5402   5401   5403     1   108.4600466 328.025600
   5403   5401   5404     1   109.5600471 388.275200
   5404   5413   5414     1   109.5600471 388.275200
   5404   5413   5415     1   109.5600471 388.275200
   5405   5404   5413     1   109.8000471 387.438400
   5405   5404   5406     1   107.5800459 329.699200
   5406   5404   5413     1   109.8000471 387.438400
   5407   5419   5420     1   109.5600471 388.275200
   5407   5419   5421     1   109.5600471 388.275200
   5408   5407   5419     1   109.8000471 387.438400
   5408   5407   5409     1   107.5800459 329.699200
   5409   5407   5419     1   109.8000471 387.438400
   5410   5416   5417     1   109.5600471 388.275200
   5410   5416   5418     1   109.5600471 388.275200
   5411   5410   5416     1   109.8000471 387.438400
   5411   5410   5412     1   107.5800459 329.699200
   5412   5410   5416     1   109.8000471 387.438400
   5414   5413   5422     1   109.7800468 425.094400
   5414   5413   5415     1   108.4600466 328.025600
   5415   5413   5422     1   109.7800468 425.094400
   5417   5416  10136     1   109.7800468 425.094400
   5417   5416   5418     1   108.4600466 328.025600
   5418   5416  10136     1   109.7800468 425.094400
   5420   5419  10159     1   109.7800468 425.094400
   5420   5419   5421     1   108.4600466 328.025600
   5421   5419  10159     1   109.7800468 425.094400
   5423   5424   5425     1   109.8800469 414.216000
   5423   5424   5426     1   109.8800469 414.216000
   5423   5427   5428     1   109.8800469 414.216000
   5423   5427   5429     1   109.8800469 414.216000
   5423   5430   5431     1   109.8800469 414.216000
   5423   5430   5432     1   109.8800469 414.216000
   5424   5436   5437     1   109.8000471 387.438400
   5424   5436   5438     1   109.8000471 387.438400
   5425   5424   5436     1   109.5600471 388.275200
   5425   5424   5426     1   108.4600466 328.025600
   5426   5424   5436     1   109.5600471 388.275200
   5427   5439   5440     1   109.8000471 387.438400
   5427   5439   5441     1   109.8000471 387.438400
   5428   5427   5439     1   109.5600471 388.275200
   5428   5427   5429     1   108.4600466 328.025600
   5429   5427   5439     1   109.5600471 388.275200
   5430   5433   5434     1   109.8000471 387.438400
   5430   5433   5435     1   109.8000471 387.438400
   5431   5430   5433     1   109.5600471 388.275200
   5431   5430   5432     1   108.4600466 328.025600
   5432   5430   5433     1   109.5600471 388.275200
   5433   5442   5443     1   109.5600471 388.275200
   5433   5442   5444     1   109.5600471 388.275200
   5434   5433   5442     1   109.8000471 387.438400
   5434   5433   5435     1   107.5800459 329.699200
   5435   5433   5442     1   109.8000471 387.438400
   5436   5448   5449     1   109.5600471 388.275200
   5436   5448   5450     1   109.5600471 388.275200
   5437   5436   5448     1   109.8000471 387.438400
   5437   5436   5438     1   107.5800459 329.699200
   5438   5436   5448     1   109.8000471 387.438400
   5439   5445   5446     1   109.5600471 388.275200
   5439   5445   5447     1   109.5600471 388.275200
   5440   5439   5445     1   109.8000471 387.438400
   5440   5439   5441     1   107.5800459 329.699200
   5441   5439   5445     1   109.8000471 387.438400
   5443   5442   5451     1   109.7800468 425.094400
   5443   5442   5444     1   108.4600466 328.025600
   5444   5442   5451     1   109.7800468 425.094400
   5446   5445  10182     1   109.7800468 425.094400
   5446   5445   5447     1   108.4600466 328.025600
   5447   5445  10182     1   109.7800468 425.094400
   5449   5448  10205     1   109.7800468 425.094400
   5449   5448   5450     1   108.4600466 328.025600
   5450   5448  10205     1   109.7800468 425.094400
   5452   5453   5454     1   109.8800469 414.216000
   5452   5453   5455     1   109.8800469 414.216000
   5452   5456   5457     1   109.8800469 414.216000
   5452   5456   5458     1   109.8800469 414.216000
   5452   5459   5460     1   109.8800469 414.216000
   5452   5459   5461     1   109.8800469 414.216000
   5453   5465   5466     1   109.8000471 387.438400
   5453   5465   5467     1   109.8000471 387.438400
   5454   5453   5465     1   109.5600471 388.275200
   5454   5453   5455     1   108.4600466 328.025600
   5455   5453   5465     1   109.5600471 388.275200
   5456   5468   5469     1   109.8000471 387.438400
   5456   5468   5470     1   109.8000471 387.438400
   5457   5456   5468     1   109.5600471 388.275200
   5457   5456   5458     1   108.4600466 328.025600
   5458   5456   5468     1   109.5600471 388.275200
   5459   5462   5463     1   109.8000471 387.438400
   5459   5462   5464     1   109.8000471 387.438400
   5460   5459   5462     1   109.5600471 388.275200
   5460   5459   5461     1   108.4600466 328.025600
   5461   5459   5462     1   109.5600471 388.275200
   5462   5471   5472     1   109.5600471 388.275200
   5462   5471   5473     1   109.5600471 388.275200
   5463   5462   5471     1   109.8000471 387.438400
   5463   5462   5464     1   107.5800459 329.699200
   5464   5462   5471     1   109.8000471 387.438400
   5465   5477   5478     1   109.5600471 388.275200
   5465   5477   5479     1   109.5600471 388.275200
   5466   5465   5477     1   109.8000471 387.438400
   5466   5465   5467     1   107.5800459 329.699200
   5467   5465   5477     1   109.8000471 387.438400
   5468   5474   5475     1   109.5600471 388.275200
   5468   5474   5476     1   109.5600471 388.275200
   5469   5468   5474     1   109.8000471 387.438400
   5469   5468   5470     1   107.5800459 329.699200
   5470   5468   5474     1   109.8000471 387.438400
   5472   5471   5480     1   109.7800468 425.094400
   5472   5471   5473     1   108.4600466 328.025600
   5473   5471   5480     1   109.7800468 425.094400
   5475   5474  10228     1   109.7800468 425.094400
   5475   5474   5476     1   108.4600466 328.025600
   5476   5474  10228     1   109.7800468 425.094400
   5478   5477  10251     1   109.7800468 425.094400
   5478   5477   5479     1   108.4600466 328.025600
   5479   5477  10251     1   109.7800468 425.094400
   5481   5482   5483     1   109.8800469 414.216000
   5481   5482   5484     1   109.8800469 414.216000
   5481   5485   5486     1   109.8800469 414.216000
   5481   5485   5487     1   109.8800469 414.216000
   5481   5488   5489     1   109.8800469 414.216000
   5481   5488   5490     1   109.8800469 414.216000
   5482   5494   5495     1   109.8000471 387.438400
   5482   5494   5496     1   109.8000471 387.438400
   5483   5482   5494     1   109.5600471 388.275200
   5483   5482   5484     1   108.4600466 328.025600
   5484   5482   5494     1   109.5600471 388.275200
   5485   5497   5498     1   109.8000471 387.438400
   5485   5497   5499     1   109.8000471 387.438400
   5486   5485   5497     1   109.5600471 388.275200
   5486   5485   5487     1   108.4600466 328.025600
   5487   5485   5497     1   109.5600471 388.275200
   5488   5491   5492     1   109.8000471 387.438400
   5488   5491   5493     1   109.8000471 387.438400
   5489   5488   5491     1   109.5600471 388.275200
   5489   5488   5490     1   108.4600466 328.025600
   5490   5488   5491     1   109.5600471 388.275200
   5491   5500   5501     1   109.5600471 388.275200
   5491   5500   5502     1   109.5600471 388.275200
   5492   5491   5500     1   109.8000471 387.438400
   5492   5491   5493     1   107.5800459 329.699200
   5493   5491   5500     1   109.8000471 387.438400
   5494   5506   5507     1   109.5600471 388.275200
   5494   5506   5508     1   109.5600471 388.275200
   5495   5494   5506     1   109.8000471 387.438400
   5495   5494   5496     1   107.5800459 329.699200
   5496   5494   5506     1   109.8000471 387.438400
   5497   5503   5504     1   109.5600471 388.275200
   5497   5503   5505     1   109.5600471 388.275200
   5498   5497   5503     1   109.8000471 387.438400
   5498   5497   5499     1   107.5800459 329.699200
   5499   5497   5503     1   109.8000471 387.438400
   5501   5500   5509     1   109.7800468 425.094400
   5501   5500   5502     1   108.4600466 328.025600
   5502   5500   5509     1   109.7800468 425.094400
   5504   5503  10274     1   109.7800468 425.094400
   5504   5503   5505     1   108.4600466 328.025600
   5505   5503  10274     1   109.7800468 425.094400
   5507   5506  10297     1   109.7800468 425.094400
   5507   5506   5508     1   108.4600466 328.025600
   5508   5506  10297     1   109.7800468 425.094400
   5510   5511   5512     1   109.8800469 414.216000
   5510   5511   5513     1   109.8800469 414.216000
   5510   5514   5515     1   109.8800469 414.216000
   5510   5514   5516     1   109.8800469 414.216000
   5510   5517   5518     1   109.8800469 414.216000
   5510   5517   5519     1   109.8800469 414.216000
   5511   5523   5524     1   109.8000471 387.438400
   5511   5523   5525     1   109.8000471 387.438400
   5512   5511   5523     1   109.5600471 388.275200
   5512   5511   5513     1   108.4600466 328.025600
   5513   5511   5523     1   109.5600471 388.275200
   5514   5526   5527     1   109.8000471 387.438400
   5514   5526   5528     1   109.8000471 387.438400
   5515   5514   5526     1   109.5600471 388.275200
   5515   5514   5516     1   108.4600466 328.025600
   5516   5514   5526     1   109.5600471 388.275200
   5517   5520   5521     1   109.8000471 387.438400
   5517   5520   5522     1   109.8000471 387.438400
   5518   5517   5520     1   109.5600471 388.275200
   5518   5517   5519     1   108.4600466 328.025600
   5519   5517   5520     1   109.5600471 388.275200
   5520   5529   5530     1   109.5600471 388.275200
   5520   5529   5531     1   109.5600471 388.275200
   5521   5520   5529     1   109.8000471 387.438400
   5521   5520   5522     1   107.5800459 329.699200
   5522   5520   5529     1   109.8000471 387.438400
   5523   5535   5536     1   109.5600471 388.275200
   5523   5535   5537     1   109.5600471 388.275200
   5524   5523   5535     1   109.8000471 387.438400
   5524   5523   5525     1   107.5800459 329.699200
   5525   5523   5535     1   109.8000471 387.438400
   5526   5532   5533     1   109.5600471 388.275200
   5526   5532   5534     1   109.5600471 388.275200
   5527   5526   5532     1   109.8000471 387.438400
   5527   5526   5528     1   107.5800459 329.699200
   5528   5526   5532     1   109.8000471 387.438400
   5530   5529   5538     1   109.7800468 425.094400
   5530   5529   5531     1   108.4600466 328.025600
   5531   5529   5538     1   109.7800468 425.094400
   5533   5532  10320     1   109.7800468 425.094400
   5533   5532   5534     1   108.4600466 328.025600
   5534   5532  10320     1   109.7800468 425.094400
   5536   5535  10343     1   109.7800468 425.094400
   5536   5535   5537     1   108.4600466 328.025600
   5537   5535  10343     1   109.7800468 425.094400
   5539   5540   5541     1   109.8800469 414.216000
   5539   5540   5542     1   109.8800469 414.216000
   5539   5543   5544     1   109.8800469 414.216000
   5539   5543   5545     1   109.8800469 414.216000
   5539   5546   5547     1   109.8800469 414.216000
   5539   5546   5548     1   109.8800469 414.216000
   5540   5552   5553     1   109.8000471 387.438400
   5540   5552   5554     1   109.8000471 387.438400
   5541   5540   5552     1   109.5600471 388.275200
   5541   5540   5542     1   108.4600466 328.025600
   5542   5540   5552     1   109.5600471 388.275200
   5543   5555   5556     1   109.8000471 387.438400
   5543   5555   5557     1   109.8000471 387.438400
   5544   5543   5555     1   109.5600471 388.275200
   5544   5543   5545     1   108.4600466 328.025600
   5545   5543   5555     1   109.5600471 388.275200
   5546   5549   5550     1   109.8000471 387.438400
   5546   5549   5551     1   109.8000471 387.438400
   5547   5546   5549     1   109.5600471 388.275200
   5547   5546   5548     1   108.4600466 328.025600
   5548   5546   5549     1   109.5600471 388.275200
   5549   5558   5559     1   109.5600471 388.275200
   5549   5558   5560     1   109.5600471 388.275200
   5550   5549   5558     1   109.8000471 387.438400
   5550   5549   5551     1   107.5800459 329.699200
   5551   5549   5558     1   109.8000471 387.438400
   5552   5564   5565     1   109.5600471 388.275200
   5552   5564   5566     1   109.5600471 388.275200
   5553   5552   5564     1   109.8000471 387.438400
   5553   5552   5554     1   107.5800459 329.699200
   5554   5552   5564     1   109.8000471 387.438400
   5555   5561   5562     1   109.5600471 388.275200
   5555   5561   5563     1   109.5600471 388.275200
   5556   5555   5561     1   109.8000471 387.438400
   5556   5555   5557     1   107.5800459 329.699200
   5557   5555   5561     1   109.8000471 387.438400
   5559   5558   5567     1   109.7800468 425.094400
   5559   5558   5560     1   108.4600466 328.025600
   5560   5558   5567     1   109.7800468 425.094400
   5562   5561  10366     1   109.7800468 425.094400
   5562   5561   5563     1   108.4600466 328.025600
   5563   5561  10366     1   109.7800468 425.094400
   5565   5564  10389     1   109.7800468 425.094400
   5565   5564   5566     1   108.4600466 328.025600
   5566   5564  10389     1   109.7800468 425.094400
   5568   5569   5570     1   109.8800469 414.216000
   5568   5569   5571     1   109.8800469 414.216000
   5568   5572   5573     1   109.8800469 414.216000
   5568   5572   5574     1   109.8800469 414.216000
   5568   5575   5576     1   109.8800469 414.216000
   5568   5575   5577     1   109.8800469 414.216000
   5569   5581   5582     1   109.8000471 387.438400
   5569   5581   5583     1   109.8000471 387.438400
   5570   5569   5581     1   109.5600471 388.275200
   5570   5569   5571     1   108.4600466 328.025600
   5571   5569   5581     1   109.5600471 388.275200
   5572   5584   5585     1   109.8000471 387.438400
   5572   5584   5586     1   109.8000471 387.438400
   5573   5572   5584     1   109.5600471 388.275200
   5573   5572   5574     1   108.4600466 328.025600
   5574   5572   5584     1   109.5600471 388.275200
   5575   5578   5579     1   109.8000471 387.438400
   5575   5578   5580     1   109.8000471 387.438400
   5576   5575   5578     1   109.5600471 388.275200
   5576   5575   5577     1   108.4600466 328.025600
   5577   5575   5578     1   109.5600471 388.275200
   5578   5587   5588     1   109.5600471 388.275200
   5578   5587   5589     1   109.5600471 388.275200
   5579   5578   5587     1   109.8000471 387.438400
   5579   5578   5580     1   107.5800459 329.699200
   5580   5578   5587     1   109.8000471 387.438400
   5581   5593   5594     1   109.5600471 388.275200
   5581   5593   5595     1   109.5600471 388.275200
   5582   5581   5593     1   109.8000471 387.438400
   5582   5581   5583     1   107.5800459 329.699200
   5583   5581   5593     1   109.8000471 387.438400
   5584   5590   5591     1   109.5600471 388.275200
   5584   5590   5592     1   109.5600471 388.275200
   5585   5584   5590     1   109.8000471 387.438400
   5585   5584   5586     1   107.5800459 329.699200
   5586   5584   5590     1   109.8000471 387.438400
   5588   5587   5596     1   109.7800468 425.094400
   5588   5587   5589     1   108.4600466 328.025600
   5589   5587   5596     1   109.7800468 425.094400
   5591   5590  10412     1   109.7800468 425.094400
   5591   5590   5592     1   108.4600466 328.025600
   5592   5590  10412     1   109.7800468 425.094400
   5594   5593  10435     1   109.7800468 425.094400
   5594   5593   5595     1   108.4600466 328.025600
   5595   5593  10435     1   109.7800468 425.094400
   5597   5598   5599     1   109.8800469 414.216000
   5597   5598   5600     1   109.8800469 414.216000
   5597   5601   5602     1   109.8800469 414.216000
   5597   5601   5603     1   109.8800469 414.216000
   5597   5604   5605     1   109.8800469 414.216000
   5597   5604   5606     1   109.8800469 414.216000
   5598   5610   5611     1   109.8000471 387.438400
   5598   5610   5612     1   109.8000471 387.438400
   5599   5598   5610     1   109.5600471 388.275200
   5599   5598   5600     1   108.4600466 328.025600
   5600   5598   5610     1   109.5600471 388.275200
   5601   5613   5614     1   109.8000471 387.438400
   5601   5613   5615     1   109.8000471 387.438400
   5602   5601   5613     1   109.5600471 388.275200
   5602   5601   5603     1   108.4600466 328.025600
   5603   5601   5613     1   109.5600471 388.275200
   5604   5607   5608     1   109.8000471 387.438400
   5604   5607   5609     1   109.8000471 387.438400
   5605   5604   5607     1   109.5600471 388.275200
   5605   5604   5606     1   108.4600466 328.025600
   5606   5604   5607     1   109.5600471 388.275200
   5607   5616   5617     1   109.5600471 388.275200
   5607   5616   5618     1   109.5600471 388.275200
   5608   5607   5616     1   109.8000471 387.438400
   5608   5607   5609     1   107.5800459 329.699200
   5609   5607   5616     1   109.8000471 387.438400
   5610   5622   5623     1   109.5600471 388.275200
   5610   5622   5624     1   109.5600471 388.275200
   5611   5610   5622     1   109.8000471 387.438400
   5611   5610   5612     1   107.5800459 329.699200
   5612   5610   5622     1   109.8000471 387.438400
   5613   5619   5620     1   109.5600471 388.275200
   5613   5619   5621     1   109.5600471 388.275200
   5614   5613   5619     1   109.8000471 387.438400
   5614   5613   5615     1   107.5800459 329.699200
   5615   5613   5619     1   109.8000471 387.438400
   5617   5616   5625     1   109.7800468 425.094400
   5617   5616   5618     1   108.4600466 328.025600
   5618   5616   5625     1   109.7800468 425.094400
   5620   5619  10458     1   109.7800468 425.094400
   5620   5619   5621     1   108.4600466 328.025600
   5621   5619  10458     1   109.7800468 425.094400
   5623   5622  10481     1   109.7800468 425.094400
   5623   5622   5624     1   108.4600466 328.025600
   5624   5622  10481     1   109.7800468 425.094400
   5626   5627   5628     1   109.8800469 414.216000
   5626   5627   5629     1   109.8800469 414.216000
   5626   5630   5631     1   109.8800469 414.216000
   5626   5630   5632     1   109.8800469 414.216000
   5626   5633   5634     1   109.8800469 414.216000
   5626   5633   5635     1   109.8800469 414.216000
   5627   5639   5640     1   109.8000471 387.438400
   5627   5639   5641     1   109.8000471 387.438400
   5628   5627   5639     1   109.5600471 388.275200
   5628   5627   5629     1   108.4600466 328.025600
   5629   5627   5639     1   109.5600471 388.275200
   5630   5642   5643     1   109.8000471 387.438400
   5630   5642   5644     1   109.8000471 387.438400
   5631   5630   5642     1   109.5600471 388.275200
   5631   5630   5632     1   108.4600466 328.025600
   5632   5630   5642     1   109.5600471 388.275200
   5633   5636   5637     1   109.8000471 387.438400
   5633   5636   5638     1   109.8000471 387.438400
   5634   5633   5636     1   109.5600471 388.275200
   5634   5633   5635     1   108.4600466 328.025600
   5635   5633   5636     1   109.5600471 388.275200
   5636   5645   5646     1   109.5600471 388.275200
   5636   5645   5647     1   109.5600471 388.275200
   5637   5636   5645     1   109.8000471 387.438400
   5637   5636   5638     1   107.5800459 329.699200
   5638   5636   5645     1   109.8000471 387.438400
   5639   5651   5652     1   109.5600471 388.275200
   5639   5651   5653     1   109.5600471 388.275200
   5640   5639   5651     1   109.8000471 387.438400
   5640   5639   5641     1   107.5800459 329.699200
   5641   5639   5651     1   109.8000471 387.438400
   5642   5648   5649     1   109.5600471 388.275200
   5642   5648   5650     1   109.5600471 388.275200
   5643   5642   5648     1   109.8000471 387.438400
   5643   5642   5644     1   107.5800459 329.699200
   5644   5642   5648     1   109.8000471 387.438400
   5646   5645   5654     1   109.7800468 425.094400
   5646   5645   5647     1   108.4600466 328.025600
   5647   5645   5654     1   109.7800468 425.094400
   5649   5648  10504     1   109.7800468 425.094400
   5649   5648   5650     1   108.4600466 328.025600
   5650   5648  10504     1   109.7800468 425.094400
   5652   5651  10527     1   109.7800468 425.094400
   5652   5651   5653     1   108.4600466 328.025600
   5653   5651  10527     1   109.7800468 425.094400
   5655   5656   5657     1   109.8800469 414.216000
   5655   5656   5658     1   109.8800469 414.216000
   5655   5659   5660     1   109.8800469 414.216000
   5655   5659   5661     1   109.8800469 414.216000
   5655   5662   5663     1   109.8800469 414.216000
   5655   5662   5664     1   109.8800469 414.216000
   5656   5668   5669     1   109.8000471 387.438400
   5656   5668   5670     1   109.8000471 387.438400
   5657   5656   5668     1   109.5600471 388.275200
   5657   5656   5658     1   108.4600466 328.025600
   5658   5656   5668     1   109.5600471 388.275200
   5659   5671   5672     1   109.8000471 387.438400
   5659   5671   5673     1   109.8000471 387.438400
   5660   5659   5671     1   109.5600471 388.275200
   5660   5659   5661     1   108.4600466 328.025600
   5661   5659   5671     1   109.5600471 388.275200
   5662   5665   5666     1   109.8000471 387.438400
   5662   5665   5667     1   109.8000471 387.438400
   5663   5662   5665     1   109.5600471 388.275200
   5663   5662   5664     1   108.4600466 328.025600
   5664   5662   5665     1   109.5600471 388.275200
   5665   5674   5675     1   109.5600471 388.275200
   5665   5674   5676     1   109.5600471 388.275200
   5666   5665   5674     1   109.8000471 387.438400
   5666   5665   5667     1   107.5800459 329.699200
   5667   5665   5674     1   109.8000471 387.438400
   5668   5680   5681     1   109.5600471 388.275200
   5668   5680   5682     1   109.5600471 388.275200
   5669   5668   5680     1   109.8000471 387.438400
   5669   5668   5670     1   107.5800459 329.699200
   5670   5668   5680     1   109.8000471 387.438400
   5671   5677   5678     1   109.5600471 388.275200
   5671   5677   5679     1   109.5600471 388.275200
   5672   5671   5677     1   109.8000471 387.438400
   5672   5671   5673     1   107.5800459 329.699200
   5673   5671   5677     1   109.8000471 387.438400
   5675   5674   5683     1   109.7800468 425.094400
   5675   5674   5676     1   108.4600466 328.025600
   5676   5674   5683     1   109.7800468 425.094400
   5678   5677  10550     1   109.7800468 425.094400
   5678   5677   5679     1   108.4600466 328.025600
   5679   5677  10550     1   109.7800468 425.094400
   5681   5680  10573     1   109.7800468 425.094400
   5681   5680   5682     1   108.4600466 328.025600
   5682   5680  10573     1   109.7800468 425.094400
   5684   5685   5686     1   109.8800469 414.216000
   5684   5685   5687     1   109.8800469 414.216000
   5684   5688   5689     1   109.8800469 414.216000
   5684   5688   5690     1   109.8800469 414.216000
   5684   5691   5692     1   109.8800469 414.216000
   5684   5691   5693     1   109.8800469 414.216000
   5685   5697   5698     1   109.8000471 387.438400
   5685   5697   5699     1   109.8000471 387.438400
   5686   5685   5697     1   109.5600471 388.275200
   5686   5685   5687     1   108.4600466 328.025600
   5687   5685   5697     1   109.5600471 388.275200
   5688   5700   5701     1   109.8000471 387.438400
   5688   5700   5702     1   109.8000471 387.438400
   5689   5688   5700     1   109.5600471 388.275200
   5689   5688   5690     1   108.4600466 328.025600
   5690   5688   5700     1   109.5600471 388.275200
   5691   5694   5695     1   109.8000471 387.438400
   5691   5694   5696     1   109.8000471 387.438400
   5692   5691   5694     1   109.5600471 388.275200
   5692   5691   5693     1   108.4600466 328.025600
   5693   5691   5694     1   109.5600471 388.275200
   5694   5703   5704     1   109.5600471 388.275200
   5694   5703   5705     1   109.5600471 388.275200
   5695   5694   5703     1   109.8000471 387.438400
   5695   5694   5696     1   107.5800459 329.699200
   5696   5694   5703     1   109.8000471 387.438400
   5697   5709   5710     1   109.5600471 388.275200
   5697   5709   5711     1   109.5600471 388.275200
   5698   5697   5709     1   109.8000471 387.438400
   5698   5697   5699     1   107.5800459 329.699200
   5699   5697   5709     1   109.8000471 387.438400
   5700   5706   5707     1   109.5600471 388.275200
   5700   5706   5708     1   109.5600471 388.275200
   5701   5700   5706     1   109.8000471 387.438400
   5701   5700   5702     1   107.5800459 329.699200
   5702   5700   5706     1   109.8000471 387.438400
   5704   5703   5712     1   109.7800468 425.094400
   5704   5703   5705     1   108.4600466 328.025600
   5705   5703   5712     1   109.7800468 425.094400
   5707   5706  10596     1   109.7800468 425.094400
   5707   5706   5708     1   108.4600466 328.025600
   5708   5706  10596     1   109.7800468 425.094400
   5710   5709  10619     1   109.7800468 425.094400
   5710   5709   5711     1   108.4600466 328.025600
   5711   5709  10619     1   109.7800468 425.094400
   5713   5714   5715     1   109.8800469 414.216000
   5713   5714   5716     1   109.8800469 414.216000
   5713   5717   5718     1   109.8800469 414.216000
   5713   5717   5719     1   109.8800469 414.216000
   5713   5720   5721     1   109.8800469 414.216000
   5713   5720   5722     1   109.8800469 414.216000
   5714   5726   5727     1   109.8000471 387.438400
   5714   5726   5728     1   109.8000471 387.438400
   5715   5714   5726     1   109.5600471 388.275200
   5715   5714   5716     1   108.4600466 328.025600
   5716   5714   5726     1   109.5600471 388.275200
   5717   5729   5730     1   109.8000471 387.438400
   5717   5729   5731     1   109.8000471 387.438400
   5718   5717   5729     1   109.5600471 388.275200
   5718   5717   5719     1   108.4600466 328.025600
   5719   5717   5729     1   109.5600471 388.275200
   5720   5723   5724     1   109.8000471 387.438400
   5720   5723   5725     1   109.8000471 387.438400
   5721   5720   5723     1   109.5600471 388.275200
   5721   5720   5722     1   108.4600466 328.025600
   5722   5720   5723     1   109.5600471 388.275200
   5723   5732   5733     1   109.5600471 388.275200
   5723   5732   5734     1   109.5600471 388.275200
   5724   5723   5732     1   109.8000471 387.438400
   5724   5723   5725     1   107.5800459 329.699200
   5725   5723   5732     1   109.8000471 387.438400
   5726   5738   5739     1   109.5600471 388.275200
   5726   5738   5740     1   109.5600471 388.275200
   5727   5726   5738     1   109.8000471 387.438400
   5727   5726   5728     1   107.5800459 329.699200
   5728   5726   5738     1   109.8000471 387.438400
   5729   5735   5736     1   109.5600471 388.275200
   5729   5735   5737     1   109.5600471 388.275200
   5730   5729   5735     1   109.8000471 387.438400
   5730   5729   5731     1   107.5800459 329.699200
   5731   5729   5735     1   109.8000471 387.438400
   5733   5732   5741     1   109.7800468 425.094400
   5733   5732   5734     1   108.4600466 328.025600
   5734   5732   5741     1   109.7800468 425.094400
   5736   5735  10642     1   109.7800468 425.094400
   5736   5735   5737     1   108.4600466 328.025600
   5737   5735  10642     1   109.7800468 425.094400
   5739   5738  10665     1   109.7800468 425.094400
   5739   5738   5740     1   108.4600466 328.025600
   5740   5738  10665     1   109.7800468 425.094400
   5742   5743   5744     1   109.8800469 414.216000
   5742   5743   5745     1   109.8800469 414.216000
   5742   5746   5747     1   109.8800469 414.216000
   5742   5746   5748     1   109.8800469 414.216000
   5742   5749   5750     1   109.8800469 414.216000
   5742   5749   5751     1   109.8800469 414.216000
   5743   5755   5756     1   109.8000471 387.438400
   5743   5755   5757     1   109.8000471 387.438400
   5744   5743   5755     1   109.5600471 388.275200
   5744   5743   5745     1   108.4600466 328.025600
   5745   5743   5755     1   109.5600471 388.275200
   5746   5758   5759     1   109.8000471 387.438400
   5746   5758   5760     1   109.8000471 387.438400
   5747   5746   5758     1   109.5600471 388.275200
   5747   5746   5748     1   108.4600466 328.025600
   5748   5746   5758     1   109.5600471 388.275200
   5749   5752   5753     1   109.8000471 387.438400
   5749   5752   5754     1   109.8000471 387.438400
   5750   5749   5752     1   109.5600471 388.275200
   5750   5749   5751     1   108.4600466 328.025600
   5751   5749   5752     1   109.5600471 388.275200
   5752   5761   5762     1   109.5600471 388.275200
   5752   5761   5763     1   109.5600471 388.275200
   5753   5752   5761     1   109.8000471 387.438400
   5753   5752   5754     1   107.5800459 329.699200
   5754   5752   5761     1   109.8000471 387.438400
   5755   5767   5768     1   109.5600471 388.275200
   5755   5767   5769     1   109.5600471 388.275200
   5756   5755   5767     1   109.8000471 387.438400
   5756   5755   5757     1   107.5800459 329.699200
   5757   5755   5767     1   109.8000471 387.438400
   5758   5764   5765     1   109.5600471 388.275200
   5758   5764   5766     1   109.5600471 388.275200
   5759   5758   5764     1   109.8000471 387.438400
   5759   5758   5760     1   107.5800459 329.699200
   5760   5758   5764     1   109.8000471 387.438400
   5762   5761   5770     1   109.7800468 425.094400
   5762   5761   5763     1   108.4600466 328.025600
   5763   5761   5770     1   109.7800468 425.094400
   5765   5764  10688     1   109.7800468 425.094400
   5765   5764   5766     1   108.4600466 328.025600
   5766   5764  10688     1   109.7800468 425.094400
   5768   5767  10711     1   109.7800468 425.094400
   5768   5767   5769     1   108.4600466 328.025600
   5769   5767  10711     1   109.7800468 425.094400
   5771   5772   5773     1   109.8800469 414.216000
   5771   5772   5774     1   109.8800469 414.216000
   5771   5775   5776     1   109.8800469 414.216000
   5771   5775   5777     1   109.8800469 414.216000
   5771   5778   5779     1   109.8800469 414.216000
   5771   5778   5780     1   109.8800469 414.216000
   5772   5784   5785     1   109.8000471 387.438400
   5772   5784   5786     1   109.8000471 387.438400
   5773   5772   5784     1   109.5600471 388.275200
   5773   5772   5774     1   108.4600466 328.025600
   5774   5772   5784     1   109.5600471 388.275200
   5775   5787   5788     1   109.8000471 387.438400
   5775   5787   5789     1   109.8000471 387.438400
   5776   5775   5787     1   109.5600471 388.275200
   5776   5775   5777     1   108.4600466 328.025600
   5777   5775   5787     1   109.5600471 388.275200
   5778   5781   5782     1   109.8000471 387.438400
   5778   5781   5783     1   109.8000471 387.438400
   5779   5778   5781     1   109.5600471 388.275200
   5779   5778   5780     1   108.4600466 328.025600
   5780   5778   5781     1   109.5600471 388.275200
   5781   5790   5791     1   109.5600471 388.275200
   5781   5790   5792     1   109.5600471 388.275200
   5782   5781   5790     1   109.8000471 387.438400
   5782   5781   5783     1   107.5800459 329.699200
   5783   5781   5790     1   109.8000471 387.438400
   5784   5796   5797     1   109.5600471 388.275200
   5784   5796   5798     1   109.5600471 388.275200
   5785   5784   5796     1   109.8000471 387.438400
   5785   5784   5786     1   107.5800459 329.699200
   5786   5784   5796     1   109.8000471 387.438400
   5787   5793   5794     1   109.5600471 388.275200
   5787   5793   5795     1   109.5600471 388.275200
   5788   5787   5793     1   109.8000471 387.438400
   5788   5787   5789     1   107.5800459 329.699200
   5789   5787   5793     1   109.8000471 387.438400
   5791   5790   5799     1   109.7800468 425.094400
   5791   5790   5792     1   108.4600466 328.025600
   5792   5790   5799     1   109.7800468 425.094400
   5794   5793  10734     1   109.7800468 425.094400
   5794   5793   5795     1   108.4600466 328.025600
   5795   5793  10734     1   109.7800468 425.094400
   5797   5796  10757     1   109.7800468 425.094400
   5797   5796   5798     1   108.4600466 328.025600
   5798   5796  10757     1   109.7800468 425.094400
   5800   5801   5802     1   109.8800469 414.216000
   5800   5801   5803     1   109.8800469 414.216000
   5800   5804   5805     1   109.8800469 414.216000
   5800   5804   5806     1   109.8800469 414.216000
   5800   5807   5808     1   109.8800469 414.216000
   5800   5807   5809     1   109.8800469 414.216000
   5801   5813   5814     1   109.8000471 387.438400
   5801   5813   5815     1   109.8000471 387.438400
   5802   5801   5813     1   109.5600471 388.275200
   5802   5801   5803     1   108.4600466 328.025600
   5803   5801   5813     1   109.5600471 388.275200
   5804   5816   5817     1   109.8000471 387.438400
   5804   5816   5818     1   109.8000471 387.438400
   5805   5804   5816     1   109.5600471 388.275200
   5805   5804   5806     1   108.4600466 328.025600
   5806   5804   5816     1   109.5600471 388.275200
   5807   5810   5811     1   109.8000471 387.438400
   5807   5810   5812     1   109.8000471 387.438400
   5808   5807   5810     1   109.5600471 388.275200
   5808   5807   5809     1   108.4600466 328.025600
   5809   5807   5810     1   109.5600471 388.275200
   5810   5819   5820     1   109.5600471 388.275200
   5810   5819   5821     1   109.5600471 388.275200
   5811   5810   5819     1   109.8000471 387.438400
   5811   5810   5812     1   107.5800459 329.699200
   5812   5810   5819     1   109.8000471 387.438400
   5813   5825   5826     1   109.5600471 388.275200
   5813   5825   5827     1   109.5600471 388.275200
   5814   5813   5825     1   109.8000471 387.438400
   5814   5813   5815     1   107.5800459 329.699200
   5815   5813   5825     1   109.8000471 387.438400
   5816   5822   5823     1   109.5600471 388.275200
   5816   5822   5824     1   109.5600471 388.275200
   5817   5816   5822     1   109.8000471 387.438400
   5817   5816   5818     1   107.5800459 329.699200
   5818   5816   5822     1   109.8000471 387.438400
   5820   5819   5828     1   109.7800468 425.094400
   5820   5819   5821     1   108.4600466 328.025600
   5821   5819   5828     1   109.7800468 425.094400
   5823   5822  10780     1   109.7800468 425.094400
   5823   5822   5824     1   108.4600466 328.025600
   5824   5822  10780     1   109.7800468 425.094400
   5826   5825  10803     1   109.7800468 425.094400
   5826   5825   5827     1   108.4600466 328.025600
   5827   5825  10803     1   109.7800468 425.094400
   5829   5830   5831     1   109.8800469 414.216000
   5829   5830   5832     1   109.8800469 414.216000
   5829   5833   5834     1   109.8800469 414.216000
   5829   5833   5835     1   109.8800469 414.216000
   5829   5836   5837     1   109.8800469 414.216000
   5829   5836   5838     1   109.8800469 414.216000
   5830   5842   5843     1   109.8000471 387.438400
   5830   5842   5844     1   109.8000471 387.438400
   5831   5830   5842     1   109.5600471 388.275200
   5831   5830   5832     1   108.4600466 328.025600
   5832   5830   5842     1   109.5600471 388.275200
   5833   5845   5846     1   109.8000471 387.438400
   5833   5845   5847     1   109.8000471 387.438400
   5834   5833   5845     1   109.5600471 388.275200
   5834   5833   5835     1   108.4600466 328.025600
   5835   5833   5845     1   109.5600471 388.275200
   5836   5839   5840     1   109.8000471 387.438400
   5836   5839   5841     1   109.8000471 387.438400
   5837   5836   5839     1   109.5600471 388.275200
   5837   5836   5838     1   108.4600466 328.025600
   5838   5836   5839     1   109.5600471 388.275200
   5839   5848   5849     1   109.5600471 388.275200
   5839   5848   5850     1   109.5600471 388.275200
   5840   5839   5848     1   109.8000471 387.438400
   5840   5839   5841     1   107.5800459 329.699200
   5841   5839   5848     1   109.8000471 387.438400
   5842   5854   5855     1   109.5600471 388.275200
   5842   5854   5856     1   109.5600471 388.275200
   5843   5842   5854     1   109.8000471 387.438400
   5843   5842   5844     1   107.5800459 329.699200
   5844   5842   5854     1   109.8000471 387.438400
   5845   5851   5852     1   109.5600471 388.275200
   5845   5851   5853     1   109.5600471 388.275200
   5846   5845   5851     1   109.8000471 387.438400
   5846   5845   5847     1   107.5800459 329.699200
   5847   5845   5851     1   109.8000471 387.438400
   5849   5848   5857     1   109.7800468 425.094400
   5849   5848   5850     1   108.4600466 328.025600
   5850   5848   5857     1   109.7800468 425.094400
   5852   5851  10826     1   109.7800468 425.094400
   5852   5851   5853     1   108.4600466 328.025600
   5853   5851  10826     1   109.7800468 425.094400
   5855   5854  10849     1   109.7800468 425.094400
   5855   5854   5856     1   108.4600466 328.025600
   5856   5854  10849     1   109.7800468 425.094400
   5858   5859   5860     1   109.8800469 414.216000
   5858   5859   5861     1   109.8800469 414.216000
   5858   5862   5863     1   109.8800469 414.216000
   5858   5862   5864     1   109.8800469 414.216000
   5858   5865   5866     1   109.8800469 414.216000
   5858   5865   5867     1   109.8800469 414.216000
   5859   5871   5872     1   109.8000471 387.438400
   5859   5871   5873     1   109.8000471 387.438400
   5860   5859   5871     1   109.5600471 388.275200
   5860   5859   5861     1   108.4600466 328.025600
   5861   5859   5871     1   109.5600471 388.275200
   5862   5874   5875     1   109.8000471 387.438400
   5862   5874   5876     1   109.8000471 387.438400
   5863   5862   5874     1   109.5600471 388.275200
   5863   5862   5864     1   108.4600466 328.025600
   5864   5862   5874     1   109.5600471 388.275200
   5865   5868   5869     1   109.8000471 387.438400
   5865   5868   5870     1   109.8000471 387.438400
   5866   5865   5868     1   109.5600471 388.275200
   5866   5865   5867     1   108.4600466 328.025600
   5867   5865   5868     1   109.5600471 388.275200
   5868   5877   5878     1   109.5600471 388.275200
   5868   5877   5879     1   109.5600471 388.275200
   5869   5868   5877     1   109.8000471 387.438400
   5869   5868   5870     1   107.5800459 329.699200
   5870   5868   5877     1   109.8000471 387.438400
   5871   5883   5884     1   109.5600471 388.275200
   5871   5883   5885     1   109.5600471 388.275200
   5872   5871   5883     1   109.8000471 387.438400
   5872   5871   5873     1   107.5800459 329.699200
   5873   5871   5883     1   109.8000471 387.438400
   5874   5880   5881     1   109.5600471 388.275200
   5874   5880   5882     1   109.5600471 388.275200
   5875   5874   5880     1   109.8000471 387.438400
   5875   5874   5876     1   107.5800459 329.699200
   5876   5874   5880     1   109.8000471 387.438400
   5878   5877   5886     1   109.7800468 425.094400
   5878   5877   5879     1   108.4600466 328.025600
   5879   5877   5886     1   109.7800468 425.094400
   5881   5880  10872     1   109.7800468 425.094400
   5881   5880   5882     1   108.4600466 328.025600
   5882   5880  10872     1   109.7800468 425.094400
   5884   5883  10895     1   109.7800468 425.094400
   5884   5883   5885     1   108.4600466 328.025600
   5885   5883  10895     1   109.7800468 425.094400
   5887   5888   5889     1   109.8800469 414.216000
   5887   5888   5890     1   109.8800469 414.216000
   5887   5891   5892     1   109.8800469 414.216000
   5887   5891   5893     1   109.8800469 414.216000
   5887   5894   5895     1   109.8800469 414.216000
   5887   5894   5896     1   109.8800469 414.216000
   5888   5900   5901     1   109.8000471 387.438400
   5888   5900   5902     1   109.8000471 387.438400
   5889   5888   5900     1   109.5600471 388.275200
   5889   5888   5890     1   108.4600466 328.025600
   5890   5888   5900     1   109.5600471 388.275200
   5891   5903   5904     1   109.8000471 387.438400
   5891   5903   5905     1   109.8000471 387.438400
   5892   5891   5903     1   109.5600471 388.275200
   5892   5891   5893     1   108.4600466 328.025600
   5893   5891   5903     1   109.5600471 388.275200
   5894   5897   5898     1   109.8000471 387.438400
   5894   5897   5899     1   109.8000471 387.438400
   5895   5894   5897     1   109.5600471 388.275200
   5895   5894   5896     1   108.4600466 328.025600
   5896   5894   5897     1   109.5600471 388.275200
   5897   5906   5907     1   109.5600471 388.275200
   5897   5906   5908     1   109.5600471 388.275200
   5898   5897   5906     1   109.8000471 387.438400
   5898   5897   5899     1   107.5800459 329.699200
   5899   5897   5906     1   109.8000471 387.438400
   5900   5912   5913     1   109.5600471 388.275200
   5900   5912   5914     1   109.5600471 388.275200
   5901   5900   5912     1   109.8000471 387.438400
   5901   5900   5902     1   107.5800459 329.699200
   5902   5900   5912     1   109.8000471 387.438400
   5903   5909   5910     1   109.5600471 388.275200
   5903   5909   5911     1   109.5600471 388.275200
   5904   5903   5909     1   109.8000471 387.438400
   5904   5903   5905     1   107.5800459 329.699200
   5905   5903   5909     1   109.8000471 387.438400
   5907   5906   5915     1   109.7800468 425.094400
   5907   5906   5908     1   108.4600466 328.025600
   5908   5906   5915     1   109.7800468 425.094400
   5910   5909  10918     1   109.7800468 425.094400
   5910   5909   5911     1   108.4600466 328.025600
   5911   5909  10918     1   109.7800468 425.094400
   5913   5912  10941     1   109.7800468 425.094400
   5913   5912   5914     1   108.4600466 328.025600
   5914   5912  10941     1   109.7800468 425.094400
   5916   5917   5918     1   109.8800469 414.216000
   5916   5917   5919     1   109.8800469 414.216000
   5916   5920   5921     1   109.8800469 414.216000
   5916   5920   5922     1   109.8800469 414.216000
   5916   5923   5924     1   109.8800469 414.216000
   5916   5923   5925     1   109.8800469 414.216000
   5917   5929   5930     1   109.8000471 387.438400
   5917   5929   5931     1   109.8000471 387.438400
   5918   5917   5929     1   109.5600471 388.275200
   5918   5917   5919     1   108.4600466 328.025600
   5919   5917   5929     1   109.5600471 388.275200
   5920   5932   5933     1   109.8000471 387.438400
   5920   5932   5934     1   109.8000471 387.438400
   5921   5920   5932     1   109.5600471 388.275200
   5921   5920   5922     1   108.4600466 328.025600
   5922   5920   5932     1   109.5600471 388.275200
   5923   5926   5927     1   109.8000471 387.438400
   5923   5926   5928     1   109.8000471 387.438400
   5924   5923   5926     1   109.5600471 388.275200
   5924   5923   5925     1   108.4600466 328.025600
   5925   5923   5926     1   109.5600471 388.275200
   5926   5935   5936     1   109.5600471 388.275200
   5926   5935   5937     1   109.5600471 388.275200
   5927   5926   5935     1   109.8000471 387.438400
   5927   5926   5928     1   107.5800459 329.699200
   5928   5926   5935     1   109.8000471 387.438400
   5929   5941   5942     1   109.5600471 388.275200
   5929   5941   5943     1   109.5600471 388.275200
   5930   5929   5941     1   109.8000471 387.438400
   5930   5929   5931     1   107.5800459 329.699200
   5931   5929   5941     1   109.8000471 387.438400
   5932   5938   5939     1   109.5600471 388.275200
   5932   5938   5940     1   109.5600471 388.275200
   5933   5932   5938     1   109.8000471 387.438400
   5933   5932   5934     1   107.5800459 329.699200
   5934   5932   5938     1   109.8000471 387.438400
   5936   5935   5944     1   109.7800468 425.094400
   5936   5935   5937     1   108.4600466 328.025600
   5937   5935   5944     1   109.7800468 425.094400
   5939   5938  10964     1   109.7800468 425.094400
   5939   5938   5940     1   108.4600466 328.025600
   5940   5938  10964     1   109.7800468 425.094400
   5942   5941  10987     1   109.7800468 425.094400
   5942   5941   5943     1   108.4600466 328.025600
   5943   5941  10987     1   109.7800468 425.094400
   5945   5946   5947     1   109.8800469 414.216000
   5945   5946   5948     1   109.8800469 414.216000
   5945   5949   5950     1   109.8800469 414.216000
   5945   5949   5951     1   109.8800469 414.216000
   5945   5952   5953     1   109.8800469 414.216000
   5945   5952   5954     1   109.8800469 414.216000
   5946   5958   5959     1   109.8000471 387.438400
   5946   5958   5960     1   109.8000471 387.438400
   5947   5946   5958     1   109.5600471 388.275200
   5947   5946   5948     1   108.4600466 328.025600
   5948   5946   5958     1   109.5600471 388.275200
   5949   5961   5962     1   109.8000471 387.438400
   5949   5961   5963     1   109.8000471 387.438400
   5950   5949   5961     1   109.5600471 388.275200
   5950   5949   5951     1   108.4600466 328.025600
   5951   5949   5961     1   109.5600471 388.275200
   5952   5955   5956     1   109.8000471 387.438400
   5952   5955   5957     1   109.8000471 387.438400
   5953   5952   5955     1   109.5600471 388.275200
   5953   5952   5954     1   108.4600466 328.025600
   5954   5952   5955     1   109.5600471 388.275200
   5955   5964   5965     1   109.5600471 388.275200
   5955   5964   5966     1   109.5600471 388.275200
   5956   5955   5964     1   109.8000471 387.438400
   5956   5955   5957     1   107.5800459 329.699200
   5957   5955   5964     1   109.8000471 387.438400
   5958   5970   5971     1   109.5600471 388.275200
   5958   5970   5972     1   109.5600471 388.275200
   5959   5958   5970     1   109.8000471 387.438400
   5959   5958   5960     1   107.5800459 329.699200
   5960   5958   5970     1   109.8000471 387.438400
   5961   5967   5968     1   109.5600471 388.275200
   5961   5967   5969     1   109.5600471 388.275200
   5962   5961   5967     1   109.8000471 387.438400
   5962   5961   5963     1   107.5800459 329.699200
   5963   5961   5967     1   109.8000471 387.438400
   5965   5964   5973     1   109.7800468 425.094400
   5965   5964   5966     1   108.4600466 328.025600
   5966   5964   5973     1   109.7800468 425.094400
   5968   5967  11010     1   109.7800468 425.094400
   5968   5967   5969     1   108.4600466 328.025600
   5969   5967  11010     1   109.7800468 425.094400
   5971   5970  11033     1   109.7800468 425.094400
   5971   5970   5972     1   108.4600466 328.025600
   5972   5970  11033     1   109.7800468 425.094400
   5974   5975   5976     1   109.8800469 414.216000
   5974   5975   5977     1   109.8800469 414.216000
   5974   5978   5979     1   109.8800469 414.216000
   5974   5978   5980     1   109.8800469 414.216000
   5974   5981   5982     1   109.8800469 414.216000
   5974   5981   5983     1   109.8800469 414.216000
   5975   5987   5988     1   109.8000471 387.438400
   5975   5987   5989     1   109.8000471 387.438400
   5976   5975   5987     1   109.5600471 388.275200
   5976   5975   5977     1   108.4600466 328.025600
   5977   5975   5987     1   109.5600471 388.275200
   5978   5990   5991     1   109.8000471 387.438400
   5978   5990   5992     1   109.8000471 387.438400
   5979   5978   5990     1   109.5600471 388.275200
   5979   5978   5980     1   108.4600466 328.025600
   5980   5978   5990     1   109.5600471 388.275200
   5981   5984   5985     1   109.8000471 387.438400
   5981   5984   5986     1   109.8000471 387.438400
   5982   5981   5984     1   109.5600471 388.275200
   5982   5981   5983     1   108.4600466 328.025600
   5983   5981   5984     1   109.5600471 388.275200
   5984   5993   5994     1   109.5600471 388.275200
   5984   5993   5995     1   109.5600471 388.275200
   5985   5984   5993     1   109.8000471 387.438400
   5985   5984   5986     1   107.5800459 329.699200
   5986   5984   5993     1   109.8000471 387.438400
   5987   5999   6000     1   109.5600471 388.275200
   5987   5999   6001     1   109.5600471 388.275200
   5988   5987   5999     1   109.8000471 387.438400
   5988   5987   5989     1   107.5800459 329.699200
   5989   5987   5999     1   109.8000471 387.438400
   5990   5996   5997     1   109.5600471 388.275200
   5990   5996   5998     1   109.5600471 388.275200
   5991   5990   5996     1   109.8000471 387.438400
   5991   5990   5992     1   107.5800459 329.699200
   5992   5990   5996     1   109.8000471 387.438400
   5994   5993   6002     1   109.7800468 425.094400
   5994   5993   5995     1   108.4600466 328.025600
   5995   5993   6002     1   109.7800468 425.094400
   5997   5996  11056     1   109.7800468 425.094400
   5997   5996   5998     1   108.4600466 328.025600
   5998   5996  11056     1   109.7800468 425.094400
   6000   5999  11079     1   109.7800468 425.094400
   6000   5999   6001     1   108.4600466 328.025600
   6001   5999  11079     1   109.7800468 425.094400
   6003   6004   6005     1   109.8800469 414.216000
   6003   6004   6006     1   109.8800469 414.216000
   6003   6007   6008     1   109.8800469 414.216000
   6003   6007   6009     1   109.8800469 414.216000
   6003   6010   6011     1   109.8800469 414.216000
   6003   6010   6012     1   109.8800469 414.216000
   6004   6016   6017     1   109.8000471 387.438400
   6004   6016   6018     1   109.8000471 387.438400
   6005   6004   6016     1   109.5600471 388.275200
   6005   6004   6006     1   108.4600466 328.025600
   6006   6004   6016     1   109.5600471 388.275200
   6007   6019   6020     1   109.8000471 387.438400
   6007   6019   6021     1   109.8000471 387.438400
   6008   6007   6019     1   109.5600471 388.275200
   6008   6007   6009     1   108.4600466 328.025600
   6009   6007   6019     1   109.5600471 388.275200
   6010   6013   6014     1   109.8000471 387.438400
   6010   6013   6015     1   109.8000471 387.438400
   6011   6010   6013     1   109.5600471 388.275200
   6011   6010   6012     1   108.4600466 328.025600
   6012   6010   6013     1   109.5600471 388.275200
   6013   6022   6023     1   109.5600471 388.275200
   6013   6022   6024     1   109.5600471 388.275200
   6014   6013   6022     1   109.8000471 387.438400
   6014   6013   6015     1   107.5800459 329.699200
   6015   6013   6022     1   109.8000471 387.438400
   6016   6028   6029     1   109.5600471 388.275200
   6016   6028   6030     1   109.5600471 388.275200
   6017   6016   6028     1   109.8000471 387.438400
   6017   6016   6018     1   107.5800459 329.699200
   6018   6016   6028     1   109.8000471 387.438400
   6019   6025   6026     1   109.5600471 388.275200
   6019   6025   6027     1   109.5600471 388.275200
   6020   6019   6025     1   109.8000471 387.438400
   6020   6019   6021     1   107.5800459 329.699200
   6021   6019   6025     1   109.8000471 387.438400
   6023   6022   6031     1   109.7800468 425.094400
   6023   6022   6024     1   108.4600466 328.025600
   6024   6022   6031     1   109.7800468 425.094400
   6026   6025  11102     1   109.7800468 425.094400
   6026   6025   6027     1   108.4600466 328.025600
   6027   6025  11102     1   109.7800468 425.094400
   6029   6028  11125     1   109.7800468 425.094400
   6029   6028   6030     1   108.4600466 328.025600
   6030   6028  11125     1   109.7800468 425.094400
   6032   6033   6034     1   109.8800469 414.216000
   6032   6033   6035     1   109.8800469 414.216000
   6032   6036   6037     1   109.8800469 414.216000
   6032   6036   6038     1   109.8800469 414.216000
   6032   6039   6040     1   109.8800469 414.216000
   6032   6039   6041     1   109.8800469 414.216000
   6033   6045   6046     1   109.8000471 387.438400
   6033   6045   6047     1   109.8000471 387.438400
   6034   6033   6045     1   109.5600471 388.275200
   6034   6033   6035     1   108.4600466 328.025600
   6035   6033   6045     1   109.5600471 388.275200
   6036   6048   6049     1   109.8000471 387.438400
   6036   6048   6050     1   109.8000471 387.438400
   6037   6036   6048     1   109.5600471 388.275200
   6037   6036   6038     1   108.4600466 328.025600
   6038   6036   6048     1   109.5600471 388.275200
   6039   6042   6043     1   109.8000471 387.438400
   6039   6042   6044     1   109.8000471 387.438400
   6040   6039   6042     1   109.5600471 388.275200
   6040   6039   6041     1   108.4600466 328.025600
   6041   6039   6042     1   109.5600471 388.275200
   6042   6051   6052     1   109.5600471 388.275200
   6042   6051   6053     1   109.5600471 388.275200
   6043   6042   6051     1   109.8000471 387.438400
   6043   6042   6044     1   107.5800459 329.699200
   6044   6042   6051     1   109.8000471 387.438400
   6045   6057   6058     1   109.5600471 388.275200
   6045   6057   6059     1   109.5600471 388.275200
   6046   6045   6057     1   109.8000471 387.438400
   6046   6045   6047     1   107.5800459 329.699200
   6047   6045   6057     1   109.8000471 387.438400
   6048   6054   6055     1   109.5600471 388.275200
   6048   6054   6056     1   109.5600471 388.275200
   6049   6048   6054     1   109.8000471 387.438400
   6049   6048   6050     1   107.5800459 329.699200
   6050   6048   6054     1   109.8000471 387.438400
   6052   6051   6060     1   109.7800468 425.094400
   6052   6051   6053     1   108.4600466 328.025600
   6053   6051   6060     1   109.7800468 425.094400
   6055   6054  11148     1   109.7800468 425.094400
   6055   6054   6056     1   108.4600466 328.025600
   6056   6054  11148     1   109.7800468 425.094400
   6058   6057  11171     1   109.7800468 425.094400
   6058   6057   6059     1   108.4600466 328.025600
   6059   6057  11171     1   109.7800468 425.094400
   6061   6062   6063     1   109.8800469 414.216000
   6061   6062   6064     1   109.8800469 414.216000
   6061   6065   6066     1   109.8800469 414.216000
   6061   6065   6067     1   109.8800469 414.216000
   6061   6068   6069     1   109.8800469 414.216000
   6061   6068   6070     1   109.8800469 414.216000
   6062   6074   6075     1   109.8000471 387.438400
   6062   6074   6076     1   109.8000471 387.438400
   6063   6062   6074     1   109.5600471 388.275200
   6063   6062   6064     1   108.4600466 328.025600
   6064   6062   6074     1   109.5600471 388.275200
   6065   6077   6078     1   109.8000471 387.438400
   6065   6077   6079     1   109.8000471 387.438400
   6066   6065   6077     1   109.5600471 388.275200
   6066   6065   6067     1   108.4600466 328.025600
   6067   6065   6077     1   109.5600471 388.275200
   6068   6071   6072     1   109.8000471 387.438400
   6068   6071   6073     1   109.8000471 387.438400
   6069   6068   6071     1   109.5600471 388.275200
   6069   6068   6070     1   108.4600466 328.025600
   6070   6068   6071     1   109.5600471 388.275200
   6071   6080   6081     1   109.5600471 388.275200
   6071   6080   6082     1   109.5600471 388.275200
   6072   6071   6080     1   109.8000471 387.438400
   6072   6071   6073     1   107.5800459 329.699200
   6073   6071   6080     1   109.8000471 387.438400
   6074   6086   6087     1   109.5600471 388.275200
   6074   6086   6088     1   109.5600471 388.275200
   6075   6074   6086     1   109.8000471 387.438400
   6075   6074   6076     1   107.5800459 329.699200
   6076   6074   6086     1   109.8000471 387.438400
   6077   6083   6084     1   109.5600471 388.275200
   6077   6083   6085     1   109.5600471 388.275200
   6078   6077   6083     1   109.8000471 387.438400
   6078   6077   6079     1   107.5800459 329.699200
   6079   6077   6083     1   109.8000471 387.438400
   6081   6080   6089     1   109.7800468 425.094400
   6081   6080   6082     1   108.4600466 328.025600
   6082   6080   6089     1   109.7800468 425.094400
   6084   6083  11194     1   109.7800468 425.094400
   6084   6083   6085     1   108.4600466 328.025600
   6085   6083  11194     1   109.7800468 425.094400
   6087   6086  11217     1   109.7800468 425.094400
   6087   6086   6088     1   108.4600466 328.025600
   6088   6086  11217     1   109.7800468 425.094400
   6090   6091   6092     1   109.8800469 414.216000
   6090   6091   6093     1   109.8800469 414.216000
   6090   6094   6095     1   109.8800469 414.216000
   6090   6094   6096     1   109.8800469 414.216000
   6090   6097   6098     1   109.8800469 414.216000
   6090   6097   6099     1   109.8800469 414.216000
   6091   6103   6104     1   109.8000471 387.438400
   6091   6103   6105     1   109.8000471 387.438400
   6092   6091   6103     1   109.5600471 388.275200
   6092   6091   6093     1   108.4600466 328.025600
   6093   6091   6103     1   109.5600471 388.275200
   6094   6106   6107     1   109.8000471 387.438400
   6094   6106   6108     1   109.8000471 387.438400
   6095   6094   6106     1   109.5600471 388.275200
   6095   6094   6096     1   108.4600466 328.025600
   6096   6094   6106     1   109.5600471 388.275200
   6097   6100   6101     1   109.8000471 387.438400
   6097   6100   6102     1   109.8000471 387.438400
   6098   6097   6100     1   109.5600471 388.275200
   6098   6097   6099     1   108.4600466 328.025600
   6099   6097   6100     1   109.5600471 388.275200
   6100   6109   6110     1   109.5600471 388.275200
   6100   6109   6111     1   109.5600471 388.275200
   6101   6100   6109     1   109.8000471 387.438400
   6101   6100   6102     1   107.5800459 329.699200
   6102   6100   6109     1   109.8000471 387.438400
   6103   6115   6116     1   109.5600471 388.275200
   6103   6115   6117     1   109.5600471 388.275200
   6104   6103   6115     1   109.8000471 387.438400
   6104   6103   6105     1   107.5800459 329.699200
   6105   6103   6115     1   109.8000471 387.438400
   6106   6112   6113     1   109.5600471 388.275200
   6106   6112   6114     1   109.5600471 388.275200
   6107   6106   6112     1   109.8000471 387.438400
   6107   6106   6108     1   107.5800459 329.699200
   6108   6106   6112     1   109.8000471 387.438400
   6110   6109   6118     1   109.7800468 425.094400
   6110   6109   6111     1   108.4600466 328.025600
   6111   6109   6118     1   109.7800468 425.094400
   6113   6112  11240     1   109.7800468 425.094400
   6113   6112   6114     1   108.4600466 328.025600
   6114   6112  11240     1   109.7800468 425.094400
   6116   6115  11263     1   109.7800468 425.094400
   6116   6115   6117     1   108.4600466 328.025600
   6117   6115  11263     1   109.7800468 425.094400
   6119   6120   6121     1   109.8800469 414.216000
   6119   6120   6122     1   109.8800469 414.216000
   6119   6123   6124     1   109.8800469 414.216000
   6119   6123   6125     1   109.8800469 414.216000
   6119   6126   6127     1   109.8800469 414.216000
   6119   6126   6128     1   109.8800469 414.216000
   6120   6132   6133     1   109.8000471 387.438400
   6120   6132   6134     1   109.8000471 387.438400
   6121   6120   6132     1   109.5600471 388.275200
   6121   6120   6122     1   108.4600466 328.025600
   6122   6120   6132     1   109.5600471 388.275200
   6123   6135   6136     1   109.8000471 387.438400
   6123   6135   6137     1   109.8000471 387.438400
   6124   6123   6135     1   109.5600471 388.275200
   6124   6123   6125     1   108.4600466 328.025600
   6125   6123   6135     1   109.5600471 388.275200
   6126   6129   6130     1   109.8000471 387.438400
   6126   6129   6131     1   109.8000471 387.438400
   6127   6126   6129     1   109.5600471 388.275200
   6127   6126   6128     1   108.4600466 328.025600
   6128   6126   6129     1   109.5600471 388.275200
   6129   6138   6139     1   109.5600471 388.275200
   6129   6138   6140     1   109.5600471 388.275200
   6130   6129   6138     1   109.8000471 387.438400
   6130   6129   6131     1   107.5800459 329.699200
   6131   6129   6138     1   109.8000471 387.438400
   6132   6144   6145     1   109.5600471 388.275200
   6132   6144   6146     1   109.5600471 388.275200
   6133   6132   6144     1   109.8000471 387.438400
   6133   6132   6134     1   107.5800459 329.699200
   6134   6132   6144     1   109.8000471 387.438400
   6135   6141   6142     1   109.5600471 388.275200
   6135   6141   6143     1   109.5600471 388.275200
   6136   6135   6141     1   109.8000471 387.438400
   6136   6135   6137     1   107.5800459 329.699200
   6137   6135   6141     1   109.8000471 387.438400
   6139   6138   6147     1   109.7800468 425.094400
   6139   6138   6140     1   108.4600466 328.025600
   6140   6138   6147     1   109.7800468 425.094400
   6142   6141  11286     1   109.7800468 425.094400
   6142   6141   6143     1   108.4600466 328.025600
   6143   6141  11286     1   109.7800468 425.094400
   6145   6144  11309     1   109.7800468 425.094400
   6145   6144   6146     1   108.4600466 328.025600
   6146   6144  11309     1   109.7800468 425.094400
   6148   6149   6150     1   109.8800469 414.216000
   6148   6149   6151     1   109.8800469 414.216000
   6148   6152   6153     1   109.8800469 414.216000
   6148   6152   6154     1   109.8800469 414.216000
   6148   6155   6156     1   109.8800469 414.216000
   6148   6155   6157     1   109.8800469 414.216000
   6149   6161   6162     1   109.8000471 387.438400
   6149   6161   6163     1   109.8000471 387.438400
   6150   6149   6161     1   109.5600471 388.275200
   6150   6149   6151     1   108.4600466 328.025600
   6151   6149   6161     1   109.5600471 388.275200
   6152   6164   6165     1   109.8000471 387.438400
   6152   6164   6166     1   109.8000471 387.438400
   6153   6152   6164     1   109.5600471 388.275200
   6153   6152   6154     1   108.4600466 328.025600
   6154   6152   6164     1   109.5600471 388.275200
   6155   6158   6159     1   109.8000471 387.438400
   6155   6158   6160     1   109.8000471 387.438400
   6156   6155   6158     1   109.5600471 388.275200
   6156   6155   6157     1   108.4600466 328.025600
   6157   6155   6158     1   109.5600471 388.275200
   6158   6167   6168     1   109.5600471 388.275200
   6158   6167   6169     1   109.5600471 388.275200
   6159   6158   6167     1   109.8000471 387.438400
   6159   6158   6160     1   107.5800459 329.699200
   6160   6158   6167     1   109.8000471 387.438400
   6161   6173   6174     1   109.5600471 388.275200
   6161   6173   6175     1   109.5600471 388.275200
   6162   6161   6173     1   109.8000471 387.438400
   6162   6161   6163     1   107.5800459 329.699200
   6163   6161   6173     1   109.8000471 387.438400
   6164   6170   6171     1   109.5600471 388.275200
   6164   6170   6172     1   109.5600471 388.275200
   6165   6164   6170     1   109.8000471 387.438400
   6165   6164   6166     1   107.5800459 329.699200
   6166   6164   6170     1   109.8000471 387.438400
   6168   6167   6176     1   109.7800468 425.094400
   6168   6167   6169     1   108.4600466 328.025600
   6169   6167   6176     1   109.7800468 425.094400
   6171   6170  11332     1   109.7800468 425.094400
   6171   6170   6172     1   108.4600466 328.025600
   6172   6170  11332     1   109.7800468 425.094400
   6174   6173  11355     1   109.7800468 425.094400
   6174   6173   6175     1   108.4600466 328.025600
   6175   6173  11355     1   109.7800468 425.094400
   6177   6178   6179     1   109.8800469 414.216000
   6177   6178   6180     1   109.8800469 414.216000
   6177   6181   6182     1   109.8800469 414.216000
   6177   6181   6183     1   109.8800469 414.216000
   6177   6184   6185     1   109.8800469 414.216000
   6177   6184   6186     1   109.8800469 414.216000
   6178   6190   6191     1   109.8000471 387.438400
   6178   6190   6192     1   109.8000471 387.438400
   6179   6178   6190     1   109.5600471 388.275200
   6179   6178   6180     1   108.4600466 328.025600
   6180   6178   6190     1   109.5600471 388.275200
   6181   6193   6194     1   109.8000471 387.438400
   6181   6193   6195     1   109.8000471 387.438400
   6182   6181   6193     1   109.5600471 388.275200
   6182   6181   6183     1   108.4600466 328.025600
   6183   6181   6193     1   109.5600471 388.275200
   6184   6187   6188     1   109.8000471 387.438400
   6184   6187   6189     1   109.8000471 387.438400
   6185   6184   6187     1   109.5600471 388.275200
   6185   6184   6186     1   108.4600466 328.025600
   6186   6184   6187     1   109.5600471 388.275200
   6187   6196   6197     1   109.5600471 388.275200
   6187   6196   6198     1   109.5600471 388.275200
   6188   6187   6196     1   109.8000471 387.438400
   6188   6187   6189     1   107.5800459 329.699200
   6189   6187   6196     1   109.8000471 387.438400
   6190   6202   6203     1   109.5600471 388.275200
   6190   6202   6204     1   109.5600471 388.275200
   6191   6190   6202     1   109.8000471 387.438400
   6191   6190   6192     1   107.5800459 329.699200
   6192   6190   6202     1   109.8000471 387.438400
   6193   6199   6200     1   109.5600471 388.275200
   6193   6199   6201     1   109.5600471 388.275200
   6194   6193   6199     1   109.8000471 387.438400
   6194   6193   6195     1   107.5800459 329.699200
   6195   6193   6199     1   109.8000471 387.438400
   6197   6196   6205     1   109.7800468 425.094400
   6197   6196   6198     1   108.4600466 328.025600
   6198   6196   6205     1   109.7800468 425.094400
   6200   6199  11378     1   109.7800468 425.094400
   6200   6199   6201     1   108.4600466 328.025600
   6201   6199  11378     1   109.7800468 425.094400
   6203   6202  11401     1   109.7800468 425.094400
   6203   6202   6204     1   108.4600466 328.025600
   6204   6202  11401     1   109.7800468 425.094400
   6206   6207   6208     1   109.8800469 414.216000
   6206   6207   6209     1   109.8800469 414.216000
   6206   6210   6211     1   109.8800469 414.216000
   6206   6210   6212     1   109.8800469 414.216000
   6206   6213   6214     1   109.8800469 414.216000
   6206   6213   6215     1   109.8800469 414.216000
   6207   6219   6220     1   109.8000471 387.438400
   6207   6219   6221     1   109.8000471 387.438400
   6208   6207   6219     1   109.5600471 388.275200
   6208   6207   6209     1   108.4600466 328.025600
   6209   6207   6219     1   109.5600471 388.275200
   6210   6222   6223     1   109.8000471 387.438400
   6210   6222   6224     1   109.8000471 387.438400
   6211   6210   6222     1   109.5600471 388.275200
   6211   6210   6212     1   108.4600466 328.025600
   6212   6210   6222     1   109.5600471 388.275200
   6213   6216   6217     1   109.8000471 387.438400
   6213   6216   6218     1   109.8000471 387.438400
   6214   6213   6216     1   109.5600471 388.275200
   6214   6213   6215     1   108.4600466 328.025600
   6215   6213   6216     1   109.5600471 388.275200
   6216   6225   6226     1   109.5600471 388.275200
   6216   6225   6227     1   109.5600471 388.275200
   6217   6216   6225     1   109.8000471 387.438400
   6217   6216   6218     1   107.5800459 329.699200
   6218   6216   6225     1   109.8000471 387.438400
   6219   6231   6232     1   109.5600471 388.275200
   6219   6231   6233     1   109.5600471 388.275200
   6220   6219   6231     1   109.8000471 387.438400
   6220   6219   6221     1   107.5800459 329.699200
   6221   6219   6231     1   109.8000471 387.438400
   6222   6228   6229     1   109.5600471 388.275200
   6222   6228   6230     1   109.5600471 388.275200
   6223   6222   6228     1   109.8000471 387.438400
   6223   6222   6224     1   107.5800459 329.699200
   6224   6222   6228     1   109.8000471 387.438400
   6226   6225   6234     1   109.7800468 425.094400
   6226   6225   6227     1   108.4600466 328.025600
   6227   6225   6234     1   109.7800468 425.094400
   6229   6228  11424     1   109.7800468 425.094400
   6229   6228   6230     1   108.4600466 328.025600
   6230   6228  11424     1   109.7800468 425.094400
   6232   6231  11447     1   109.7800468 425.094400
   6232   6231   6233     1   108.4600466 328.025600
   6233   6231  11447     1   109.7800468 425.094400
   6235   6236   6237     1   109.8800469 414.216000
   6235   6236   6238     1   109.8800469 414.216000
   6235   6239   6240     1   109.8800469 414.216000
   6235   6239   6241     1   109.8800469 414.216000
   6235   6242   6243     1   109.8800469 414.216000
   6235   6242   6244     1   109.8800469 414.216000
   6236   6248   6249     1   109.8000471 387.438400
   6236   6248   6250     1   109.8000471 387.438400
   6237   6236   6248     1   109.5600471 388.275200
   6237   6236   6238     1   108.4600466 328.025600
   6238   6236   6248     1   109.5600471 388.275200
   6239   6251   6252     1   109.8000471 387.438400
   6239   6251   6253     1   109.8000471 387.438400
   6240   6239   6251     1   109.5600471 388.275200
   6240   6239   6241     1   108.4600466 328.025600
   6241   6239   6251     1   109.5600471 388.275200
   6242   6245   6246     1   109.8000471 387.438400
   6242   6245   6247     1   109.8000471 387.438400
   6243   6242   6245     1   109.5600471 388.275200
   6243   6242   6244     1   108.4600466 328.025600
   6244   6242   6245     1   109.5600471 388.275200
   6245   6254   6255     1   109.5600471 388.275200
   6245   6254   6256     1   109.5600471 388.275200
   6246   6245   6254     1   109.8000471 387.438400
   6246   6245   6247     1   107.5800459 329.699200
   6247   6245   6254     1   109.8000471 387.438400
   6248   6260   6261     1   109.5600471 388.275200
   6248   6260   6262     1   109.5600471 388.275200
   6249   6248   6260     1   109.8000471 387.438400
   6249   6248   6250     1   107.5800459 329.699200
   6250   6248   6260     1   109.8000471 387.438400
   6251   6257   6258     1   109.5600471 388.275200
   6251   6257   6259     1   109.5600471 388.275200
   6252   6251   6257     1   109.8000471 387.438400
   6252   6251   6253     1   107.5800459 329.699200
   6253   6251   6257     1   109.8000471 387.438400
   6255   6254   6263     1   109.7800468 425.094400
   6255   6254   6256     1   108.4600466 328.025600
   6256   6254   6263     1   109.7800468 425.094400
   6258   6257  11470     1   109.7800468 425.094400
   6258   6257   6259     1   108.4600466 328.025600
   6259   6257  11470     1   109.7800468 425.094400
   6261   6260  11493     1   109.7800468 425.094400
   6261   6260   6262     1   108.4600466 328.025600
   6262   6260  11493     1   109.7800468 425.094400
   6264   6265   6266     1   109.8800469 414.216000
   6264   6265   6267     1   109.8800469 414.216000
   6264   6268   6269     1   109.8800469 414.216000
   6264   6268   6270     1   109.8800469 414.216000
   6264   6271   6272     1   109.8800469 414.216000
   6264   6271   6273     1   109.8800469 414.216000
   6265   6277   6278     1   109.8000471 387.438400
   6265   6277   6279     1   109.8000471 387.438400
   6266   6265   6277     1   109.5600471 388.275200
   6266   6265   6267     1   108.4600466 328.025600
   6267   6265   6277     1   109.5600471 388.275200
   6268   6280   6281     1   109.8000471 387.438400
   6268   6280   6282     1   109.8000471 387.438400
   6269   6268   6280     1   109.5600471 388.275200
   6269   6268   6270     1   108.4600466 328.025600
   6270   6268   6280     1   109.5600471 388.275200
   6271   6274   6275     1   109.8000471 387.438400
   6271   6274   6276     1   109.8000471 387.438400
   6272   6271   6274     1   109.5600471 388.275200
   6272   6271   6273     1   108.4600466 328.025600
   6273   6271   6274     1   109.5600471 388.275200
   6274   6283   6284     1   109.5600471 388.275200
   6274   6283   6285     1   109.5600471 388.275200
   6275   6274   6283     1   109.8000471 387.438400
   6275   6274   6276     1   107.5800459 329.699200
   6276   6274   6283     1   109.8000471 387.438400
   6277   6289   6290     1   109.5600471 388.275200
   6277   6289   6291     1   109.5600471 388.275200
   6278   6277   6289     1   109.8000471 387.438400
   6278   6277   6279     1   107.5800459 329.699200
   6279   6277   6289     1   109.8000471 387.438400
   6280   6286   6287     1   109.5600471 388.275200
   6280   6286   6288     1   109.5600471 388.275200
   6281   6280   6286     1   109.8000471 387.438400
   6281   6280   6282     1   107.5800459 329.699200
   6282   6280   6286     1   109.8000471 387.438400
   6284   6283   6292     1   109.7800468 425.094400
   6284   6283   6285     1   108.4600466 328.025600
   6285   6283   6292     1   109.7800468 425.094400
   6287   6286  11516     1   109.7800468 425.094400
   6287   6286   6288     1   108.4600466 328.025600
   6288   6286  11516     1   109.7800468 425.094400
   6290   6289  11539     1   109.7800468 425.094400
   6290   6289   6291     1   108.4600466 328.025600
   6291   6289  11539     1   109.7800468 425.094400
   6293   6294   6295     1   109.8800469 414.216000
   6293   6294   6296     1   109.8800469 414.216000
   6293   6297   6298     1   109.8800469 414.216000
   6293   6297   6299     1   109.8800469 414.216000
   6293   6300   6301     1   109.8800469 414.216000
   6293   6300   6302     1   109.8800469 414.216000
   6294   6306   6307     1   109.8000471 387.438400
   6294   6306   6308     1   109.8000471 387.438400
   6295   6294   6306     1   109.5600471 388.275200
   6295   6294   6296     1   108.4600466 328.025600
   6296   6294   6306     1   109.5600471 388.275200
   6297   6309   6310     1   109.8000471 387.438400
   6297   6309   6311     1   109.8000471 387.438400
   6298   6297   6309     1   109.5600471 388.275200
   6298   6297   6299     1   108.4600466 328.025600
   6299   6297   6309     1   109.5600471 388.275200
   6300   6303   6304     1   109.8000471 387.438400
   6300   6303   6305     1   109.8000471 387.438400
   6301   6300   6303     1   109.5600471 388.275200
   6301   6300   6302     1   108.4600466 328.025600
   6302   6300   6303     1   109.5600471 388.275200
   6303   6312   6313     1   109.5600471 388.275200
   6303   6312   6314     1   109.5600471 388.275200
   6304   6303   6312     1   109.8000471 387.438400
   6304   6303   6305     1   107.5800459 329.699200
   6305   6303   6312     1   109.8000471 387.438400
   6306   6318   6319     1   109.5600471 388.275200
   6306   6318   6320     1   109.5600471 388.275200
   6307   6306   6318     1   109.8000471 387.438400
   6307   6306   6308     1   107.5800459 329.699200
   6308   6306   6318     1   109.8000471 387.438400
   6309   6315   6316     1   109.5600471 388.275200
   6309   6315   6317     1   109.5600471 388.275200
   6310   6309   6315     1   109.8000471 387.438400
   6310   6309   6311     1   107.5800459 329.699200
   6311   6309   6315     1   109.8000471 387.438400
   6313   6312   6321     1   109.7800468 425.094400
   6313   6312   6314     1   108.4600466 328.025600
   6314   6312   6321     1   109.7800468 425.094400
   6316   6315  11562     1   109.7800468 425.094400
   6316   6315   6317     1   108.4600466 328.025600
   6317   6315  11562     1   109.7800468 425.094400
   6319   6318  11585     1   109.7800468 425.094400
   6319   6318   6320     1   108.4600466 328.025600
   6320   6318  11585     1   109.7800468 425.094400
   6322   6323   6324     1   109.8800469 414.216000
   6322   6323   6325     1   109.8800469 414.216000
   6322   6326   6327     1   109.8800469 414.216000
   6322   6326   6328     1   109.8800469 414.216000
   6322   6329   6330     1   109.8800469 414.216000
   6322   6329   6331     1   109.8800469 414.216000
   6323   6335   6336     1   109.8000471 387.438400
   6323   6335   6337     1   109.8000471 387.438400
   6324   6323   6335     1   109.5600471 388.275200
   6324   6323   6325     1   108.4600466 328.025600
   6325   6323   6335     1   109.5600471 388.275200
   6326   6338   6339     1   109.8000471 387.438400
   6326   6338   6340     1   109.8000471 387.438400
   6327   6326   6338     1   109.5600471 388.275200
   6327   6326   6328     1   108.4600466 328.025600
   6328   6326   6338     1   109.5600471 388.275200
   6329   6332   6333     1   109.8000471 387.438400
   6329   6332   6334     1   109.8000471 387.438400
   6330   6329   6332     1   109.5600471 388.275200
   6330   6329   6331     1   108.4600466 328.025600
   6331   6329   6332     1   109.5600471 388.275200
   6332   6341   6342     1   109.5600471 388.275200
   6332   6341   6343     1   109.5600471 388.275200
   6333   6332   6341     1   109.8000471 387.438400
   6333   6332   6334     1   107.5800459 329.699200
   6334   6332   6341     1   109.8000471 387.438400
   6335   6347   6348     1   109.5600471 388.275200
   6335   6347   6349     1   109.5600471 388.275200
   6336   6335   6347     1   109.8000471 387.438400
   6336   6335   6337     1   107.5800459 329.699200
   6337   6335   6347     1   109.8000471 387.438400
   6338   6344   6345     1   109.5600471 388.275200
   6338   6344   6346     1   109.5600471 388.275200
   6339   6338   6344     1   109.8000471 387.438400
   6339   6338   6340     1   107.5800459 329.699200
   6340   6338   6344     1   109.8000471 387.438400
   6342   6341   6350     1   109.7800468 425.094400
   6342   6341   6343     1   108.4600466 328.025600
   6343   6341   6350     1   109.7800468 425.094400
   6345   6344  11608     1   109.7800468 425.094400
   6345   6344   6346     1   108.4600466 328.025600
   6346   6344  11608     1   109.7800468 425.094400
   6348   6347  11631     1   109.7800468 425.094400
   6348   6347   6349     1   108.4600466 328.025600
   6349   6347  11631     1   109.7800468 425.094400
   6351   6352   6353     1   109.8800469 414.216000
   6351   6352   6354     1   109.8800469 414.216000
   6351   6355   6356     1   109.8800469 414.216000
   6351   6355   6357     1   109.8800469 414.216000
   6351   6358   6359     1   109.8800469 414.216000
   6351   6358   6360     1   109.8800469 414.216000
   6352   6364   6365     1   109.8000471 387.438400
   6352   6364   6366     1   109.8000471 387.438400
   6353   6352   6364     1   109.5600471 388.275200
   6353   6352   6354     1   108.4600466 328.025600
   6354   6352   6364     1   109.5600471 388.275200
   6355   6367   6368     1   109.8000471 387.438400
   6355   6367   6369     1   109.8000471 387.438400
   6356   6355   6367     1   109.5600471 388.275200
   6356   6355   6357     1   108.4600466 328.025600
   6357   6355   6367     1   109.5600471 388.275200
   6358   6361   6362     1   109.8000471 387.438400
   6358   6361   6363     1   109.8000471 387.438400
   6359   6358   6361     1   109.5600471 388.275200
   6359   6358   6360     1   108.4600466 328.025600
   6360   6358   6361     1   109.5600471 388.275200
   6361   6370   6371     1   109.5600471 388.275200
   6361   6370   6372     1   109.5600471 388.275200
   6362   6361   6370     1   109.8000471 387.438400
   6362   6361   6363     1   107.5800459 329.699200
   6363   6361   6370     1   109.8000471 387.438400
   6364   6376   6377     1   109.5600471 388.275200
   6364   6376   6378     1   109.5600471 388.275200
   6365   6364   6376     1   109.8000471 387.438400
   6365   6364   6366     1   107.5800459 329.699200
   6366   6364   6376     1   109.8000471 387.438400
   6367   6373   6374     1   109.5600471 388.275200
   6367   6373   6375     1   109.5600471 388.275200
   6368   6367   6373     1   109.8000471 387.438400
   6368   6367   6369     1   107.5800459 329.699200
   6369   6367   6373     1   109.8000471 387.438400
   6371   6370   6379     1   109.7800468 425.094400
   6371   6370   6372     1   108.4600466 328.025600
   6372   6370   6379     1   109.7800468 425.094400
   6374   6373  11654     1   109.7800468 425.094400
   6374   6373   6375     1   108.4600466 328.025600
   6375   6373  11654     1   109.7800468 425.094400
   6377   6376  11677     1   109.7800468 425.094400
   6377   6376   6378     1   108.4600466 328.025600
   6378   6376  11677     1   109.7800468 425.094400
   6380   6381   6382     1   109.8800469 414.216000
   6380   6381   6383     1   109.8800469 414.216000
   6380   6384   6385     1   109.8800469 414.216000
   6380   6384   6386     1   109.8800469 414.216000
   6380   6387   6388     1   109.8800469 414.216000
   6380   6387   6389     1   109.8800469 414.216000
   6381   6393   6394     1   109.8000471 387.438400
   6381   6393   6395     1   109.8000471 387.438400
   6382   6381   6393     1   109.5600471 388.275200
   6382   6381   6383     1   108.4600466 328.025600
   6383   6381   6393     1   109.5600471 388.275200
   6384   6396   6397     1   109.8000471 387.438400
   6384   6396   6398     1   109.8000471 387.438400
   6385   6384   6396     1   109.5600471 388.275200
   6385   6384   6386     1   108.4600466 328.025600
   6386   6384   6396     1   109.5600471 388.275200
   6387   6390   6391     1   109.8000471 387.438400
   6387   6390   6392     1   109.8000471 387.438400
   6388   6387   6390     1   109.5600471 388.275200
   6388   6387   6389     1   108.4600466 328.025600
   6389   6387   6390     1   109.5600471 388.275200
   6390   6399   6400     1   109.5600471 388.275200
   6390   6399   6401     1   109.5600471 388.275200
   6391   6390   6399     1   109.8000471 387.438400
   6391   6390   6392     1   107.5800459 329.699200
   6392   6390   6399     1   109.8000471 387.438400
   6393   6405   6406     1   109.5600471 388.275200
   6393   6405   6407     1   109.5600471 388.275200
   6394   6393   6405     1   109.8000471 387.438400
   6394   6393   6395     1   107.5800459 329.699200
   6395   6393   6405     1   109.8000471 387.438400
   6396   6402   6403     1   109.5600471 388.275200
   6396   6402   6404     1   109.5600471 388.275200
   6397   6396   6402     1   109.8000471 387.438400
   6397   6396   6398     1   107.5800459 329.699200
   6398   6396   6402     1   109.8000471 387.438400
   6400   6399   6408     1   109.7800468 425.094400
   6400   6399   6401     1   108.4600466 328.025600
   6401   6399   6408     1   109.7800468 425.094400
   6403   6402  11700     1   109.7800468 425.094400
   6403   6402   6404     1   108.4600466 328.025600
   6404   6402  11700     1   109.7800468 425.094400
   6406   6405  11723     1   109.7800468 425.094400
   6406   6405   6407     1   108.4600466 328.025600
   6407   6405  11723     1   109.7800468 425.094400
   6409   6410   6411     1   109.8800469 414.216000
   6409   6410   6412     1   109.8800469 414.216000
   6409   6413   6414     1   109.8800469 414.216000
   6409   6413   6415     1   109.8800469 414.216000
   6409   6416   6417     1   109.8800469 414.216000
   6409   6416   6418     1   109.8800469 414.216000
   6410   6422   6423     1   109.8000471 387.438400
   6410   6422   6424     1   109.8000471 387.438400
   6411   6410   6422     1   109.5600471 388.275200
   6411   6410   6412     1   108.4600466 328.025600
   6412   6410   6422     1   109.5600471 388.275200
   6413   6425   6426     1   109.8000471 387.438400
   6413   6425   6427     1   109.8000471 387.438400
   6414   6413   6425     1   109.5600471 388.275200
   6414   6413   6415     1   108.4600466 328.025600
   6415   6413   6425     1   109.5600471 388.275200
   6416   6419   6420     1   109.8000471 387.438400
   6416   6419   6421     1   109.8000471 387.438400
   6417   6416   6419     1   109.5600471 388.275200
   6417   6416   6418     1   108.4600466 328.025600
   6418   6416   6419     1   109.5600471 388.275200
   6419   6428   6429     1   109.5600471 388.275200
   6419   6428   6430     1   109.5600471 388.275200
   6420   6419   6428     1   109.8000471 387.438400
   6420   6419   6421     1   107.5800459 329.699200
   6421   6419   6428     1   109.8000471 387.438400
   6422   6434   6435     1   109.5600471 388.275200
   6422   6434   6436     1   109.5600471 388.275200
   6423   6422   6434     1   109.8000471 387.438400
   6423   6422   6424     1   107.5800459 329.699200
   6424   6422   6434     1   109.8000471 387.438400
   6425   6431   6432     1   109.5600471 388.275200
   6425   6431   6433     1   109.5600471 388.275200
   6426   6425   6431     1   109.8000471 387.438400
   6426   6425   6427     1   107.5800459 329.699200
   6427   6425   6431     1   109.8000471 387.438400
   6429   6428   6437     1   109.7800468 425.094400
   6429   6428   6430     1   108.4600466 328.025600
   6430   6428   6437     1   109.7800468 425.094400
   6432   6431  11746     1   109.7800468 425.094400
   6432   6431   6433     1   108.4600466 328.025600
   6433   6431  11746     1   109.7800468 425.094400
   6435   6434  11769     1   109.7800468 425.094400
   6435   6434   6436     1   108.4600466 328.025600
   6436   6434  11769     1   109.7800468 425.094400
   6438   6439   6440     1   109.8800469 414.216000
   6438   6439   6441     1   109.8800469 414.216000
   6438   6442   6443     1   109.8800469 414.216000
   6438   6442   6444     1   109.8800469 414.216000
   6438   6445   6446     1   109.8800469 414.216000
   6438   6445   6447     1   109.8800469 414.216000
   6439   6451   6452     1   109.8000471 387.438400
   6439   6451   6453     1   109.8000471 387.438400
   6440   6439   6451     1   109.5600471 388.275200
   6440   6439   6441     1   108.4600466 328.025600
   6441   6439   6451     1   109.5600471 388.275200
   6442   6454   6455     1   109.8000471 387.438400
   6442   6454   6456     1   109.8000471 387.438400
   6443   6442   6454     1   109.5600471 388.275200
   6443   6442   6444     1   108.4600466 328.025600
   6444   6442   6454     1   109.5600471 388.275200
   6445   6448   6449     1   109.8000471 387.438400
   6445   6448   6450     1   109.8000471 387.438400
   6446   6445   6448     1   109.5600471 388.275200
   6446   6445   6447     1   108.4600466 328.025600
   6447   6445   6448     1   109.5600471 388.275200
   6448   6457   6458     1   109.5600471 388.275200
   6448   6457   6459     1   109.5600471 388.275200
   6449   6448   6457     1   109.8000471 387.438400
   6449   6448   6450     1   107.5800459 329.699200
   6450   6448   6457     1   109.8000471 387.438400
   6451   6463   6464     1   109.5600471 388.275200
   6451   6463   6465     1   109.5600471 388.275200
   6452   6451   6463     1   109.8000471 387.438400
   6452   6451   6453     1   107.5800459 329.699200
   6453   6451   6463     1   109.8000471 387.438400
   6454   6460   6461     1   109.5600471 388.275200
   6454   6460   6462     1   109.5600471 388.275200
   6455   6454   6460     1   109.8000471 387.438400
   6455   6454   6456     1   107.5800459 329.699200
   6456   6454   6460     1   109.8000471 387.438400
   6458   6457   6466     1   109.7800468 425.094400
   6458   6457   6459     1   108.4600466 328.025600
   6459   6457   6466     1   109.7800468 425.094400
   6461   6460  11792     1   109.7800468 425.094400
   6461   6460   6462     1   108.4600466 328.025600
   6462   6460  11792     1   109.7800468 425.094400
   6464   6463  11815     1   109.7800468 425.094400
   6464   6463   6465     1   108.4600466 328.025600
   6465   6463  11815     1   109.7800468 425.094400
   6467   6468   6469     1   109.8800469 414.216000
   6467   6468   6470     1   109.8800469 414.216000
   6467   6471   6472     1   109.8800469 414.216000
   6467   6471   6473     1   109.8800469 414.216000
   6467   6474   6475     1   109.8800469 414.216000
   6467   6474   6476     1   109.8800469 414.216000
   6468   6480   6481     1   109.8000471 387.438400
   6468   6480   6482     1   109.8000471 387.438400
   6469   6468   6480     1   109.5600471 388.275200
   6469   6468   6470     1   108.4600466 328.025600
   6470   6468   6480     1   109.5600471 388.275200
   6471   6483   6484     1   109.8000471 387.438400
   6471   6483   6485     1   109.8000471 387.438400
   6472   6471   6483     1   109.5600471 388.275200
   6472   6471   6473     1   108.4600466 328.025600
   6473   6471   6483     1   109.5600471 388.275200
   6474   6477   6478     1   109.8000471 387.438400
   6474   6477   6479     1   109.8000471 387.438400
   6475   6474   6477     1   109.5600471 388.275200
   6475   6474   6476     1   108.4600466 328.025600
   6476   6474   6477     1   109.5600471 388.275200
   6477   6486   6487     1   109.5600471 388.275200
   6477   6486   6488     1   109.5600471 388.275200
   6478   6477   6486     1   109.8000471 387.438400
   6478   6477   6479     1   107.5800459 329.699200
   6479   6477   6486     1   109.8000471 387.438400
   6480   6492   6493     1   109.5600471 388.275200
   6480   6492   6494     1   109.5600471 388.275200
   6481   6480   6492     1   109.8000471 387.438400
   6481   6480   6482     1   107.5800459 329.699200
   6482   6480   6492     1   109.8000471 387.438400
   6483   6489   6490     1   109.5600471 388.275200
   6483   6489   6491     1   109.5600471 388.275200
   6484   6483   6489     1   109.8000471 387.438400
   6484   6483   6485     1   107.5800459 329.699200
   6485   6483   6489     1   109.8000471 387.438400
   6487   6486   6495     1   109.7800468 425.094400
   6487   6486   6488     1   108.4600466 328.025600
   6488   6486   6495     1   109.7800468 425.094400
   6490   6489  11838     1   109.7800468 425.094400
   6490   6489   6491     1   108.4600466 328.025600
   6491   6489  11838     1   109.7800468 425.094400
   6493   6492  11861     1   109.7800468 425.094400
   6493   6492   6494     1   108.4600466 328.025600
   6494   6492  11861     1   109.7800468 425.094400
   6496   6497   6498     1   109.8800469 414.216000
   6496   6497   6499     1   109.8800469 414.216000
   6496   6500   6501     1   109.8800469 414.216000
   6496   6500   6502     1   109.8800469 414.216000
   6496   6503   6504     1   109.8800469 414.216000
   6496   6503   6505     1   109.8800469 414.216000
   6497   6509   6510     1   109.8000471 387.438400
   6497   6509   6511     1   109.8000471 387.438400
   6498   6497   6509     1   109.5600471 388.275200
   6498   6497   6499     1   108.4600466 328.025600
   6499   6497   6509     1   109.5600471 388.275200
   6500   6512   6513     1   109.8000471 387.438400
   6500   6512   6514     1   109.8000471 387.438400
   6501   6500   6512     1   109.5600471 388.275200
   6501   6500   6502     1   108.4600466 328.025600
   6502   6500   6512     1   109.5600471 388.275200
   6503   6506   6507     1   109.8000471 387.438400
   6503   6506   6508     1   109.8000471 387.438400
   6504   6503   6506     1   109.5600471 388.275200
   6504   6503   6505     1   108.4600466 328.025600
   6505   6503   6506     1   109.5600471 388.275200
   6506   6515   6516     1   109.5600471 388.275200
   6506   6515   6517     1   109.5600471 388.275200
   6507   6506   6515     1   109.8000471 387.438400
   6507   6506   6508     1   107.5800459 329.699200
   6508   6506   6515     1   109.8000471 387.438400
   6509   6521   6522     1   109.5600471 388.275200
   6509   6521   6523     1   109.5600471 388.275200
   6510   6509   6521     1   109.8000471 387.438400
   6510   6509   6511     1   107.5800459 329.699200
   6511   6509   6521     1   109.8000471 387.438400
   6512   6518   6519     1   109.5600471 388.275200
   6512   6518   6520     1   109.5600471 388.275200
   6513   6512   6518     1   109.8000471 387.438400
   6513   6512   6514     1   107.5800459 329.699200
   6514   6512   6518     1   109.8000471 387.438400
   6516   6515   6524     1   109.7800468 425.094400
   6516   6515   6517     1   108.4600466 328.025600
   6517   6515   6524     1   109.7800468 425.094400
   6519   6518  11884     1   109.7800468 425.094400
   6519   6518   6520     1   108.4600466 328.025600
   6520   6518  11884     1   109.7800468 425.094400
   6522   6521  11907     1   109.7800468 425.094400
   6522   6521   6523     1   108.4600466 328.025600
   6523   6521  11907     1   109.7800468 425.094400
   6525   6526   6527     1   109.8800469 414.216000
   6525   6526   6528     1   109.8800469 414.216000
   6525   6529   6530     1   109.8800469 414.216000
   6525   6529   6531     1   109.8800469 414.216000
   6525   6532   6533     1   109.8800469 414.216000
   6525   6532   6534     1   109.8800469 414.216000
   6526   6538   6539     1   109.8000471 387.438400
   6526   6538   6540     1   109.8000471 387.438400
   6527   6526   6538     1   109.5600471 388.275200
   6527   6526   6528     1   108.4600466 328.025600
   6528   6526   6538     1   109.5600471 388.275200
   6529   6541   6542     1   109.8000471 387.438400
   6529   6541   6543     1   109.8000471 387.438400
   6530   6529   6541     1   109.5600471 388.275200
   6530   6529   6531     1   108.4600466 328.025600
   6531   6529   6541     1   109.5600471 388.275200
   6532   6535   6536     1   109.8000471 387.438400
   6532   6535   6537     1   109.8000471 387.438400
   6533   6532   6535     1   109.5600471 388.275200
   6533   6532   6534     1   108.4600466 328.025600
   6534   6532   6535     1   109.5600471 388.275200
   6535   6544   6545     1   109.5600471 388.275200
   6535   6544   6546     1   109.5600471 388.275200
   6536   6535   6544     1   109.8000471 387.438400
   6536   6535   6537     1   107.5800459 329.699200
   6537   6535   6544     1   109.8000471 387.438400
   6538   6550   6551     1   109.5600471 388.275200
   6538   6550   6552     1   109.5600471 388.275200
   6539   6538   6550     1   109.8000471 387.438400
   6539   6538   6540     1   107.5800459 329.699200
   6540   6538   6550     1   109.8000471 387.438400
   6541   6547   6548     1   109.5600471 388.275200
   6541   6547   6549     1   109.5600471 388.275200
   6542   6541   6547     1   109.8000471 387.438400
   6542   6541   6543     1   107.5800459 329.699200
   6543   6541   6547     1   109.8000471 387.438400
   6545   6544   6553     1   109.7800468 425.094400
   6545   6544   6546     1   108.4600466 328.025600
   6546   6544   6553     1   109.7800468 425.094400
   6548   6547  11930     1   109.7800468 425.094400
   6548   6547   6549     1   108.4600466 328.025600
   6549   6547  11930     1   109.7800468 425.094400
   6551   6550  11953     1   109.7800468 425.094400
   6551   6550   6552     1   108.4600466 328.025600
   6552   6550  11953     1   109.7800468 425.094400
   6554   6555   6556     1   109.8800469 414.216000
   6554   6555   6557     1   109.8800469 414.216000
   6554   6558   6559     1   109.8800469 414.216000
   6554   6558   6560     1   109.8800469 414.216000
   6554   6561   6562     1   109.8800469 414.216000
   6554   6561   6563     1   109.8800469 414.216000
   6555   6567   6568     1   109.8000471 387.438400
   6555   6567   6569     1   109.8000471 387.438400
   6556   6555   6567     1   109.5600471 388.275200
   6556   6555   6557     1   108.4600466 328.025600
   6557   6555   6567     1   109.5600471 388.275200
   6558   6570   6571     1   109.8000471 387.438400
   6558   6570   6572     1   109.8000471 387.438400
   6559   6558   6570     1   109.5600471 388.275200
   6559   6558   6560     1   108.4600466 328.025600
   6560   6558   6570     1   109.5600471 388.275200
   6561   6564   6565     1   109.8000471 387.438400
   6561   6564   6566     1   109.8000471 387.438400
   6562   6561   6564     1   109.5600471 388.275200
   6562   6561   6563     1   108.4600466 328.025600
   6563   6561   6564     1   109.5600471 388.275200
   6564   6573   6574     1   109.5600471 388.275200
   6564   6573   6575     1   109.5600471 388.275200
   6565   6564   6573     1   109.8000471 387.438400
   6565   6564   6566     1   107.5800459 329.699200
   6566   6564   6573     1   109.8000471 387.438400
   6567   6579   6580     1   109.5600471 388.275200
   6567   6579   6581     1   109.5600471 388.275200
   6568   6567   6579     1   109.8000471 387.438400
   6568   6567   6569     1   107.5800459 329.699200
   6569   6567   6579     1   109.8000471 387.438400
   6570   6576   6577     1   109.5600471 388.275200
   6570   6576   6578     1   109.5600471 388.275200
   6571   6570   6576     1   109.8000471 387.438400
   6571   6570   6572     1   107.5800459 329.699200
   6572   6570   6576     1   109.8000471 387.438400
   6574   6573   6582     1   109.7800468 425.094400
   6574   6573   6575     1   108.4600466 328.025600
   6575   6573   6582     1   109.7800468 425.094400
   6577   6576  11976     1   109.7800468 425.094400
   6577   6576   6578     1   108.4600466 328.025600
   6578   6576  11976     1   109.7800468 425.094400
   6580   6579  11999     1   109.7800468 425.094400
   6580   6579   6581     1   108.4600466 328.025600
   6581   6579  11999     1   109.7800468 425.094400
   6583   6584   6585     1   109.8800469 414.216000
   6583   6584   6586     1   109.8800469 414.216000
   6583   6587   6588     1   109.8800469 414.216000
   6583   6587   6589     1   109.8800469 414.216000
   6583   6590   6591     1   109.8800469 414.216000
   6583   6590   6592     1   109.8800469 414.216000
   6584   6596   6597     1   109.8000471 387.438400
   6584   6596   6598     1   109.8000471 387.438400
   6585   6584   6596     1   109.5600471 388.275200
   6585   6584   6586     1   108.4600466 328.025600
   6586   6584   6596     1   109.5600471 388.275200
   6587   6599   6600     1   109.8000471 387.438400
   6587   6599   6601     1   109.8000471 387.438400
   6588   6587   6599     1   109.5600471 388.275200
   6588   6587   6589     1   108.4600466 328.025600
   6589   6587   6599     1   109.5600471 388.275200
   6590   6593   6594     1   109.8000471 387.438400
   6590   6593   6595     1   109.8000471 387.438400
   6591   6590   6593     1   109.5600471 388.275200
   6591   6590   6592     1   108.4600466 328.025600
   6592   6590   6593     1   109.5600471 388.275200
   6593   6602   6603     1   109.5600471 388.275200
   6593   6602   6604     1   109.5600471 388.275200
   6594   6593   6602     1   109.8000471 387.438400
   6594   6593   6595     1   107.5800459 329.699200
   6595   6593   6602     1   109.8000471 387.438400
   6596   6608   6609     1   109.5600471 388.275200
   6596   6608   6610     1   109.5600471 388.275200
   6597   6596   6608     1   109.8000471 387.438400
   6597   6596   6598     1   107.5800459 329.699200
   6598   6596   6608     1   109.8000471 387.438400
   6599   6605   6606     1   109.5600471 388.275200
   6599   6605   6607     1   109.5600471 388.275200
   6600   6599   6605     1   109.8000471 387.438400
   6600   6599   6601     1   107.5800459 329.699200
   6601   6599   6605     1   109.8000471 387.438400
   6603   6602   6611     1   109.7800468 425.094400
   6603   6602   6604     1   108.4600466 328.025600
   6604   6602   6611     1   109.7800468 425.094400
   6606   6605  12022     1   109.7800468 425.094400
   6606   6605   6607     1   108.4600466 328.025600
   6607   6605  12022     1   109.7800468 425.094400
   6609   6608  12045     1   109.7800468 425.094400
   6609   6608   6610     1   108.4600466 328.025600
   6610   6608  12045     1   109.7800468 425.094400
   6612   6613   6614     1   109.8800469 414.216000
   6612   6613   6615     1   109.8800469 414.216000
   6612   6616   6617     1   109.8800469 414.216000
   6612   6616   6618     1   109.8800469 414.216000
   6612   6619   6620     1   109.8800469 414.216000
   6612   6619   6621     1   109.8800469 414.216000
   6613   6625   6626     1   109.8000471 387.438400
   6613   6625   6627     1   109.8000471 387.438400
   6614   6613   6625     1   109.5600471 388.275200
   6614   6613   6615     1   108.4600466 328.025600
   6615   6613   6625     1   109.5600471 388.275200
   6616   6628   6629     1   109.8000471 387.438400
   6616   6628   6630     1   109.8000471 387.438400
   6617   6616   6628     1   109.5600471 388.275200
   6617   6616   6618     1   108.4600466 328.025600
   6618   6616   6628     1   109.5600471 388.275200
   6619   6622   6623     1   109.8000471 387.438400
   6619   6622   6624     1   109.8000471 387.438400
   6620   6619   6622     1   109.5600471 388.275200
   6620   6619   6621     1   108.4600466 328.025600
   6621   6619   6622     1   109.5600471 388.275200
   6622   6631   6632     1   109.5600471 388.275200
   6622   6631   6633     1   109.5600471 388.275200
   6623   6622   6631     1   109.8000471 387.438400
   6623   6622   6624     1   107.5800459 329.699200
   6624   6622   6631     1   109.8000471 387.438400
   6625   6637   6638     1   109.5600471 388.275200
   6625   6637   6639     1   109.5600471 388.275200
   6626   6625   6637     1   109.8000471 387.438400
   6626   6625   6627     1   107.5800459 329.699200
   6627   6625   6637     1   109.8000471 387.438400
   6628   6634   6635     1   109.5600471 388.275200
   6628   6634   6636     1   109.5600471 388.275200
   6629   6628   6634     1   109.8000471 387.438400
   6629   6628   6630     1   107.5800459 329.699200
   6630   6628   6634     1   109.8000471 387.438400
   6632   6631   6640     1   109.7800468 425.094400
   6632   6631   6633     1   108.4600466 328.025600
   6633   6631   6640     1   109.7800468 425.094400
   6635   6634  12068     1   109.7800468 425.094400
   6635   6634   6636     1   108.4600466 328.025600
   6636   6634  12068     1   109.7800468 425.094400
   6638   6637  12091     1   109.7800468 425.094400
   6638   6637   6639     1   108.4600466 328.025600
   6639   6637  12091     1   109.7800468 425.094400
   6641   6642   6643     1   109.8800469 414.216000
   6641   6642   6644     1   109.8800469 414.216000
   6641   6645   6646     1   109.8800469 414.216000
   6641   6645   6647     1   109.8800469 414.216000
   6641   6648   6649     1   109.8800469 414.216000
   6641   6648   6650     1   109.8800469 414.216000
   6642   6654   6655     1   109.8000471 387.438400
   6642   6654   6656     1   109.8000471 387.438400
   6643   6642   6654     1   109.5600471 388.275200
   6643   6642   6644     1   108.4600466 328.025600
   6644   6642   6654     1   109.5600471 388.275200
   6645   6657   6658     1   109.8000471 387.438400
   6645   6657   6659     1   109.8000471 387.438400
   6646   6645   6657     1   109.5600471 388.275200
   6646   6645   6647     1   108.4600466 328.025600
   6647   6645   6657     1   109.5600471 388.275200
   6648   6651   6652     1   109.8000471 387.438400
   6648   6651   6653     1   109.8000471 387.438400
   6649   6648   6651     1   109.5600471 388.275200
   6649   6648   6650     1   108.4600466 328.025600
   6650   6648   6651     1   109.5600471 388.275200
   6651   6660   6661     1   109.5600471 388.275200
   6651   6660   6662     1   109.5600471 388.275200
   6652   6651   6660     1   109.8000471 387.438400
   6652   6651   6653     1   107.5800459 329.699200
   6653   6651   6660     1   109.8000471 387.438400
   6654   6666   6667     1   109.5600471 388.275200
   6654   6666   6668     1   109.5600471 388.275200
   6655   6654   6666     1   109.8000471 387.438400
   6655   6654   6656     1   107.5800459 329.699200
   6656   6654   6666     1   109.8000471 387.438400
   6657   6663   6664     1   109.5600471 388.275200
   6657   6663   6665     1   109.5600471 388.275200
   6658   6657   6663     1   109.8000471 387.438400
   6658   6657   6659     1   107.5800459 329.699200
   6659   6657   6663     1   109.8000471 387.438400
   6661   6660   6669     1   109.7800468 425.094400
   6661   6660   6662     1   108.4600466 328.025600
   6662   6660   6669     1   109.7800468 425.094400
   6664   6663  12114     1   109.7800468 425.094400
   6664   6663   6665     1   108.4600466 328.025600
   6665   6663  12114     1   109.7800468 425.094400
   6667   6666  12137     1   109.7800468 425.094400
   6667   6666   6668     1   108.4600466 328.025600
   6668   6666  12137     1   109.7800468 425.094400
   6670   6671   6672     1   109.8800469 414.216000
   6670   6671   6673     1   109.8800469 414.216000
   6670   6674   6675     1   109.8800469 414.216000
   6670   6674   6676     1   109.8800469 414.216000
   6670   6677   6678     1   109.8800469 414.216000
   6670   6677   6679     1   109.8800469 414.216000
   6671   6683   6684     1   109.8000471 387.438400
   6671   6683   6685     1   109.8000471 387.438400
   6672   6671   6683     1   109.5600471 388.275200
   6672   6671   6673     1   108.4600466 328.025600
   6673   6671   6683     1   109.5600471 388.275200
   6674   6686   6687     1   109.8000471 387.438400
   6674   6686   6688     1   109.8000471 387.438400
   6675   6674   6686     1   109.5600471 388.275200
   6675   6674   6676     1   108.4600466 328.025600
   6676   6674   6686     1   109.5600471 388.275200
   6677   6680   6681     1   109.8000471 387.438400
   6677   6680   6682     1   109.8000471 387.438400
   6678   6677   6680     1   109.5600471 388.275200
   6678   6677   6679     1   108.4600466 328.025600
   6679   6677   6680     1   109.5600471 388.275200
   6680   6689   6690     1   109.5600471 388.275200
   6680   6689   6691     1   109.5600471 388.275200
   6681   6680   6689     1   109.8000471 387.438400
   6681   6680   6682     1   107.5800459 329.699200
   6682   6680   6689     1   109.8000471 387.438400
   6683   6695   6696     1   109.5600471 388.275200
   6683   6695   6697     1   109.5600471 388.275200
   6684   6683   6695     1   109.8000471 387.438400
   6684   6683   6685     1   107.5800459 329.699200
   6685   6683   6695     1   109.8000471 387.438400
   6686   6692   6693     1   109.5600471 388.275200
   6686   6692   6694     1   109.5600471 388.275200
   6687   6686   6692     1   109.8000471 387.438400
   6687   6686   6688     1   107.5800459 329.699200
   6688   6686   6692     1   109.8000471 387.438400
   6690   6689   6698     1   109.7800468 425.094400
   6690   6689   6691     1   108.4600466 328.025600
   6691   6689   6698     1   109.7800468 425.094400
   6693   6692  12160     1   109.7800468 425.094400
   6693   6692   6694     1   108.4600466 328.025600
   6694   6692  12160     1   109.7800468 425.094400
   6696   6695  12183     1   109.7800468 425.094400
   6696   6695   6697     1   108.4600466 328.025600
   6697   6695  12183     1   109.7800468 425.094400
   6699   6700   6701     1   109.8800469 414.216000
   6699   6700   6702     1   109.8800469 414.216000
   6699   6703   6704     1   109.8800469 414.216000
   6699   6703   6705     1   109.8800469 414.216000
   6699   6706   6707     1   109.8800469 414.216000
   6699   6706   6708     1   109.8800469 414.216000
   6700   6712   6713     1   109.8000471 387.438400
   6700   6712   6714     1   109.8000471 387.438400
   6701   6700   6712     1   109.5600471 388.275200
   6701   6700   6702     1   108.4600466 328.025600
   6702   6700   6712     1   109.5600471 388.275200
   6703   6715   6716     1   109.8000471 387.438400
   6703   6715   6717     1   109.8000471 387.438400
   6704   6703   6715     1   109.5600471 388.275200
   6704   6703   6705     1   108.4600466 328.025600
   6705   6703   6715     1   109.5600471 388.275200
   6706   6709   6710     1   109.8000471 387.438400
   6706   6709   6711     1   109.8000471 387.438400
   6707   6706   6709     1   109.5600471 388.275200
   6707   6706   6708     1   108.4600466 328.025600
   6708   6706   6709     1   109.5600471 388.275200
   6709   6718   6719     1   109.5600471 388.275200
   6709   6718   6720     1   109.5600471 388.275200
   6710   6709   6718     1   109.8000471 387.438400
   6710   6709   6711     1   107.5800459 329.699200
   6711   6709   6718     1   109.8000471 387.438400
   6712   6724   6725     1   109.5600471 388.275200
   6712   6724   6726     1   109.5600471 388.275200
   6713   6712   6724     1   109.8000471 387.438400
   6713   6712   6714     1   107.5800459 329.699200
   6714   6712   6724     1   109.8000471 387.438400
   6715   6721   6722     1   109.5600471 388.275200
   6715   6721   6723     1   109.5600471 388.275200
   6716   6715   6721     1   109.8000471 387.438400
   6716   6715   6717     1   107.5800459 329.699200
   6717   6715   6721     1   109.8000471 387.438400
   6719   6718   6727     1   109.7800468 425.094400
   6719   6718   6720     1   108.4600466 328.025600
   6720   6718   6727     1   109.7800468 425.094400
   6722   6721  12206     1   109.7800468 425.094400
   6722   6721   6723     1   108.4600466 328.025600
   6723   6721  12206     1   109.7800468 425.094400
   6725   6724  12229     1   109.7800468 425.094400
   6725   6724   6726     1   108.4600466 328.025600
   6726   6724  12229     1   109.7800468 425.094400
   6728   6729   6730     1   109.8800469 414.216000
   6728   6729   6731     1   109.8800469 414.216000
   6728   6732   6733     1   109.8800469 414.216000
   6728   6732   6734     1   109.8800469 414.216000
   6728   6735   6736     1   109.8800469 414.216000
   6728   6735   6737     1   109.8800469 414.216000
   6729   6741   6742     1   109.8000471 387.438400
   6729   6741   6743     1   109.8000471 387.438400
   6730   6729   6741     1   109.5600471 388.275200
   6730   6729   6731     1   108.4600466 328.025600
   6731   6729   6741     1   109.5600471 388.275200
   6732   6744   6745     1   109.8000471 387.438400
   6732   6744   6746     1   109.8000471 387.438400
   6733   6732   6744     1   109.5600471 388.275200
   6733   6732   6734     1   108.4600466 328.025600
   6734   6732   6744     1   109.5600471 388.275200
   6735   6738   6739     1   109.8000471 387.438400
   6735   6738   6740     1   109.8000471 387.438400
   6736   6735   6738     1   109.5600471 388.275200
   6736   6735   6737     1   108.4600466 328.025600
   6737   6735   6738     1   109.5600471 388.275200
   6738   6747   6748     1   109.5600471 388.275200
   6738   6747   6749     1   109.5600471 388.275200
   6739   6738   6747     1   109.8000471 387.438400
   6739   6738   6740     1   107.5800459 329.699200
   6740   6738   6747     1   109.8000471 387.438400
   6741   6753   6754     1   109.5600471 388.275200
   6741   6753   6755     1   109.5600471 388.275200
   6742   6741   6753     1   109.8000471 387.438400
   6742   6741   6743     1   107.5800459 329.699200
   6743   6741   6753     1   109.8000471 387.438400
   6744   6750   6751     1   109.5600471 388.275200
   6744   6750   6752     1   109.5600471 388.275200
   6745   6744   6750     1   109.8000471 387.438400
   6745   6744   6746     1   107.5800459 329.699200
   6746   6744   6750     1   109.8000471 387.438400
   6748   6747   6756     1   109.7800468 425.094400
   6748   6747   6749     1   108.4600466 328.025600
   6749   6747   6756     1   109.7800468 425.094400
   6751   6750  12252     1   109.7800468 425.094400
   6751   6750   6752     1   108.4600466 328.025600
   6752   6750  12252     1   109.7800468 425.094400
   6754   6753  12275     1   109.7800468 425.094400
   6754   6753   6755     1   108.4600466 328.025600
   6755   6753  12275     1   109.7800468 425.094400
   6757   6758   6759     1   109.8800469 414.216000
   6757   6758   6760     1   109.8800469 414.216000
   6757   6761   6762     1   109.8800469 414.216000
   6757   6761   6763     1   109.8800469 414.216000
   6757   6764   6765     1   109.8800469 414.216000
   6757   6764   6766     1   109.8800469 414.216000
   6758   6770   6771     1   109.8000471 387.438400
   6758   6770   6772     1   109.8000471 387.438400
   6759   6758   6770     1   109.5600471 388.275200
   6759   6758   6760     1   108.4600466 328.025600
   6760   6758   6770     1   109.5600471 388.275200
   6761   6773   6774     1   109.8000471 387.438400
   6761   6773   6775     1   109.8000471 387.438400
   6762   6761   6773     1   109.5600471 388.275200
   6762   6761   6763     1   108.4600466 328.025600
   6763   6761   6773     1   109.5600471 388.275200
   6764   6767   6768     1   109.8000471 387.438400
   6764   6767   6769     1   109.8000471 387.438400
   6765   6764   6767     1   109.5600471 388.275200
   6765   6764   6766     1   108.4600466 328.025600
   6766   6764   6767     1   109.5600471 388.275200
   6767   6776   6777     1   109.5600471 388.275200
   6767   6776   6778     1   109.5600471 388.275200
   6768   6767   6776     1   109.8000471 387.438400
   6768   6767   6769     1   107.5800459 329.699200
   6769   6767   6776     1   109.8000471 387.438400
   6770   6782   6783     1   109.5600471 388.275200
   6770   6782   6784     1   109.5600471 388.275200
   6771   6770   6782     1   109.8000471 387.438400
   6771   6770   6772     1   107.5800459 329.699200
   6772   6770   6782     1   109.8000471 387.438400
   6773   6779   6780     1   109.5600471 388.275200
   6773   6779   6781     1   109.5600471 388.275200
   6774   6773   6779     1   109.8000471 387.438400
   6774   6773   6775     1   107.5800459 329.699200
   6775   6773   6779     1   109.8000471 387.438400
   6777   6776   6785     1   109.7800468 425.094400
   6777   6776   6778     1   108.4600466 328.025600
   6778   6776   6785     1   109.7800468 425.094400
   6780   6779  12298     1   109.7800468 425.094400
   6780   6779   6781     1   108.4600466 328.025600
   6781   6779  12298     1   109.7800468 425.094400
   6783   6782  12321     1   109.7800468 425.094400
   6783   6782   6784     1   108.4600466 328.025600
   6784   6782  12321     1   109.7800468 425.094400
   6786   6787   6788     1   109.8800469 414.216000
   6786   6787   6789     1   109.8800469 414.216000
   6786   6790   6791     1   109.8800469 414.216000
   6786   6790   6792     1   109.8800469 414.216000
   6786   6793   6794     1   109.8800469 414.216000
   6786   6793   6795     1   109.8800469 414.216000
   6787   6799   6800     1   109.8000471 387.438400
   6787   6799   6801     1   109.8000471 387.438400
   6788   6787   6799     1   109.5600471 388.275200
   6788   6787   6789     1   108.4600466 328.025600
   6789   6787   6799     1   109.5600471 388.275200
   6790   6802   6803     1   109.8000471 387.438400
   6790   6802   6804     1   109.8000471 387.438400
   6791   6790   6802     1   109.5600471 388.275200
   6791   6790   6792     1   108.4600466 328.025600
   6792   6790   6802     1   109.5600471 388.275200
   6793   6796   6797     1   109.8000471 387.438400
   6793   6796   6798     1   109.8000471 387.438400
   6794   6793   6796     1   109.5600471 388.275200
   6794   6793   6795     1   108.4600466 328.025600
   6795   6793   6796     1   109.5600471 388.275200
   6796   6805   6806     1   109.5600471 388.275200
   6796   6805   6807     1   109.5600471 388.275200
   6797   6796   6805     1   109.8000471 387.438400
   6797   6796   6798     1   107.5800459 329.699200
   6798   6796   6805     1   109.8000471 387.438400
   6799   6811   6812     1   109.5600471 388.275200
   6799   6811   6813     1   109.5600471 388.275200
   6800   6799   6811     1   109.8000471 387.438400
   6800   6799   6801     1   107.5800459 329.699200
   6801   6799   6811     1   109.8000471 387.438400
   6802   6808   6809     1   109.5600471 388.275200
   6802   6808   6810     1   109.5600471 388.275200
   6803   6802   6808     1   109.8000471 387.438400
   6803   6802   6804     1   107.5800459 329.699200
   6804   6802   6808     1   109.8000471 387.438400
   6806   6805   6814     1   109.7800468 425.094400
   6806   6805   6807     1   108.4600466 328.025600
   6807   6805   6814     1   109.7800468 425.094400
   6809   6808  12344     1   109.7800468 425.094400
   6809   6808   6810     1   108.4600466 328.025600
   6810   6808  12344     1   109.7800468 425.094400
   6812   6811  12367     1   109.7800468 425.094400
   6812   6811   6813     1   108.4600466 328.025600
   6813   6811  12367     1   109.7800468 425.094400
   6815   6816   6817     1   109.8800469 414.216000
   6815   6816   6818     1   109.8800469 414.216000
   6815   6819   6820     1   109.8800469 414.216000
   6815   6819   6821     1   109.8800469 414.216000
   6815   6822   6823     1   109.8800469 414.216000
   6815   6822   6824     1   109.8800469 414.216000
   6816   6828   6829     1   109.8000471 387.438400
   6816   6828   6830     1   109.8000471 387.438400
   6817   6816   6828     1   109.5600471 388.275200
   6817   6816   6818     1   108.4600466 328.025600
   6818   6816   6828     1   109.5600471 388.275200
   6819   6831   6832     1   109.8000471 387.438400
   6819   6831   6833     1   109.8000471 387.438400
   6820   6819   6831     1   109.5600471 388.275200
   6820   6819   6821     1   108.4600466 328.025600
   6821   6819   6831     1   109.5600471 388.275200
   6822   6825   6826     1   109.8000471 387.438400
   6822   6825   6827     1   109.8000471 387.438400
   6823   6822   6825     1   109.5600471 388.275200
   6823   6822   6824     1   108.4600466 328.025600
   6824   6822   6825     1   109.5600471 388.275200
   6825   6834   6835     1   109.5600471 388.275200
   6825   6834   6836     1   109.5600471 388.275200
   6826   6825   6834     1   109.8000471 387.438400
   6826   6825   6827     1   107.5800459 329.699200
   6827   6825   6834     1   109.8000471 387.438400
   6828   6840   6841     1   109.5600471 388.275200
   6828   6840   6842     1   109.5600471 388.275200
   6829   6828   6840     1   109.8000471 387.438400
   6829   6828   6830     1   107.5800459 329.699200
   6830   6828   6840     1   109.8000471 387.438400
   6831   6837   6838     1   109.5600471 388.275200
   6831   6837   6839     1   109.5600471 388.275200
   6832   6831   6837     1   109.8000471 387.438400
   6832   6831   6833     1   107.5800459 329.699200
   6833   6831   6837     1   109.8000471 387.438400
   6835   6834   6843     1   109.7800468 425.094400
   6835   6834   6836     1   108.4600466 328.025600
   6836   6834   6843     1   109.7800468 425.094400
   6838   6837  12390     1   109.7800468 425.094400
   6838   6837   6839     1   108.4600466 328.025600
   6839   6837  12390     1   109.7800468 425.094400
   6841   6840  12413     1   109.7800468 425.094400
   6841   6840   6842     1   108.4600466 328.025600
   6842   6840  12413     1   109.7800468 425.094400
   6844   6845   6846     1   109.8800469 414.216000
   6844   6845   6847     1   109.8800469 414.216000
   6844   6848   6849     1   109.8800469 414.216000
   6844   6848   6850     1   109.8800469 414.216000
   6844   6851   6852     1   109.8800469 414.216000
   6844   6851   6853     1   109.8800469 414.216000
   6845   6857   6858     1   109.8000471 387.438400
   6845   6857   6859     1   109.8000471 387.438400
   6846   6845   6857     1   109.5600471 388.275200
   6846   6845   6847     1   108.4600466 328.025600
   6847   6845   6857     1   109.5600471 388.275200
   6848   6860   6861     1   109.8000471 387.438400
   6848   6860   6862     1   109.8000471 387.438400
   6849   6848   6860     1   109.5600471 388.275200
   6849   6848   6850     1   108.4600466 328.025600
   6850   6848   6860     1   109.5600471 388.275200
   6851   6854   6855     1   109.8000471 387.438400
   6851   6854   6856     1   109.8000471 387.438400
   6852   6851   6854     1   109.5600471 388.275200
   6852   6851   6853     1   108.4600466 328.025600
   6853   6851   6854     1   109.5600471 388.275200
   6854   6863   6864     1   109.5600471 388.275200
   6854   6863   6865     1   109.5600471 388.275200
   6855   6854   6863     1   109.8000471 387.438400
   6855   6854   6856     1   107.5800459 329.699200
   6856   6854   6863     1   109.8000471 387.438400
   6857   6869   6870     1   109.5600471 388.275200
   6857   6869   6871     1   109.5600471 388.275200
   6858   6857   6869     1   109.8000471 387.438400
   6858   6857   6859     1   107.5800459 329.699200
   6859   6857   6869     1   109.8000471 387.438400
   6860   6866   6867     1   109.5600471 388.275200
   6860   6866   6868     1   109.5600471 388.275200
   6861   6860   6866     1   109.8000471 387.438400
   6861   6860   6862     1   107.5800459 329.699200
   6862   6860   6866     1   109.8000471 387.438400
   6864   6863   6872     1   109.7800468 425.094400
   6864   6863   6865     1   108.4600466 328.025600
   6865   6863   6872     1   109.7800468 425.094400
   6867   6866  12436     1   109.7800468 425.094400
   6867   6866   6868     1   108.4600466 328.025600
   6868   6866  12436     1   109.7800468 425.094400
   6870   6869  12459     1   109.7800468 425.094400
   6870   6869   6871     1   108.4600466 328.025600
   6871   6869  12459     1   109.7800468 425.094400
   6873   6874   6875     1   109.8800469 414.216000
   6873   6874   6876     1   109.8800469 414.216000
   6873   6877   6878     1   109.8800469 414.216000
   6873   6877   6879     1   109.8800469 414.216000
   6873   6880   6881     1   109.8800469 414.216000
   6873   6880   6882     1   109.8800469 414.216000
   6874   6886   6887     1   109.8000471 387.438400
   6874   6886   6888     1   109.8000471 387.438400
   6875   6874   6886     1   109.5600471 388.275200
   6875   6874   6876     1   108.4600466 328.025600
   6876   6874   6886     1   109.5600471 388.275200
   6877   6889   6890     1   109.8000471 387.438400
   6877   6889   6891     1   109.8000471 387.438400
   6878   6877   6889     1   109.5600471 388.275200
   6878   6877   6879     1   108.4600466 328.025600
   6879   6877   6889     1   109.5600471 388.275200
   6880   6883   6884     1   109.8000471 387.438400
   6880   6883   6885     1   109.8000471 387.438400
   6881   6880   6883     1   109.5600471 388.275200
   6881   6880   6882     1   108.4600466 328.025600
   6882   6880   6883     1   109.5600471 388.275200
   6883   6892   6893     1   109.5600471 388.275200
   6883   6892   6894     1   109.5600471 388.275200
   6884   6883   6892     1   109.8000471 387.438400
   6884   6883   6885     1   107.5800459 329.699200
   6885   6883   6892     1   109.8000471 387.438400
   6886   6898   6899     1   109.5600471 388.275200
   6886   6898   6900     1   109.5600471 388.275200
   6887   6886   6898     1   109.8000471 387.438400
   6887   6886   6888     1   107.5800459 329.699200
   6888   6886   6898     1   109.8000471 387.438400
   6889   6895   6896     1   109.5600471 388.275200
   6889   6895   6897     1   109.5600471 388.275200
   6890   6889   6895     1   109.8000471 387.438400
   6890   6889   6891     1   107.5800459 329.699200
   6891   6889   6895     1   109.8000471 387.438400
   6893   6892   6901     1   109.7800468 425.094400
   6893   6892   6894     1   108.4600466 328.025600
   6894   6892   6901     1   109.7800468 425.094400
   6896   6895  12482     1   109.7800468 425.094400
   6896   6895   6897     1   108.4600466 328.025600
   6897   6895  12482     1   109.7800468 425.094400
   6899   6898  12505     1   109.7800468 425.094400
   6899   6898   6900     1   108.4600466 328.025600
   6900   6898  12505     1   109.7800468 425.094400
   6902   6903   6904     1   109.8800469 414.216000
   6902   6903   6905     1   109.8800469 414.216000
   6902   6906   6907     1   109.8800469 414.216000
   6902   6906   6908     1   109.8800469 414.216000
   6902   6909   6910     1   109.8800469 414.216000
   6902   6909   6911     1   109.8800469 414.216000
   6903   6915   6916     1   109.8000471 387.438400
   6903   6915   6917     1   109.8000471 387.438400
   6904   6903   6915     1   109.5600471 388.275200
   6904   6903   6905     1   108.4600466 328.025600
   6905   6903   6915     1   109.5600471 388.275200
   6906   6918   6919     1   109.8000471 387.438400
   6906   6918   6920     1   109.8000471 387.438400
   6907   6906   6918     1   109.5600471 388.275200
   6907   6906   6908     1   108.4600466 328.025600
   6908   6906   6918     1   109.5600471 388.275200
   6909   6912   6913     1   109.8000471 387.438400
   6909   6912   6914     1   109.8000471 387.438400
   6910   6909   6912     1   109.5600471 388.275200
   6910   6909   6911     1   108.4600466 328.025600
   6911   6909   6912     1   109.5600471 388.275200
   6912   6921   6922     1   109.5600471 388.275200
   6912   6921   6923     1   109.5600471 388.275200
   6913   6912   6921     1   109.8000471 387.438400
   6913   6912   6914     1   107.5800459 329.699200
   6914   6912   6921     1   109.8000471 387.438400
   6915   6927   6928     1   109.5600471 388.275200
   6915   6927   6929     1   109.5600471 388.275200
   6916   6915   6927     1   109.8000471 387.438400
   6916   6915   6917     1   107.5800459 329.699200
   6917   6915   6927     1   109.8000471 387.438400
   6918   6924   6925     1   109.5600471 388.275200
   6918   6924   6926     1   109.5600471 388.275200
   6919   6918   6924     1   109.8000471 387.438400
   6919   6918   6920     1   107.5800459 329.699200
   6920   6918   6924     1   109.8000471 387.438400
   6922   6921   6930     1   109.7800468 425.094400
   6922   6921   6923     1   108.4600466 328.025600
   6923   6921   6930     1   109.7800468 425.094400
   6925   6924  12528     1   109.7800468 425.094400
   6925   6924   6926     1   108.4600466 328.025600
   6926   6924  12528     1   109.7800468 425.094400
   6928   6927  12551     1   109.7800468 425.094400
   6928   6927   6929     1   108.4600466 328.025600
   6929   6927  12551     1   109.7800468 425.094400
   6931   6932   6933     1   109.8800469 414.216000
   6931   6932   6934     1   109.8800469 414.216000
   6931   6935   6936     1   109.8800469 414.216000
   6931   6935   6937     1   109.8800469 414.216000
   6931   6938   6939     1   109.8800469 414.216000
   6931   6938   6940     1   109.8800469 414.216000
   6932   6944   6945     1   109.8000471 387.438400
   6932   6944   6946     1   109.8000471 387.438400
   6933   6932   6944     1   109.5600471 388.275200
   6933   6932   6934     1   108.4600466 328.025600
   6934   6932   6944     1   109.5600471 388.275200
   6935   6947   6948     1   109.8000471 387.438400
   6935   6947   6949     1   109.8000471 387.438400
   6936   6935   6947     1   109.5600471 388.275200
   6936   6935   6937     1   108.4600466 328.025600
   6937   6935   6947     1   109.5600471 388.275200
   6938   6941   6942     1   109.8000471 387.438400
   6938   6941   6943     1   109.8000471 387.438400
   6939   6938   6941     1   109.5600471 388.275200
   6939   6938   6940     1   108.4600466 328.025600
   6940   6938   6941     1   109.5600471 388.275200
   6941   6950   6951     1   109.5600471 388.275200
   6941   6950   6952     1   109.5600471 388.275200
   6942   6941   6950     1   109.8000471 387.438400
   6942   6941   6943     1   107.5800459 329.699200
   6943   6941   6950     1   109.8000471 387.438400
   6944   6956   6957     1   109.5600471 388.275200
   6944   6956   6958     1   109.5600471 388.275200
   6945   6944   6956     1   109.8000471 387.438400
   6945   6944   6946     1   107.5800459 329.699200
   6946   6944   6956     1   109.8000471 387.438400
   6947   6953   6954     1   109.5600471 388.275200
   6947   6953   6955     1   109.5600471 388.275200
   6948   6947   6953     1   109.8000471 387.438400
   6948   6947   6949     1   107.5800459 329.699200
   6949   6947   6953     1   109.8000471 387.438400
   6951   6950   6959     1   109.7800468 425.094400
   6951   6950   6952     1   108.4600466 328.025600
   6952   6950   6959     1   109.7800468 425.094400
   6954   6953  12574     1   109.7800468 425.094400
   6954   6953   6955     1   108.4600466 328.025600
   6955   6953  12574     1   109.7800468 425.094400
   6957   6956  12597     1   109.7800468 425.094400
   6957   6956   6958     1   108.4600466 328.025600
   6958   6956  12597     1   109.7800468 425.094400
   6960   6961   6962     1   109.8800469 414.216000
   6960   6961   6963     1   109.8800469 414.216000
   6960   6964   6965     1   109.8800469 414.216000
   6960   6964   6966     1   109.8800469 414.216000
   6960   6967   6968     1   109.8800469 414.216000
   6960   6967   6969     1   109.8800469 414.216000
   6961   6973   6974     1   109.8000471 387.438400
   6961   6973   6975     1   109.8000471 387.438400
   6962   6961   6973     1   109.5600471 388.275200
   6962   6961   6963     1   108.4600466 328.025600
   6963   6961   6973     1   109.5600471 388.275200
   6964   6976   6977     1   109.8000471 387.438400
   6964   6976   6978     1   109.8000471 387.438400
   6965   6964   6976     1   109.5600471 388.275200
   6965   6964   6966     1   108.4600466 328.025600
   6966   6964   6976     1   109.5600471 388.275200
   6967   6970   6971     1   109.8000471 387.438400
   6967   6970   6972     1   109.8000471 387.438400
   6968   6967   6970     1   109.5600471 388.275200
   6968   6967   6969     1   108.4600466 328.025600
   6969   6967   6970     1   109.5600471 388.275200
   6970   6979   6980     1   109.5600471 388.275200
   6970   6979   6981     1   109.5600471 388.275200
   6971   6970   6979     1   109.8000471 387.438400
   6971   6970   6972     1   107.5800459 329.699200
   6972   6970   6979     1   109.8000471 387.438400
   6973   6985   6986     1   109.5600471 388.275200
   6973   6985   6987     1   109.5600471 388.275200
   6974   6973   6985     1   109.8000471 387.438400
   6974   6973   6975     1   107.5800459 329.699200
   6975   6973   6985     1   109.8000471 387.438400
   6976   6982   6983     1   109.5600471 388.275200
   6976   6982   6984     1   109.5600471 388.275200
   6977   6976   6982     1   109.8000471 387.438400
   6977   6976   6978     1   107.5800459 329.699200
   6978   6976   6982     1   109.8000471 387.438400
   6980   6979   6988     1   109.7800468 425.094400
   6980   6979   6981     1   108.4600466 328.025600
   6981   6979   6988     1   109.7800468 425.094400
   6983   6982  12620     1   109.7800468 425.094400
   6983   6982   6984     1   108.4600466 328.025600
   6984   6982  12620     1   109.7800468 425.094400
   6986   6985  12643     1   109.7800468 425.094400
   6986   6985   6987     1   108.4600466 328.025600
   6987   6985  12643     1   109.7800468 425.094400
   6989   6990   6991     1   109.8800469 414.216000
   6989   6990   6992     1   109.8800469 414.216000
   6989   6993   6994     1   109.8800469 414.216000
   6989   6993   6995     1   109.8800469 414.216000
   6989   6996   6997     1   109.8800469 414.216000
   6989   6996   6998     1   109.8800469 414.216000
   6990   7002   7003     1   109.8000471 387.438400
   6990   7002   7004     1   109.8000471 387.438400
   6991   6990   7002     1   109.5600471 388.275200
   6991   6990   6992     1   108.4600466 328.025600
   6992   6990   7002     1   109.5600471 388.275200
   6993   7005   7006     1   109.8000471 387.438400
   6993   7005   7007     1   109.8000471 387.438400
   6994   6993   7005     1   109.5600471 388.275200
   6994   6993   6995     1   108.4600466 328.025600
   6995   6993   7005     1   109.5600471 388.275200
   6996   6999   7000     1   109.8000471 387.438400
   6996   6999   7001     1   109.8000471 387.438400
   6997   6996   6999     1   109.5600471 388.275200
   6997   6996   6998     1   108.4600466 328.025600
   6998   6996   6999     1   109.5600471 388.275200
   6999   7008   7009     1   109.5600471 388.275200
   6999   7008   7010     1   109.5600471 388.275200
   7000   6999   7008     1   109.8000471 387.438400
   7000   6999   7001     1   107.5800459 329.699200
   7001   6999   7008     1   109.8000471 387.438400
   7002   7014   7015     1   109.5600471 388.275200
   7002   7014   7016     1   109.5600471 388.275200
   7003   7002   7014     1   109.8000471 387.438400
   7003   7002   7004     1   107.5800459 329.699200
   7004   7002   7014     1   109.8000471 387.438400
   7005   7011   7012     1   109.5600471 388.275200
   7005   7011   7013     1   109.5600471 388.275200
   7006   7005   7011     1   109.8000471 387.438400
   7006   7005   7007     1   107.5800459 329.699200
   7007   7005   7011     1   109.8000471 387.438400
   7009   7008   7017     1   109.7800468 425.094400
   7009   7008   7010     1   108.4600466 328.025600
   7010   7008   7017     1   109.7800468 425.094400
   7012   7011  12666     1   109.7800468 425.094400
   7012   7011   7013     1   108.4600466 328.025600
   7013   7011  12666     1   109.7800468 425.094400
   7015   7014  12689     1   109.7800468 425.094400
   7015   7014   7016     1   108.4600466 328.025600
   7016   7014  12689     1   109.7800468 425.094400
   7018   7019   7020     1   109.8800469 414.216000
   7018   7019   7021     1   109.8800469 414.216000
   7018   7022   7023     1   109.8800469 414.216000
   7018   7022   7024     1   109.8800469 414.216000
   7018   7025   7026     1   109.8800469 414.216000
   7018   7025   7027     1   109.8800469 414.216000
   7019   7031   7032     1   109.8000471 387.438400
   7019   7031   7033     1   109.8000471 387.438400
   7020   7019   7031     1   109.5600471 388.275200
   7020   7019   7021     1   108.4600466 328.025600
   7021   7019   7031     1   109.5600471 388.275200
   7022   7034   7035     1   109.8000471 387.438400
   7022   7034   7036     1   109.8000471 387.438400
   7023   7022   7034     1   109.5600471 388.275200
   7023   7022   7024     1   108.4600466 328.025600
   7024   7022   7034     1   109.5600471 388.275200
   7025   7028   7029     1   109.8000471 387.438400
   7025   7028   7030     1   109.8000471 387.438400
   7026   7025   7028     1   109.5600471 388.275200
   7026   7025   7027     1   108.4600466 328.025600
   7027   7025   7028     1   109.5600471 388.275200
   7028   7037   7038     1   109.5600471 388.275200
   7028   7037   7039     1   109.5600471 388.275200
   7029   7028   7037     1   109.8000471 387.438400
   7029   7028   7030     1   107.5800459 329.699200
   7030   7028   7037     1   109.8000471 387.438400
   7031   7043   7044     1   109.5600471 388.275200
   7031   7043   7045     1   109.5600471 388.275200
   7032   7031   7043     1   109.8000471 387.438400
   7032   7031   7033     1   107.5800459 329.699200
   7033   7031   7043     1   109.8000471 387.438400
   7034   7040   7041     1   109.5600471 388.275200
   7034   7040   7042     1   109.5600471 388.275200
   7035   7034   7040     1   109.8000471 387.438400
   7035   7034   7036     1   107.5800459 329.699200
   7036   7034   7040     1   109.8000471 387.438400
   7038   7037   7046     1   109.7800468 425.094400
   7038   7037   7039     1   108.4600466 328.025600
   7039   7037   7046     1   109.7800468 425.094400
   7041   7040  12712     1   109.7800468 425.094400
   7041   7040   7042     1   108.4600466 328.025600
   7042   7040  12712     1   109.7800468 425.094400
   7044   7043  12735     1   109.7800468 425.094400
   7044   7043   7045     1   108.4600466 328.025600
   7045   7043  12735     1   109.7800468 425.094400
   7047   7048   7049     1   109.8800469 414.216000
   7047   7048   7050     1   109.8800469 414.216000
   7047   7051   7052     1   109.8800469 414.216000
   7047   7051   7053     1   109.8800469 414.216000
   7047   7054   7055     1   109.8800469 414.216000
   7047   7054   7056     1   109.8800469 414.216000
   7048   7060   7061     1   109.8000471 387.438400
   7048   7060   7062     1   109.8000471 387.438400
   7049   7048   7060     1   109.5600471 388.275200
   7049   7048   7050     1   108.4600466 328.025600
   7050   7048   7060     1   109.5600471 388.275200
   7051   7063   7064     1   109.8000471 387.438400
   7051   7063   7065     1   109.8000471 387.438400
   7052   7051   7063     1   109.5600471 388.275200
   7052   7051   7053     1   108.4600466 328.025600
   7053   7051   7063     1   109.5600471 388.275200
   7054   7057   7058     1   109.8000471 387.438400
   7054   7057   7059     1   109.8000471 387.438400
   7055   7054   7057     1   109.5600471 388.275200
   7055   7054   7056     1   108.4600466 328.025600
   7056   7054   7057     1   109.5600471 388.275200
   7057   7066   7067     1   109.5600471 388.275200
   7057   7066   7068     1   109.5600471 388.275200
   7058   7057   7066     1   109.8000471 387.438400
   7058   7057   7059     1   107.5800459 329.699200
   7059   7057   7066     1   109.8000471 387.438400
   7060   7072   7073     1   109.5600471 388.275200
   7060   7072   7074     1   109.5600471 388.275200
   7061   7060   7072     1   109.8000471 387.438400
   7061   7060   7062     1   107.5800459 329.699200
   7062   7060   7072     1   109.8000471 387.438400
   7063   7069   7070     1   109.5600471 388.275200
   7063   7069   7071     1   109.5600471 388.275200
   7064   7063   7069     1   109.8000471 387.438400
   7064   7063   7065     1   107.5800459 329.699200
   7065   7063   7069     1   109.8000471 387.438400
   7067   7066   7075     1   109.7800468 425.094400
   7067   7066   7068     1   108.4600466 328.025600
   7068   7066   7075     1   109.7800468 425.094400
   7070   7069  12758     1   109.7800468 425.094400
   7070   7069   7071     1   108.4600466 328.025600
   7071   7069  12758     1   109.7800468 425.094400
   7073   7072  12781     1   109.7800468 425.094400
   7073   7072   7074     1   108.4600466 328.025600
   7074   7072  12781     1   109.7800468 425.094400
   7076   7077   7078     1   109.8800469 414.216000
   7076   7077   7079     1   109.8800469 414.216000
   7076   7080   7081     1   109.8800469 414.216000
   7076   7080   7082     1   109.8800469 414.216000
   7076   7083   7084     1   109.8800469 414.216000
   7076   7083   7085     1   109.8800469 414.216000
   7077   7089   7090     1   109.8000471 387.438400
   7077   7089   7091     1   109.8000471 387.438400
   7078   7077   7089     1   109.5600471 388.275200
   7078   7077   7079     1   108.4600466 328.025600
   7079   7077   7089     1   109.5600471 388.275200
   7080   7092   7093     1   109.8000471 387.438400
   7080   7092   7094     1   109.8000471 387.438400
   7081   7080   7092     1   109.5600471 388.275200
   7081   7080   7082     1   108.4600466 328.025600
   7082   7080   7092     1   109.5600471 388.275200
   7083   7086   7087     1   109.8000471 387.438400
   7083   7086   7088     1   109.8000471 387.438400
   7084   7083   7086     1   109.5600471 388.275200
   7084   7083   7085     1   108.4600466 328.025600
   7085   7083   7086     1   109.5600471 388.275200
   7086   7095   7096     1   109.5600471 388.275200
   7086   7095   7097     1   109.5600471 388.275200
   7087   7086   7095     1   109.8000471 387.438400
   7087   7086   7088     1   107.5800459 329.699200
   7088   7086   7095     1   109.8000471 387.438400
   7089   7101   7102     1   109.5600471 388.275200
   7089   7101   7103     1   109.5600471 388.275200
   7090   7089   7101     1   109.8000471 387.438400
   7090   7089   7091     1   107.5800459 329.699200
   7091   7089   7101     1   109.8000471 387.438400
   7092   7098   7099     1   109.5600471 388.275200
   7092   7098   7100     1   109.5600471 388.275200
   7093   7092   7098     1   109.8000471 387.438400
   7093   7092   7094     1   107.5800459 329.699200
   7094   7092   7098     1   109.8000471 387.438400
   7096   7095   7104     1   109.7800468 425.094400
   7096   7095   7097     1   108.4600466 328.025600
   7097   7095   7104     1   109.7800468 425.094400
   7099   7098  12804     1   109.7800468 425.094400
   7099   7098   7100     1   108.4600466 328.025600
   7100   7098  12804     1   109.7800468 425.094400
   7102   7101  12827     1   109.7800468 425.094400
   7102   7101   7103     1   108.4600466 328.025600
   7103   7101  12827     1   109.7800468 425.094400
   7105   7106   7107     1   109.8800469 414.216000
   7105   7106   7108     1   109.8800469 414.216000
   7105   7109   7110     1   109.8800469 414.216000
   7105   7109   7111     1   109.8800469 414.216000
   7105   7112   7113     1   109.8800469 414.216000
   7105   7112   7114     1   109.8800469 414.216000
   7106   7118   7119     1   109.8000471 387.438400
   7106   7118   7120     1   109.8000471 387.438400
   7107   7106   7118     1   109.5600471 388.275200
   7107   7106   7108     1   108.4600466 328.025600
   7108   7106   7118     1   109.5600471 388.275200
   7109   7121   7122     1   109.8000471 387.438400
   7109   7121   7123     1   109.8000471 387.438400
   7110   7109   7121     1   109.5600471 388.275200
   7110   7109   7111     1   108.4600466 328.025600
   7111   7109   7121     1   109.5600471 388.275200
   7112   7115   7116     1   109.8000471 387.438400
   7112   7115   7117     1   109.8000471 387.438400
   7113   7112   7115     1   109.5600471 388.275200
   7113   7112   7114     1   108.4600466 328.025600
   7114   7112   7115     1   109.5600471 388.275200
   7115   7124   7125     1   109.5600471 388.275200
   7115   7124   7126     1   109.5600471 388.275200
   7116   7115   7124     1   109.8000471 387.438400
   7116   7115   7117     1   107.5800459 329.699200
   7117   7115   7124     1   109.8000471 387.438400
   7118   7130   7131     1   109.5600471 388.275200
   7118   7130   7132     1   109.5600471 388.275200
   7119   7118   7130     1   109.8000471 387.438400
   7119   7118   7120     1   107.5800459 329.699200
   7120   7118   7130     1   109.8000471 387.438400
   7121   7127   7128     1   109.5600471 388.275200
   7121   7127   7129     1   109.5600471 388.275200
   7122   7121   7127     1   109.8000471 387.438400
   7122   7121   7123     1   107.5800459 329.699200
   7123   7121   7127     1   109.8000471 387.438400
   7125   7124   7133     1   109.7800468 425.094400
   7125   7124   7126     1   108.4600466 328.025600
   7126   7124   7133     1   109.7800468 425.094400
   7128   7127  12850     1   109.7800468 425.094400
   7128   7127   7129     1   108.4600466 328.025600
   7129   7127  12850     1   109.7800468 425.094400
   7131   7130  12873     1   109.7800468 425.094400
   7131   7130   7132     1   108.4600466 328.025600
   7132   7130  12873     1   109.7800468 425.094400
   7134   7135   7136     1   109.8800469 414.216000
   7134   7135   7137     1   109.8800469 414.216000
   7134   7138   7139     1   109.8800469 414.216000
   7134   7138   7140     1   109.8800469 414.216000
   7134   7141   7142     1   109.8800469 414.216000
   7134   7141   7143     1   109.8800469 414.216000
   7135   7147   7148     1   109.8000471 387.438400
   7135   7147   7149     1   109.8000471 387.438400
   7136   7135   7147     1   109.5600471 388.275200
   7136   7135   7137     1   108.4600466 328.025600
   7137   7135   7147     1   109.5600471 388.275200
   7138   7150   7151     1   109.8000471 387.438400
   7138   7150   7152     1   109.8000471 387.438400
   7139   7138   7150     1   109.5600471 388.275200
   7139   7138   7140     1   108.4600466 328.025600
   7140   7138   7150     1   109.5600471 388.275200
   7141   7144   7145     1   109.8000471 387.438400
   7141   7144   7146     1   109.8000471 387.438400
   7142   7141   7144     1   109.5600471 388.275200
   7142   7141   7143     1   108.4600466 328.025600
   7143   7141   7144     1   109.5600471 388.275200
   7144   7153   7154     1   109.5600471 388.275200
   7144   7153   7155     1   109.5600471 388.275200
   7145   7144   7153     1   109.8000471 387.438400
   7145   7144   7146     1   107.5800459 329.699200
   7146   7144   7153     1   109.8000471 387.438400
   7147   7159   7160     1   109.5600471 388.275200
   7147   7159   7161     1   109.5600471 388.275200
   7148   7147   7159     1   109.8000471 387.438400
   7148   7147   7149     1   107.5800459 329.699200
   7149   7147   7159     1   109.8000471 387.438400
   7150   7156   7157     1   109.5600471 388.275200
   7150   7156   7158     1   109.5600471 388.275200
   7151   7150   7156     1   109.8000471 387.438400
   7151   7150   7152     1   107.5800459 329.699200
   7152   7150   7156     1   109.8000471 387.438400
   7154   7153   7162     1   109.7800468 425.094400
   7154   7153   7155     1   108.4600466 328.025600
   7155   7153   7162     1   109.7800468 425.094400
   7157   7156  12896     1   109.7800468 425.094400
   7157   7156   7158     1   108.4600466 328.025600
   7158   7156  12896     1   109.7800468 425.094400
   7160   7159  12919     1   109.7800468 425.094400
   7160   7159   7161     1   108.4600466 328.025600
   7161   7159  12919     1   109.7800468 425.094400
   7163   7164   7165     1   109.8800469 414.216000
   7163   7164   7166     1   109.8800469 414.216000
   7163   7167   7168     1   109.8800469 414.216000
   7163   7167   7169     1   109.8800469 414.216000
   7163   7170   7171     1   109.8800469 414.216000
   7163   7170   7172     1   109.8800469 414.216000
   7164   7176   7177     1   109.8000471 387.438400
   7164   7176   7178     1   109.8000471 387.438400
   7165   7164   7176     1   109.5600471 388.275200
   7165   7164   7166     1   108.4600466 328.025600
   7166   7164   7176     1   109.5600471 388.275200
   7167   7179   7180     1   109.8000471 387.438400
   7167   7179   7181     1   109.8000471 387.438400
   7168   7167   7179     1   109.5600471 388.275200
   7168   7167   7169     1   108.4600466 328.025600
   7169   7167   7179     1   109.5600471 388.275200
   7170   7173   7174     1   109.8000471 387.438400
   7170   7173   7175     1   109.8000471 387.438400
   7171   7170   7173     1   109.5600471 388.275200
   7171   7170   7172     1   108.4600466 328.025600
   7172   7170   7173     1   109.5600471 388.275200
   7173   7182   7183     1   109.5600471 388.275200
   7173   7182   7184     1   109.5600471 388.275200
   7174   7173   7182     1   109.8000471 387.438400
   7174   7173   7175     1   107.5800459 329.699200
   7175   7173   7182     1   109.8000471 387.438400
   7176   7188   7189     1   109.5600471 388.275200
   7176   7188   7190     1   109.5600471 388.275200
   7177   7176   7188     1   109.8000471 387.438400
   7177   7176   7178     1   107.5800459 329.699200
   7178   7176   7188     1   109.8000471 387.438400
   7179   7185   7186     1   109.5600471 388.275200
   7179   7185   7187     1   109.5600471 388.275200
   7180   7179   7185     1   109.8000471 387.438400
   7180   7179   7181     1   107.5800459 329.699200
   7181   7179   7185     1   109.8000471 387.438400
   7183   7182   7191     1   109.7800468 425.094400
   7183   7182   7184     1   108.4600466 328.025600
   7184   7182   7191     1   109.7800468 425.094400
   7186   7185  12942     1   109.7800468 425.094400
   7186   7185   7187     1   108.4600466 328.025600
   7187   7185  12942     1   109.7800468 425.094400
   7189   7188  12965     1   109.7800468 425.094400
   7189   7188   7190     1   108.4600466 328.025600
   7190   7188  12965     1   109.7800468 425.094400
   7192   7193   7194     1   109.8800469 414.216000
   7192   7193   7195     1   109.8800469 414.216000
   7192   7196   7197     1   109.8800469 414.216000
   7192   7196   7198     1   109.8800469 414.216000
   7192   7199   7200     1   109.8800469 414.216000
   7192   7199   7201     1   109.8800469 414.216000
   7193   7205   7206     1   109.8000471 387.438400
   7193   7205   7207     1   109.8000471 387.438400
   7194   7193   7205     1   109.5600471 388.275200
   7194   7193   7195     1   108.4600466 328.025600
   7195   7193   7205     1   109.5600471 388.275200
   7196   7208   7209     1   109.8000471 387.438400
   7196   7208   7210     1   109.8000471 387.438400
   7197   7196   7208     1   109.5600471 388.275200
   7197   7196   7198     1   108.4600466 328.025600
   7198   7196   7208     1   109.5600471 388.275200
   7199   7202   7203     1   109.8000471 387.438400
   7199   7202   7204     1   109.8000471 387.438400
   7200   7199   7202     1   109.5600471 388.275200
   7200   7199   7201     1   108.4600466 328.025600
   7201   7199   7202     1   109.5600471 388.275200
   7202   7211   7212     1   109.5600471 388.275200
   7202   7211   7213     1   109.5600471 388.275200
   7203   7202   7211     1   109.8000471 387.438400
   7203   7202   7204     1   107.5800459 329.699200
   7204   7202   7211     1   109.8000471 387.438400
   7205   7217   7218     1   109.5600471 388.275200
   7205   7217   7219     1   109.5600471 388.275200
   7206   7205   7217     1   109.8000471 387.438400
   7206   7205   7207     1   107.5800459 329.699200
   7207   7205   7217     1   109.8000471 387.438400
   7208   7214   7215     1   109.5600471 388.275200
   7208   7214   7216     1   109.5600471 388.275200
   7209   7208   7214     1   109.8000471 387.438400
   7209   7208   7210     1   107.5800459 329.699200
   7210   7208   7214     1   109.8000471 387.438400
   7212   7211   7220     1   109.7800468 425.094400
   7212   7211   7213     1   108.4600466 328.025600
   7213   7211   7220     1   109.7800468 425.094400
   7215   7214  12988     1   109.7800468 425.094400
   7215   7214   7216     1   108.4600466 328.025600
   7216   7214  12988     1   109.7800468 425.094400
   7218   7217  13011     1   109.7800468 425.094400
   7218   7217   7219     1   108.4600466 328.025600
   7219   7217  13011     1   109.7800468 425.094400
   7221   7222   7223     1   109.8800469 414.216000
   7221   7222   7224     1   109.8800469 414.216000
   7221   7225   7226     1   109.8800469 414.216000
   7221   7225   7227     1   109.8800469 414.216000
   7221   7228   7229     1   109.8800469 414.216000
   7221   7228   7230     1   109.8800469 414.216000
   7222   7234   7235     1   109.8000471 387.438400
   7222   7234   7236     1   109.8000471 387.438400
   7223   7222   7234     1   109.5600471 388.275200
   7223   7222   7224     1   108.4600466 328.025600
   7224   7222   7234     1   109.5600471 388.275200
   7225   7237   7238     1   109.8000471 387.438400
   7225   7237   7239     1   109.8000471 387.438400
   7226   7225   7237     1   109.5600471 388.275200
   7226   7225   7227     1   108.4600466 328.025600
   7227   7225   7237     1   109.5600471 388.275200
   7228   7231   7232     1   109.8000471 387.438400
   7228   7231   7233     1   109.8000471 387.438400
   7229   7228   7231     1   109.5600471 388.275200
   7229   7228   7230     1   108.4600466 328.025600
   7230   7228   7231     1   109.5600471 388.275200
   7231   7240   7241     1   109.5600471 388.275200
   7231   7240   7242     1   109.5600471 388.275200
   7232   7231   7240     1   109.8000471 387.438400
   7232   7231   7233     1   107.5800459 329.699200
   7233   7231   7240     1   109.8000471 387.438400
   7234   7246   7247     1   109.5600471 388.275200
   7234   7246   7248     1   109.5600471 388.275200
   7235   7234   7246     1   109.8000471 387.438400
   7235   7234   7236     1   107.5800459 329.699200
   7236   7234   7246     1   109.8000471 387.438400
   7237   7243   7244     1   109.5600471 388.275200
   7237   7243   7245     1   109.5600471 388.275200
   7238   7237   7243     1   109.8000471 387.438400
   7238   7237   7239     1   107.5800459 329.699200
   7239   7237   7243     1   109.8000471 387.438400
   7241   7240   7249     1   109.7800468 425.094400
   7241   7240   7242     1   108.4600466 328.025600
   7242   7240   7249     1   109.7800468 425.094400
   7244   7243  13034     1   109.7800468 425.094400
   7244   7243   7245     1   108.4600466 328.025600
   7245   7243  13034     1   109.7800468 425.094400
   7247   7246  13057     1   109.7800468 425.094400
   7247   7246   7248     1   108.4600466 328.025600
   7248   7246  13057     1   109.7800468 425.094400
   7250   7251   7252     1   109.8800469 414.216000
   7250   7251   7253     1   109.8800469 414.216000
   7250   7254   7255     1   109.8800469 414.216000
   7250   7254   7256     1   109.8800469 414.216000
   7250   7257   7258     1   109.8800469 414.216000
   7250   7257   7259     1   109.8800469 414.216000
   7251   7263   7264     1   109.8000471 387.438400
   7251   7263   7265     1   109.8000471 387.438400
   7252   7251   7263     1   109.5600471 388.275200
   7252   7251   7253     1   108.4600466 328.025600
   7253   7251   7263     1   109.5600471 388.275200
   7254   7266   7267     1   109.8000471 387.438400
   7254   7266   7268     1   109.8000471 387.438400
   7255   7254   7266     1   109.5600471 388.275200
   7255   7254   7256     1   108.4600466 328.025600
   7256   7254   7266     1   109.5600471 388.275200
   7257   7260   7261     1   109.8000471 387.438400
   7257   7260   7262     1   109.8000471 387.438400
   7258   7257   7260     1   109.5600471 388.275200
   7258   7257   7259     1   108.4600466 328.025600
   7259   7257   7260     1   109.5600471 388.275200
   7260   7269   7270     1   109.5600471 388.275200
   7260   7269   7271     1   109.5600471 388.275200
   7261   7260   7269     1   109.8000471 387.438400
   7261   7260   7262     1   107.5800459 329.699200
   7262   7260   7269     1   109.8000471 387.438400
   7263   7275   7276     1   109.5600471 388.275200
   7263   7275   7277     1   109.5600471 388.275200
   7264   7263   7275     1   109.8000471 387.438400
   7264   7263   7265     1   107.5800459 329.699200
   7265   7263   7275     1   109.8000471 387.438400
   7266   7272   7273     1   109.5600471 388.275200
   7266   7272   7274     1   109.5600471 388.275200
   7267   7266   7272     1   109.8000471 387.438400
   7267   7266   7268     1   107.5800459 329.699200
   7268   7266   7272     1   109.8000471 387.438400
   7270   7269   7278     1   109.7800468 425.094400
   7270   7269   7271     1   108.4600466 328.025600
   7271   7269   7278     1   109.7800468 425.094400
   7273   7272  13080     1   109.7800468 425.094400
   7273   7272   7274     1   108.4600466 328.025600
   7274   7272  13080     1   109.7800468 425.094400
   7276   7275  13103     1   109.7800468 425.094400
   7276   7275   7277     1   108.4600466 328.025600
   7277   7275  13103     1   109.7800468 425.094400
   7279   7280   7281     1   109.8800469 414.216000
   7279   7280   7282     1   109.8800469 414.216000
   7279   7283   7284     1   109.8800469 414.216000
   7279   7283   7285     1   109.8800469 414.216000
   7279   7286   7287     1   109.8800469 414.216000
   7279   7286   7288     1   109.8800469 414.216000
   7280   7292   7293     1   109.8000471 387.438400
   7280   7292   7294     1   109.8000471 387.438400
   7281   7280   7292     1   109.5600471 388.275200
   7281   7280   7282     1   108.4600466 328.025600
   7282   7280   7292     1   109.5600471 388.275200
   7283   7295   7296     1   109.8000471 387.438400
   7283   7295   7297     1   109.8000471 387.438400
   7284   7283   7295     1   109.5600471 388.275200
   7284   7283   7285     1   108.4600466 328.025600
   7285   7283   7295     1   109.5600471 388.275200
   7286   7289   7290     1   109.8000471 387.438400
   7286   7289   7291     1   109.8000471 387.438400
   7287   7286   7289     1   109.5600471 388.275200
   7287   7286   7288     1   108.4600466 328.025600
   7288   7286   7289     1   109.5600471 388.275200
   7289   7298   7299     1   109.5600471 388.275200
   7289   7298   7300     1   109.5600471 388.275200
   7290   7289   7298     1   109.8000471 387.438400
   7290   7289   7291     1   107.5800459 329.699200
   7291   7289   7298     1   109.8000471 387.438400
   7292   7304   7305     1   109.5600471 388.275200
   7292   7304   7306     1   109.5600471 388.275200
   7293   7292   7304     1   109.8000471 387.438400
   7293   7292   7294     1   107.5800459 329.699200
   7294   7292   7304     1   109.8000471 387.438400
   7295   7301   7302     1   109.5600471 388.275200
   7295   7301   7303     1   109.5600471 388.275200
   7296   7295   7301     1   109.8000471 387.438400
   7296   7295   7297     1   107.5800459 329.699200
   7297   7295   7301     1   109.8000471 387.438400
   7299   7298   7307     1   109.7800468 425.094400
   7299   7298   7300     1   108.4600466 328.025600
   7300   7298   7307     1   109.7800468 425.094400
   7302   7301  13126     1   109.7800468 425.094400
   7302   7301   7303     1   108.4600466 328.025600
   7303   7301  13126     1   109.7800468 425.094400
   7305   7304  13149     1   109.7800468 425.094400
   7305   7304   7306     1   108.4600466 328.025600
   7306   7304  13149     1   109.7800468 425.094400
   7308   7309   7310     1   109.8800469 414.216000
   7308   7309   7311     1   109.8800469 414.216000
   7308   7312   7313     1   109.8800469 414.216000
   7308   7312   7314     1   109.8800469 414.216000
   7308   7315   7316     1   109.8800469 414.216000
   7308   7315   7317     1   109.8800469 414.216000
   7309   7321   7322     1   109.8000471 387.438400
   7309   7321   7323     1   109.8000471 387.438400
   7310   7309   7321     1   109.5600471 388.275200
   7310   7309   7311     1   108.4600466 328.025600
   7311   7309   7321     1   109.5600471 388.275200
   7312   7324   7325     1   109.8000471 387.438400
   7312   7324   7326     1   109.8000471 387.438400
   7313   7312   7324     1   109.5600471 388.275200
   7313   7312   7314     1   108.4600466 328.025600
   7314   7312   7324     1   109.5600471 388.275200
   7315   7318   7319     1   109.8000471 387.438400
   7315   7318   7320     1   109.8000471 387.438400
   7316   7315   7318     1   109.5600471 388.275200
   7316   7315   7317     1   108.4600466 328.025600
   7317   7315   7318     1   109.5600471 388.275200
   7318   7327   7328     1   109.5600471 388.275200
   7318   7327   7329     1   109.5600471 388.275200
   7319   7318   7327     1   109.8000471 387.438400
   7319   7318   7320     1   107.5800459 329.699200
   7320   7318   7327     1   109.8000471 387.438400
   7321   7333   7334     1   109.5600471 388.275200
   7321   7333   7335     1   109.5600471 388.275200
   7322   7321   7333     1   109.8000471 387.438400
   7322   7321   7323     1   107.5800459 329.699200
   7323   7321   7333     1   109.8000471 387.438400
   7324   7330   7331     1   109.5600471 388.275200
   7324   7330   7332     1   109.5600471 388.275200
   7325   7324   7330     1   109.8000471 387.438400
   7325   7324   7326     1   107.5800459 329.699200
   7326   7324   7330     1   109.8000471 387.438400
   7328   7327   7336     1   109.7800468 425.094400
   7328   7327   7329     1   108.4600466 328.025600
   7329   7327   7336     1   109.7800468 425.094400
   7331   7330  13172     1   109.7800468 425.094400
   7331   7330   7332     1   108.4600466 328.025600
   7332   7330  13172     1   109.7800468 425.094400
   7334   7333  13195     1   109.7800468 425.094400
   7334   7333   7335     1   108.4600466 328.025600
   7335   7333  13195     1   109.7800468 425.094400
   7337   7338   7339     1   109.8800469 414.216000
   7337   7338   7340     1   109.8800469 414.216000
   7337   7341   7342     1   109.8800469 414.216000
   7337   7341   7343     1   109.8800469 414.216000
   7337   7344   7345     1   109.8800469 414.216000
   7337   7344   7346     1   109.8800469 414.216000
   7338   7350   7351     1   109.8000471 387.438400
   7338   7350   7352     1   109.8000471 387.438400
   7339   7338   7350     1   109.5600471 388.275200
   7339   7338   7340     1   108.4600466 328.025600
   7340   7338   7350     1   109.5600471 388.275200
   7341   7353   7354     1   109.8000471 387.438400
   7341   7353   7355     1   109.8000471 387.438400
   7342   7341   7353     1   109.5600471 388.275200
   7342   7341   7343     1   108.4600466 328.025600
   7343   7341   7353     1   109.5600471 388.275200
   7344   7347   7348     1   109.8000471 387.438400
   7344   7347   7349     1   109.8000471 387.438400
   7345   7344   7347     1   109.5600471 388.275200
   7345   7344   7346     1   108.4600466 328.025600
   7346   7344   7347     1   109.5600471 388.275200
   7347   7356   7357     1   109.5600471 388.275200
   7347   7356   7358     1   109.5600471 388.275200
   7348   7347   7356     1   109.8000471 387.438400
   7348   7347   7349     1   107.5800459 329.699200
   7349   7347   7356     1   109.8000471 387.438400
   7350   7362   7363     1   109.5600471 388.275200
   7350   7362   7364     1   109.5600471 388.275200
   7351   7350   7362     1   109.8000471 387.438400
   7351   7350   7352     1   107.5800459 329.699200
   7352   7350   7362     1   109.8000471 387.438400
   7353   7359   7360     1   109.5600471 388.275200
   7353   7359   7361     1   109.5600471 388.275200
   7354   7353   7359     1   109.8000471 387.438400
   7354   7353   7355     1   107.5800459 329.699200
   7355   7353   7359     1   109.8000471 387.438400
   7357   7356   7365     1   109.7800468 425.094400
   7357   7356   7358     1   108.4600466 328.025600
   7358   7356   7365     1   109.7800468 425.094400
   7360   7359  13218     1   109.7800468 425.094400
   7360   7359   7361     1   108.4600466 328.025600
   7361   7359  13218     1   109.7800468 425.094400
   7363   7362  13241     1   109.7800468 425.094400
   7363   7362   7364     1   108.4600466 328.025600
   7364   7362  13241     1   109.7800468 425.094400
   7366   7367   7369     1   109.5600471 388.275200
   7366   7380   7384     1   109.5600471 388.275200
   7366   7380   7385     1   109.5600471 388.275200
   7367   7366   7368     1   109.5600471 388.275200
   7367   7370   7374     1   109.5600471 388.275200
   7367   7379   7382     1   107.2600461 396.643200
   7368   7366   7380     1   109.5600471 388.275200
   7368   7366   7388     1   109.7800468 425.094400
   7369   7367   7370     1   109.5600471 388.275200
   7369   7367   7379     1   110.2600474 425.931200
   7370   7371   7373     1   109.5600471 388.275200
   7370   7378   7381     1   107.2600461 396.643200
   7371   7370   7374     1   109.5600471 388.275200
   7371   7372   7375     1   110.2200475 386.601600
   7371   7377   7383     1   107.2600461 396.643200
   7372   7371   7373     1   109.5600471 388.275200
   7373   7371   7377     1   110.2600474 425.931200
   7374   7370   7378     1   110.2600474 425.931200
   7375   7372   7376     1   109.5800467 425.931200
   7375   7372   7388     1   109.5800467 425.931200
   7380   7386   7387     1   107.2600461 396.643200
   7384   7380   7386     1   110.2600474 425.931200
   7384   7380   7385     1   108.4600466 328.025600
   7385   7380   7386     1   110.2600474 425.931200
   7389   7390   7392     1   109.5600471 388.275200
   7389   7403   7407     1   109.5600471 388.275200
   7389   7403   7408     1   109.5600471 388.275200
   7390   7393   7397     1   109.5600471 388.275200
   7390   7402   7405     1   107.2600461 396.643200
   7390   7389   7391     1   109.5600471 388.275200
   7391   7389   7403     1   109.5600471 388.275200
   7391   7389   7411     1   109.7800468 425.094400
   7392   7390   7393     1   109.5600471 388.275200
   7392   7390   7402     1   110.2600474 425.931200
   7393   7394   7396     1   109.5600471 388.275200
   7393   7401   7404     1   107.2600461 396.643200
   7394   7395   7398     1   110.2200475 386.601600
   7394   7400   7406     1   107.2600461 396.643200
   7394   7393   7397     1   109.5600471 388.275200
   7395   7394   7396     1   109.5600471 388.275200
   7396   7394   7400     1   110.2600474 425.931200
   7397   7393   7401     1   110.2600474 425.931200
   7398   7395   7399     1   109.5800467 425.931200
   7398   7395   7411     1   109.5800467 425.931200
   7403   7409   7410     1   107.2600461 396.643200
   7407   7403   7409     1   110.2600474 425.931200
   7407   7403   7408     1   108.4600466 328.025600
   7408   7403   7409     1   110.2600474 425.931200
   7412   7413   7415     1   109.5600471 388.275200
   7412   7426   7430     1   109.5600471 388.275200
   7412   7426   7431     1   109.5600471 388.275200
   7413   7412   7414     1   109.5600471 388.275200
   7413   7416   7420     1   109.5600471 388.275200
   7413   7425   7428     1   107.2600461 396.643200
   7414   7412   7426     1   109.5600471 388.275200
   7414   7412   7434     1   109.7800468 425.094400
   7415   7413   7416     1   109.5600471 388.275200
   7415   7413   7425     1   110.2600474 425.931200
   7416   7417   7419     1   109.5600471 388.275200
   7416   7424   7427     1   107.2600461 396.643200
   7417   7416   7420     1   109.5600471 388.275200
   7417   7418   7421     1   110.2200475 386.601600
   7417   7423   7429     1   107.2600461 396.643200
   7418   7417   7419     1   109.5600471 388.275200
   7419   7417   7423     1   110.2600474 425.931200
   7420   7416   7424     1   110.2600474 425.931200
   7421   7418   7422     1   109.5800467 425.931200
   7421   7418   7434     1   109.5800467 425.931200
   7426   7432   7433     1   107.2600461 396.643200
   7430   7426   7432     1   110.2600474 425.931200
   7430   7426   7431     1   108.4600466 328.025600
   7431   7426   7432     1   110.2600474 425.931200
   7435   7436   7438     1   109.5600471 388.275200
   7435   7449   7453     1   109.5600471 388.275200
   7435   7449   7454     1   109.5600471 388.275200
   7436   7439   7443     1   109.5600471 388.275200
   7436   7448   7451     1   107.2600461 396.643200
   7436   7435   7437     1   109.5600471 388.275200
   7437   7435   7449     1   109.5600471 388.275200
   7437   7435   7457     1   109.7800468 425.094400
   7438   7436   7439     1   109.5600471 388.275200
   7438   7436   7448     1   110.2600474 425.931200
   7439   7440   7442     1   109.5600471 388.275200
   7439   7447   7450     1   107.2600461 396.643200
   7440   7441   7444     1   110.2200475 386.601600
   7440   7446   7452     1   107.2600461 396.643200
   7440   7439   7443     1   109.5600471 388.275200
   7441   7440   7442     1   109.5600471 388.275200
   7442   7440   7446     1   110.2600474 425.931200
   7443   7439   7447     1   110.2600474 425.931200
   7444   7441   7445     1   109.5800467 425.931200
   7444   7441   7457     1   109.5800467 425.931200
   7449   7455   7456     1   107.2600461 396.643200
   7453   7449   7455     1   110.2600474 425.931200
   7453   7449   7454     1   108.4600466 328.025600
   7454   7449   7455     1   110.2600474 425.931200
   7458   7459   7461     1   109.5600471 388.275200
   7458   7472   7476     1   109.5600471 388.275200
   7458   7472   7477     1   109.5600471 388.275200
   7459   7458   7460     1   109.5600471 388.275200
   7459   7462   7466     1   109.5600471 388.275200
   7459   7471   7474     1   107.2600461 396.643200
   7460   7458   7472     1   109.5600471 388.275200
   7460   7458   7480     1   109.7800468 425.094400
   7461   7459   7462     1   109.5600471 388.275200
   7461   7459   7471     1   110.2600474 425.931200
   7462   7463   7465     1   109.5600471 388.275200
   7462   7470   7473     1   107.2600461 396.643200
   7463   7462   7466     1   109.5600471 388.275200
   7463   7464   7467     1   110.2200475 386.601600
   7463   7469   7475     1   107.2600461 396.643200
   7464   7463   7465     1   109.5600471 388.275200
   7465   7463   7469     1   110.2600474 425.931200
   7466   7462   7470     1   110.2600474 425.931200
   7467   7464   7468     1   109.5800467 425.931200
   7467   7464   7480     1   109.5800467 425.931200
   7472   7478   7479     1   107.2600461 396.643200
   7476   7472   7478     1   110.2600474 425.931200
   7476   7472   7477     1   108.4600466 328.025600
   7477   7472   7478     1   110.2600474 425.931200
   7481   7482   7484     1   109.5600471 388.275200
   7481   7495   7499     1   109.5600471 388.275200
   7481   7495   7500     1   109.5600471 388.275200
   7482   7485   7489     1   109.5600471 388.275200
   7482   7494   7497     1   107.2600461 396.643200
   7482   7481   7483     1   109.5600471 388.275200
   7483   7481   7495     1   109.5600471 388.275200
   7483   7481   7503     1   109.7800468 425.094400
   7484   7482   7485     1   109.5600471 388.275200
   7484   7482   7494     1   110.2600474 425.931200
   7485   7486   7488     1   109.5600471 388.275200
   7485   7493   7496     1   107.2600461 396.643200
   7486   7487   7490     1   110.2200475 386.601600
   7486   7492   7498     1   107.2600461 396.643200
   7486   7485   7489     1   109.5600471 388.275200
   7487   7486   7488     1   109.5600471 388.275200
   7488   7486   7492     1   110.2600474 425.931200
   7489   7485   7493     1   110.2600474 425.931200
   7490   7487   7491     1   109.5800467 425.931200
   7490   7487   7503     1   109.5800467 425.931200
   7495   7501   7502     1   107.2600461 396.643200
   7499   7495   7501     1   110.2600474 425.931200
   7499   7495   7500     1   108.4600466 328.025600
   7500   7495   7501     1   110.2600474 425.931200
   7504   7505   7507     1   109.5600471 388.275200
   7504   7518   7522     1   109.5600471 388.275200
   7504   7518   7523     1   109.5600471 388.275200
   7505   7504   7506     1   109.5600471 388.275200
   7505   7508   7512     1   109.5600471 388.275200
   7505   7517   7520     1   107.2600461 396.643200
   7506   7504   7518     1   109.5600471 388.275200
   7506   7504   7526     1   109.7800468 425.094400
   7507   7505   7508     1   109.5600471 388.275200
   7507   7505   7517     1   110.2600474 425.931200
   7508   7509   7511     1   109.5600471 388.275200
   7508   7516   7519     1   107.2600461 396.643200
   7509   7508   7512     1   109.5600471 388.275200
   7509   7510   7513     1   110.2200475 386.601600
   7509   7515   7521     1   107.2600461 396.643200
   7510   7509   7511     1   109.5600471 388.275200
   7511   7509   7515     1   110.2600474 425.931200
   7512   7508   7516     1   110.2600474 425.931200
   7513   7510   7514     1   109.5800467 425.931200
   7513   7510   7526     1   109.5800467 425.931200
   7518   7524   7525     1   107.2600461 396.643200
   7522   7518   7524     1   110.2600474 425.931200
   7522   7518   7523     1   108.4600466 328.025600
   7523   7518   7524     1   110.2600474 425.931200
   7527   7528   7530     1   109.5600471 388.275200
   7527   7541   7545     1   109.5600471 388.275200
   7527   7541   7546     1   109.5600471 388.275200
   7528   7531   7535     1   109.5600471 388.275200
   7528   7540   7543     1   107.2600461 396.643200
   7528   7527   7529     1   109.5600471 388.275200
   7529   7527   7541     1   109.5600471 388.275200
   7529   7527   7549     1   109.7800468 425.094400
   7530   7528   7531     1   109.5600471 388.275200
   7530   7528   7540     1   110.2600474 425.931200
   7531   7532   7534     1   109.5600471 388.275200
   7531   7539   7542     1   107.2600461 396.643200
   7532   7533   7536     1   110.2200475 386.601600
   7532   7538   7544     1   107.2600461 396.643200
   7532   7531   7535     1   109.5600471 388.275200
   7533   7532   7534     1   109.5600471 388.275200
   7534   7532   7538     1   110.2600474 425.931200
   7535   7531   7539     1   110.2600474 425.931200
   7536   7533   7537     1   109.5800467 425.931200
   7536   7533   7549     1   109.5800467 425.931200
   7541   7547   7548     1   107.2600461 396.643200
   7545   7541   7547     1   110.2600474 425.931200
   7545   7541   7546     1   108.4600466 328.025600
   7546   7541   7547     1   110.2600474 425.931200
   7550   7551   7553     1   109.5600471 388.275200
   7550   7564   7568     1   109.5600471 388.275200
   7550   7564   7569     1   109.5600471 388.275200
   7551   7550   7552     1   109.5600471 388.275200
   7551   7554   7558     1   109.5600471 388.275200
   7551   7563   7566     1   107.2600461 396.643200
   7552   7550   7564     1   109.5600471 388.275200
   7552   7550   7572     1   109.7800468 425.094400
   7553   7551   7554     1   109.5600471 388.275200
   7553   7551   7563     1   110.2600474 425.931200
   7554   7555   7557     1   109.5600471 388.275200
   7554   7562   7565     1   107.2600461 396.643200
   7555   7554   7558     1   109.5600471 388.275200
   7555   7556   7559     1   110.2200475 386.601600
   7555   7561   7567     1   107.2600461 396.643200
   7556   7555   7557     1   109.5600471 388.275200
   7557   7555   7561     1   110.2600474 425.931200
   7558   7554   7562     1   110.2600474 425.931200
   7559   7556   7560     1   109.5800467 425.931200
   7559   7556   7572     1   109.5800467 425.931200
   7564   7570   7571     1   107.2600461 396.643200
   7568   7564   7570     1   110.2600474 425.931200
   7568   7564   7569     1   108.4600466 328.025600
   7569   7564   7570     1   110.2600474 425.931200
   7573   7574   7576     1   109.5600471 388.275200
   7573   7587   7591     1   109.5600471 388.275200
   7573   7587   7592     1   109.5600471 388.275200
   7574   7577   7581     1   109.5600471 388.275200
   7574   7586   7589     1   107.2600461 396.643200
   7574   7573   7575     1   109.5600471 388.275200
   7575   7573   7587     1   109.5600471 388.275200
   7575   7573   7595     1   109.7800468 425.094400
   7576   7574   7577     1   109.5600471 388.275200
   7576   7574   7586     1   110.2600474 425.931200
   7577   7578   7580     1   109.5600471 388.275200
   7577   7585   7588     1   107.2600461 396.643200
   7578   7579   7582     1   110.2200475 386.601600
   7578   7584   7590     1   107.2600461 396.643200
   7578   7577   7581     1   109.5600471 388.275200
   7579   7578   7580     1   109.5600471 388.275200
   7580   7578   7584     1   110.2600474 425.931200
   7581   7577   7585     1   110.2600474 425.931200
   7582   7579   7583     1   109.5800467 425.931200
   7582   7579   7595     1   109.5800467 425.931200
   7587   7593   7594     1   107.2600461 396.643200
   7591   7587   7593     1   110.2600474 425.931200
   7591   7587   7592     1   108.4600466 328.025600
   7592   7587   7593     1   110.2600474 425.931200
   7596   7597   7599     1   109.5600471 388.275200
   7596   7610   7614     1   109.5600471 388.275200
   7596   7610   7615     1   109.5600471 388.275200
   7597   7596   7598     1   109.5600471 388.275200
   7597   7600   7604     1   109.5600471 388.275200
   7597   7609   7612     1   107.2600461 396.643200
   7598   7596   7610     1   109.5600471 388.275200
   7598   7596   7618     1   109.7800468 425.094400
   7599   7597   7600     1   109.5600471 388.275200
   7599   7597   7609     1   110.2600474 425.931200
   7600   7601   7603     1   109.5600471 388.275200
   7600   7608   7611     1   107.2600461 396.643200
   7601   7600   7604     1   109.5600471 388.275200
   7601   7602   7605     1   110.2200475 386.601600
   7601   7607   7613     1   107.2600461 396.643200
   7602   7601   7603     1   109.5600471 388.275200
   7603   7601   7607     1   110.2600474 425.931200
   7604   7600   7608     1   110.2600474 425.931200
   7605   7602   7606     1   109.5800467 425.931200
   7605   7602   7618     1   109.5800467 425.931200
   7610   7616   7617     1   107.2600461 396.643200
   7614   7610   7616     1   110.2600474 425.931200
   7614   7610   7615     1   108.4600466 328.025600
   7615   7610   7616     1   110.2600474 425.931200
   7619   7620   7622     1   109.5600471 388.275200
   7619   7633   7637     1   109.5600471 388.275200
   7619   7633   7638     1   109.5600471 388.275200
   7620   7623   7627     1   109.5600471 388.275200
   7620   7632   7635     1   107.2600461 396.643200
   7620   7619   7621     1   109.5600471 388.275200
   7621   7619   7633     1   109.5600471 388.275200
   7621   7619   7641     1   109.7800468 425.094400
   7622   7620   7623     1   109.5600471 388.275200
   7622   7620   7632     1   110.2600474 425.931200
   7623   7624   7626     1   109.5600471 388.275200
   7623   7631   7634     1   107.2600461 396.643200
   7624   7625   7628     1   110.2200475 386.601600
   7624   7630   7636     1   107.2600461 396.643200
   7624   7623   7627     1   109.5600471 388.275200
   7625   7624   7626     1   109.5600471 388.275200
   7626   7624   7630     1   110.2600474 425.931200
   7627   7623   7631     1   110.2600474 425.931200
   7628   7625   7629     1   109.5800467 425.931200
   7628   7625   7641     1   109.5800467 425.931200
   7633   7639   7640     1   107.2600461 396.643200
   7637   7633   7639     1   110.2600474 425.931200
   7637   7633   7638     1   108.4600466 328.025600
   7638   7633   7639     1   110.2600474 425.931200
   7642   7643   7645     1   109.5600471 388.275200
   7642   7656   7660     1   109.5600471 388.275200
   7642   7656   7661     1   109.5600471 388.275200
   7643   7642   7644     1   109.5600471 388.275200
   7643   7646   7650     1   109.5600471 388.275200
   7643   7655   7658     1   107.2600461 396.643200
   7644   7642   7656     1   109.5600471 388.275200
   7644   7642   7664     1   109.7800468 425.094400
   7645   7643   7646     1   109.5600471 388.275200
   7645   7643   7655     1   110.2600474 425.931200
   7646   7647   7649     1   109.5600471 388.275200
   7646   7654   7657     1   107.2600461 396.643200
   7647   7646   7650     1   109.5600471 388.275200
   7647   7648   7651     1   110.2200475 386.601600
   7647   7653   7659     1   107.2600461 396.643200
   7648   7647   7649     1   109.5600471 388.275200
   7649   7647   7653     1   110.2600474 425.931200
   7650   7646   7654     1   110.2600474 425.931200
   7651   7648   7652     1   109.5800467 425.931200
   7651   7648   7664     1   109.5800467 425.931200
   7656   7662   7663     1   107.2600461 396.643200
   7660   7656   7662     1   110.2600474 425.931200
   7660   7656   7661     1   108.4600466 328.025600
   7661   7656   7662     1   110.2600474 425.931200
   7665   7666   7668     1   109.5600471 388.275200
   7665   7679   7683     1   109.5600471 388.275200
   7665   7679   7684     1   109.5600471 388.275200
   7666   7669   7673     1   109.5600471 388.275200
   7666   7678   7681     1   107.2600461 396.643200
   7666   7665   7667     1   109.5600471 388.275200
   7667   7665   7679     1   109.5600471 388.275200
   7667   7665   7687     1   109.7800468 425.094400
   7668   7666   7669     1   109.5600471 388.275200
   7668   7666   7678     1   110.2600474 425.931200
   7669   7670   7672     1   109.5600471 388.275200
   7669   7677   7680     1   107.2600461 396.643200
   7670   7671   7674     1   110.2200475 386.601600
   7670   7676   7682     1   107.2600461 396.643200
   7670   7669   7673     1   109.5600471 388.275200
   7671   7670   7672     1   109.5600471 388.275200
   7672   7670   7676     1   110.2600474 425.931200
   7673   7669   7677     1   110.2600474 425.931200
   7674   7671   7675     1   109.5800467 425.931200
   7674   7671   7687     1   109.5800467 425.931200
   7679   7685   7686     1   107.2600461 396.643200
   7683   7679   7685     1   110.2600474 425.931200
   7683   7679   7684     1   108.4600466 328.025600
   7684   7679   7685     1   110.2600474 425.931200
   7688   7689   7691     1   109.5600471 388.275200
   7688   7702   7706     1   109.5600471 388.275200
   7688   7702   7707     1   109.5600471 388.275200
   7689   7688   7690     1   109.5600471 388.275200
   7689   7692   7696     1   109.5600471 388.275200
   7689   7701   7704     1   107.2600461 396.643200
   7690   7688   7702     1   109.5600471 388.275200
   7690   7688   7710     1   109.7800468 425.094400
   7691   7689   7692     1   109.5600471 388.275200
   7691   7689   7701     1   110.2600474 425.931200
   7692   7693   7695     1   109.5600471 388.275200
   7692   7700   7703     1   107.2600461 396.643200
   7693   7692   7696     1   109.5600471 388.275200
   7693   7694   7697     1   110.2200475 386.601600
   7693   7699   7705     1   107.2600461 396.643200
   7694   7693   7695     1   109.5600471 388.275200
   7695   7693   7699     1   110.2600474 425.931200
   7696   7692   7700     1   110.2600474 425.931200
   7697   7694   7698     1   109.5800467 425.931200
   7697   7694   7710     1   109.5800467 425.931200
   7702   7708   7709     1   107.2600461 396.643200
   7706   7702   7708     1   110.2600474 425.931200
   7706   7702   7707     1   108.4600466 328.025600
   7707   7702   7708     1   110.2600474 425.931200
   7711   7712   7714     1   109.5600471 388.275200
   7711   7725   7729     1   109.5600471 388.275200
   7711   7725   7730     1   109.5600471 388.275200
   7712   7715   7719     1   109.5600471 388.275200
   7712   7724   7727     1   107.2600461 396.643200
   7712   7711   7713     1   109.5600471 388.275200
   7713   7711   7725     1   109.5600471 388.275200
   7713   7711   7733     1   109.7800468 425.094400
   7714   7712   7715     1   109.5600471 388.275200
   7714   7712   7724     1   110.2600474 425.931200
   7715   7716   7718     1   109.5600471 388.275200
   7715   7723   7726     1   107.2600461 396.643200
   7716   7717   7720     1   110.2200475 386.601600
   7716   7722   7728     1   107.2600461 396.643200
   7716   7715   7719     1   109.5600471 388.275200
   7717   7716   7718     1   109.5600471 388.275200
   7718   7716   7722     1   110.2600474 425.931200
   7719   7715   7723     1   110.2600474 425.931200
   7720   7717   7721     1   109.5800467 425.931200
   7720   7717   7733     1   109.5800467 425.931200
   7725   7731   7732     1   107.2600461 396.643200
   7729   7725   7731     1   110.2600474 425.931200
   7729   7725   7730     1   108.4600466 328.025600
   7730   7725   7731     1   110.2600474 425.931200
   7734   7735   7737     1   109.5600471 388.275200
   7734   7748   7752     1   109.5600471 388.275200
   7734   7748   7753     1   109.5600471 388.275200
   7735   7734   7736     1   109.5600471 388.275200
   7735   7738   7742     1   109.5600471 388.275200
   7735   7747   7750     1   107.2600461 396.643200
   7736   7734   7748     1   109.5600471 388.275200
   7736   7734   7756     1   109.7800468 425.094400
   7737   7735   7738     1   109.5600471 388.275200
   7737   7735   7747     1   110.2600474 425.931200
   7738   7739   7741     1   109.5600471 388.275200
   7738   7746   7749     1   107.2600461 396.643200
   7739   7738   7742     1   109.5600471 388.275200
   7739   7740   7743     1   110.2200475 386.601600
   7739   7745   7751     1   107.2600461 396.643200
   7740   7739   7741     1   109.5600471 388.275200
   7741   7739   7745     1   110.2600474 425.931200
   7742   7738   7746     1   110.2600474 425.931200
   7743   7740   7744     1   109.5800467 425.931200
   7743   7740   7756     1   109.5800467 425.931200
   7748   7754   7755     1   107.2600461 396.643200
   7752   7748   7754     1   110.2600474 425.931200
   7752   7748   7753     1   108.4600466 328.025600
   7753   7748   7754     1   110.2600474 425.931200
   7757   7758   7760     1   109.5600471 388.275200
   7757   7771   7775     1   109.5600471 388.275200
   7757   7771   7776     1   109.5600471 388.275200
   7758   7761   7765     1   109.5600471 388.275200
   7758   7770   7773     1   107.2600461 396.643200
   7758   7757   7759     1   109.5600471 388.275200
   7759   7757   7771     1   109.5600471 388.275200
   7759   7757   7779     1   109.7800468 425.094400
   7760   7758   7761     1   109.5600471 388.275200
   7760   7758   7770     1   110.2600474 425.931200
   7761   7762   7764     1   109.5600471 388.275200
   7761   7769   7772     1   107.2600461 396.643200
   7762   7763   7766     1   110.2200475 386.601600
   7762   7768   7774     1   107.2600461 396.643200
   7762   7761   7765     1   109.5600471 388.275200
   7763   7762   7764     1   109.5600471 388.275200
   7764   7762   7768     1   110.2600474 425.931200
   7765   7761   7769     1   110.2600474 425.931200
   7766   7763   7767     1   109.5800467 425.931200
   7766   7763   7779     1   109.5800467 425.931200
   7771   7777   7778     1   107.2600461 396.643200
   7775   7771   7777     1   110.2600474 425.931200
   7775   7771   7776     1   108.4600466 328.025600
   7776   7771   7777     1   110.2600474 425.931200
   7780   7781   7783     1   109.5600471 388.275200
   7780   7794   7798     1   109.5600471 388.275200
   7780   7794   7799     1   109.5600471 388.275200
   7781   7780   7782     1   109.5600471 388.275200
   7781   7784   7788     1   109.5600471 388.275200
   7781   7793   7796     1   107.2600461 396.643200
   7782   7780   7794     1   109.5600471 388.275200
   7782   7780   7802     1   109.7800468 425.094400
   7783   7781   7784     1   109.5600471 388.275200
   7783   7781   7793     1   110.2600474 425.931200
   7784   7785   7787     1   109.5600471 388.275200
   7784   7792   7795     1   107.2600461 396.643200
   7785   7784   7788     1   109.5600471 388.275200
   7785   7786   7789     1   110.2200475 386.601600
   7785   7791   7797     1   107.2600461 396.643200
   7786   7785   7787     1   109.5600471 388.275200
   7787   7785   7791     1   110.2600474 425.931200
   7788   7784   7792     1   110.2600474 425.931200
   7789   7786   7790     1   109.5800467 425.931200
   7789   7786   7802     1   109.5800467 425.931200
   7794   7800   7801     1   107.2600461 396.643200
   7798   7794   7800     1   110.2600474 425.931200
   7798   7794   7799     1   108.4600466 328.025600
   7799   7794   7800     1   110.2600474 425.931200
   7803   7804   7806     1   109.5600471 388.275200
   7803   7817   7821     1   109.5600471 388.275200
   7803   7817   7822     1   109.5600471 388.275200
   7804   7807   7811     1   109.5600471 388.275200
   7804   7816   7819     1   107.2600461 396.643200
   7804   7803   7805     1   109.5600471 388.275200
   7805   7803   7817     1   109.5600471 388.275200
   7805   7803   7825     1   109.7800468 425.094400
   7806   7804   7807     1   109.5600471 388.275200
   7806   7804   7816     1   110.2600474 425.931200
   7807   7808   7810     1   109.5600471 388.275200
   7807   7815   7818     1   107.2600461 396.643200
   7808   7809   7812     1   110.2200475 386.601600
   7808   7814   7820     1   107.2600461 396.643200
   7808   7807   7811     1   109.5600471 388.275200
   7809   7808   7810     1   109.5600471 388.275200
   7810   7808   7814     1   110.2600474 425.931200
   7811   7807   7815     1   110.2600474 425.931200
   7812   7809   7813     1   109.5800467 425.931200
   7812   7809   7825     1   109.5800467 425.931200
   7817   7823   7824     1   107.2600461 396.643200
   7821   7817   7823     1   110.2600474 425.931200
   7821   7817   7822     1   108.4600466 328.025600
   7822   7817   7823     1   110.2600474 425.931200
   7826   7827   7829     1   109.5600471 388.275200
   7826   7840   7844     1   109.5600471 388.275200
   7826   7840   7845     1   109.5600471 388.275200
   7827   7826   7828     1   109.5600471 388.275200
   7827   7830   7834     1   109.5600471 388.275200
   7827   7839   7842     1   107.2600461 396.643200
   7828   7826   7840     1   109.5600471 388.275200
   7828   7826   7848     1   109.7800468 425.094400
   7829   7827   7830     1   109.5600471 388.275200
   7829   7827   7839     1   110.2600474 425.931200
   7830   7831   7833     1   109.5600471 388.275200
   7830   7838   7841     1   107.2600461 396.643200
   7831   7830   7834     1   109.5600471 388.275200
   7831   7832   7835     1   110.2200475 386.601600
   7831   7837   7843     1   107.2600461 396.643200
   7832   7831   7833     1   109.5600471 388.275200
   7833   7831   7837     1   110.2600474 425.931200
   7834   7830   7838     1   110.2600474 425.931200
   7835   7832   7836     1   109.5800467 425.931200
   7835   7832   7848     1   109.5800467 425.931200
   7840   7846   7847     1   107.2600461 396.643200
   7844   7840   7846     1   110.2600474 425.931200
   7844   7840   7845     1   108.4600466 328.025600
   7845   7840   7846     1   110.2600474 425.931200
   7849   7850   7852     1   109.5600471 388.275200
   7849   7863   7867     1   109.5600471 388.275200
   7849   7863   7868     1   109.5600471 388.275200
   7850   7853   7857     1   109.5600471 388.275200
   7850   7862   7865     1   107.2600461 396.643200
   7850   7849   7851     1   109.5600471 388.275200
   7851   7849   7863     1   109.5600471 388.275200
   7851   7849   7871     1   109.7800468 425.094400
   7852   7850   7853     1   109.5600471 388.275200
   7852   7850   7862     1   110.2600474 425.931200
   7853   7854   7856     1   109.5600471 388.275200
   7853   7861   7864     1   107.2600461 396.643200
   7854   7855   7858     1   110.2200475 386.601600
   7854   7860   7866     1   107.2600461 396.643200
   7854   7853   7857     1   109.5600471 388.275200
   7855   7854   7856     1   109.5600471 388.275200
   7856   7854   7860     1   110.2600474 425.931200
   7857   7853   7861     1   110.2600474 425.931200
   7858   7855   7859     1   109.5800467 425.931200
   7858   7855   7871     1   109.5800467 425.931200
   7863   7869   7870     1   107.2600461 396.643200
   7867   7863   7869     1   110.2600474 425.931200
   7867   7863   7868     1   108.4600466 328.025600
   7868   7863   7869     1   110.2600474 425.931200
   7872   7873   7875     1   109.5600471 388.275200
   7872   7886   7890     1   109.5600471 388.275200
   7872   7886   7891     1   109.5600471 388.275200
   7873   7872   7874     1   109.5600471 388.275200
   7873   7876   7880     1   109.5600471 388.275200
   7873   7885   7888     1   107.2600461 396.643200
   7874   7872   7886     1   109.5600471 388.275200
   7874   7872   7894     1   109.7800468 425.094400
   7875   7873   7876     1   109.5600471 388.275200
   7875   7873   7885     1   110.2600474 425.931200
   7876   7877   7879     1   109.5600471 388.275200
   7876   7884   7887     1   107.2600461 396.643200
   7877   7876   7880     1   109.5600471 388.275200
   7877   7878   7881     1   110.2200475 386.601600
   7877   7883   7889     1   107.2600461 396.643200
   7878   7877   7879     1   109.5600471 388.275200
   7879   7877   7883     1   110.2600474 425.931200
   7880   7876   7884     1   110.2600474 425.931200
   7881   7878   7882     1   109.5800467 425.931200
   7881   7878   7894     1   109.5800467 425.931200
   7886   7892   7893     1   107.2600461 396.643200
   7890   7886   7892     1   110.2600474 425.931200
   7890   7886   7891     1   108.4600466 328.025600
   7891   7886   7892     1   110.2600474 425.931200
   7895   7896   7898     1   109.5600471 388.275200
   7895   7909   7913     1   109.5600471 388.275200
   7895   7909   7914     1   109.5600471 388.275200
   7896   7899   7903     1   109.5600471 388.275200
   7896   7908   7911     1   107.2600461 396.643200
   7896   7895   7897     1   109.5600471 388.275200
   7897   7895   7909     1   109.5600471 388.275200
   7897   7895   7917     1   109.7800468 425.094400
   7898   7896   7899     1   109.5600471 388.275200
   7898   7896   7908     1   110.2600474 425.931200
   7899   7900   7902     1   109.5600471 388.275200
   7899   7907   7910     1   107.2600461 396.643200
   7900   7901   7904     1   110.2200475 386.601600
   7900   7906   7912     1   107.2600461 396.643200
   7900   7899   7903     1   109.5600471 388.275200
   7901   7900   7902     1   109.5600471 388.275200
   7902   7900   7906     1   110.2600474 425.931200
   7903   7899   7907     1   110.2600474 425.931200
   7904   7901   7905     1   109.5800467 425.931200
   7904   7901   7917     1   109.5800467 425.931200
   7909   7915   7916     1   107.2600461 396.643200
   7913   7909   7915     1   110.2600474 425.931200
   7913   7909   7914     1   108.4600466 328.025600
   7914   7909   7915     1   110.2600474 425.931200
   7918   7919   7921     1   109.5600471 388.275200
   7918   7932   7936     1   109.5600471 388.275200
   7918   7932   7937     1   109.5600471 388.275200
   7919   7918   7920     1   109.5600471 388.275200
   7919   7922   7926     1   109.5600471 388.275200
   7919   7931   7934     1   107.2600461 396.643200
   7920   7918   7932     1   109.5600471 388.275200
   7920   7918   7940     1   109.7800468 425.094400
   7921   7919   7922     1   109.5600471 388.275200
   7921   7919   7931     1   110.2600474 425.931200
   7922   7923   7925     1   109.5600471 388.275200
   7922   7930   7933     1   107.2600461 396.643200
   7923   7922   7926     1   109.5600471 388.275200
   7923   7924   7927     1   110.2200475 386.601600
   7923   7929   7935     1   107.2600461 396.643200
   7924   7923   7925     1   109.5600471 388.275200
   7925   7923   7929     1   110.2600474 425.931200
   7926   7922   7930     1   110.2600474 425.931200
   7927   7924   7928     1   109.5800467 425.931200
   7927   7924   7940     1   109.5800467 425.931200
   7932   7938   7939     1   107.2600461 396.643200
   7936   7932   7938     1   110.2600474 425.931200
   7936   7932   7937     1   108.4600466 328.025600
   7937   7932   7938     1   110.2600474 425.931200
   7941   7942   7944     1   109.5600471 388.275200
   7941   7955   7959     1   109.5600471 388.275200
   7941   7955   7960     1   109.5600471 388.275200
   7942   7945   7949     1   109.5600471 388.275200
   7942   7954   7957     1   107.2600461 396.643200
   7942   7941   7943     1   109.5600471 388.275200
   7943   7941   7955     1   109.5600471 388.275200
   7943   7941   7963     1   109.7800468 425.094400
   7944   7942   7945     1   109.5600471 388.275200
   7944   7942   7954     1   110.2600474 425.931200
   7945   7946   7948     1   109.5600471 388.275200
   7945   7953   7956     1   107.2600461 396.643200
   7946   7947   7950     1   110.2200475 386.601600
   7946   7952   7958     1   107.2600461 396.643200
   7946   7945   7949     1   109.5600471 388.275200
   7947   7946   7948     1   109.5600471 388.275200
   7948   7946   7952     1   110.2600474 425.931200
   7949   7945   7953     1   110.2600474 425.931200
   7950   7947   7951     1   109.5800467 425.931200
   7950   7947   7963     1   109.5800467 425.931200
   7955   7961   7962     1   107.2600461 396.643200
   7959   7955   7961     1   110.2600474 425.931200
   7959   7955   7960     1   108.4600466 328.025600
   7960   7955   7961     1   110.2600474 425.931200
   7964   7965   7967     1   109.5600471 388.275200
   7964   7978   7982     1   109.5600471 388.275200
   7964   7978   7983     1   109.5600471 388.275200
   7965   7964   7966     1   109.5600471 388.275200
   7965   7968   7972     1   109.5600471 388.275200
   7965   7977   7980     1   107.2600461 396.643200
   7966   7964   7978     1   109.5600471 388.275200
   7966   7964   7986     1   109.7800468 425.094400
   7967   7965   7968     1   109.5600471 388.275200
   7967   7965   7977     1   110.2600474 425.931200
   7968   7969   7971     1   109.5600471 388.275200
   7968   7976   7979     1   107.2600461 396.643200
   7969   7968   7972     1   109.5600471 388.275200
   7969   7970   7973     1   110.2200475 386.601600
   7969   7975   7981     1   107.2600461 396.643200
   7970   7969   7971     1   109.5600471 388.275200
   7971   7969   7975     1   110.2600474 425.931200
   7972   7968   7976     1   110.2600474 425.931200
   7973   7970   7974     1   109.5800467 425.931200
   7973   7970   7986     1   109.5800467 425.931200
   7978   7984   7985     1   107.2600461 396.643200
   7982   7978   7984     1   110.2600474 425.931200
   7982   7978   7983     1   108.4600466 328.025600
   7983   7978   7984     1   110.2600474 425.931200
   7987   7988   7990     1   109.5600471 388.275200
   7987   8001   8005     1   109.5600471 388.275200
   7987   8001   8006     1   109.5600471 388.275200
   7988   7991   7995     1   109.5600471 388.275200
   7988   8000   8003     1   107.2600461 396.643200
   7988   7987   7989     1   109.5600471 388.275200
   7989   7987   8001     1   109.5600471 388.275200
   7989   7987   8009     1   109.7800468 425.094400
   7990   7988   7991     1   109.5600471 388.275200
   7990   7988   8000     1   110.2600474 425.931200
   7991   7992   7994     1   109.5600471 388.275200
   7991   7999   8002     1   107.2600461 396.643200
   7992   7993   7996     1   110.2200475 386.601600
   7992   7998   8004     1   107.2600461 396.643200
   7992   7991   7995     1   109.5600471 388.275200
   7993   7992   7994     1   109.5600471 388.275200
   7994   7992   7998     1   110.2600474 425.931200
   7995   7991   7999     1   110.2600474 425.931200
   7996   7993   7997     1   109.5800467 425.931200
   7996   7993   8009     1   109.5800467 425.931200
   8001   8007   8008     1   107.2600461 396.643200
   8005   8001   8007     1   110.2600474 425.931200
   8005   8001   8006     1   108.4600466 328.025600
   8006   8001   8007     1   110.2600474 425.931200
   8010   8011   8013     1   109.5600471 388.275200
   8010   8024   8028     1   109.5600471 388.275200
   8010   8024   8029     1   109.5600471 388.275200
   8011   8010   8012     1   109.5600471 388.275200
   8011   8014   8018     1   109.5600471 388.275200
   8011   8023   8026     1   107.2600461 396.643200
   8012   8010   8024     1   109.5600471 388.275200
   8012   8010   8032     1   109.7800468 425.094400
   8013   8011   8014     1   109.5600471 388.275200
   8013   8011   8023     1   110.2600474 425.931200
   8014   8015   8017     1   109.5600471 388.275200
   8014   8022   8025     1   107.2600461 396.643200
   8015   8014   8018     1   109.5600471 388.275200
   8015   8016   8019     1   110.2200475 386.601600
   8015   8021   8027     1   107.2600461 396.643200
   8016   8015   8017     1   109.5600471 388.275200
   8017   8015   8021     1   110.2600474 425.931200
   8018   8014   8022     1   110.2600474 425.931200
   8019   8016   8020     1   109.5800467 425.931200
   8019   8016   8032     1   109.5800467 425.931200
   8024   8030   8031     1   107.2600461 396.643200
   8028   8024   8030     1   110.2600474 425.931200
   8028   8024   8029     1   108.4600466 328.025600
   8029   8024   8030     1   110.2600474 425.931200
   8033   8034   8036     1   109.5600471 388.275200
   8033   8047   8051     1   109.5600471 388.275200
   8033   8047   8052     1   109.5600471 388.275200
   8034   8037   8041     1   109.5600471 388.275200
   8034   8046   8049     1   107.2600461 396.643200
   8034   8033   8035     1   109.5600471 388.275200
   8035   8033   8047     1   109.5600471 388.275200
   8035   8033   8055     1   109.7800468 425.094400
   8036   8034   8037     1   109.5600471 388.275200
   8036   8034   8046     1   110.2600474 425.931200
   8037   8038   8040     1   109.5600471 388.275200
   8037   8045   8048     1   107.2600461 396.643200
   8038   8039   8042     1   110.2200475 386.601600
   8038   8044   8050     1   107.2600461 396.643200
   8038   8037   8041     1   109.5600471 388.275200
   8039   8038   8040     1   109.5600471 388.275200
   8040   8038   8044     1   110.2600474 425.931200
   8041   8037   8045     1   110.2600474 425.931200
   8042   8039   8043     1   109.5800467 425.931200
   8042   8039   8055     1   109.5800467 425.931200
   8047   8053   8054     1   107.2600461 396.643200
   8051   8047   8053     1   110.2600474 425.931200
   8051   8047   8052     1   108.4600466 328.025600
   8052   8047   8053     1   110.2600474 425.931200
   8056   8057   8059     1   109.5600471 388.275200
   8056   8070   8074     1   109.5600471 388.275200
   8056   8070   8075     1   109.5600471 388.275200
   8057   8056   8058     1   109.5600471 388.275200
   8057   8060   8064     1   109.5600471 388.275200
   8057   8069   8072     1   107.2600461 396.643200
   8058   8056   8070     1   109.5600471 388.275200
   8058   8056   8078     1   109.7800468 425.094400
   8059   8057   8060     1   109.5600471 388.275200
   8059   8057   8069     1   110.2600474 425.931200
   8060   8061   8063     1   109.5600471 388.275200
   8060   8068   8071     1   107.2600461 396.643200
   8061   8060   8064     1   109.5600471 388.275200
   8061   8062   8065     1   110.2200475 386.601600
   8061   8067   8073     1   107.2600461 396.643200
   8062   8061   8063     1   109.5600471 388.275200
   8063   8061   8067     1   110.2600474 425.931200
   8064   8060   8068     1   110.2600474 425.931200
   8065   8062   8066     1   109.5800467 425.931200
   8065   8062   8078     1   109.5800467 425.931200
   8070   8076   8077     1   107.2600461 396.643200
   8074   8070   8076     1   110.2600474 425.931200
   8074   8070   8075     1   108.4600466 328.025600
   8075   8070   8076     1   110.2600474 425.931200
   8079   8080   8082     1   109.5600471 388.275200
   8079   8093   8097     1   109.5600471 388.275200
   8079   8093   8098     1   109.5600471 388.275200
   8080   8083   8087     1   109.5600471 388.275200
   8080   8092   8095     1   107.2600461 396.643200
   8080   8079   8081     1   109.5600471 388.275200
   8081   8079   8093     1   109.5600471 388.275200
   8081   8079   8101     1   109.7800468 425.094400
   8082   8080   8083     1   109.5600471 388.275200
   8082   8080   8092     1   110.2600474 425.931200
   8083   8084   8086     1   109.5600471 388.275200
   8083   8091   8094     1   107.2600461 396.643200
   8084   8085   8088     1   110.2200475 386.601600
   8084   8090   8096     1   107.2600461 396.643200
   8084   8083   8087     1   109.5600471 388.275200
   8085   8084   8086     1   109.5600471 388.275200
   8086   8084   8090     1   110.2600474 425.931200
   8087   8083   8091     1   110.2600474 425.931200
   8088   8085   8089     1   109.5800467 425.931200
   8088   8085   8101     1   109.5800467 425.931200
   8093   8099   8100     1   107.2600461 396.643200
   8097   8093   8099     1   110.2600474 425.931200
   8097   8093   8098     1   108.4600466 328.025600
   8098   8093   8099     1   110.2600474 425.931200
   8102   8103   8105     1   109.5600471 388.275200
   8102   8116   8120     1   109.5600471 388.275200
   8102   8116   8121     1   109.5600471 388.275200
   8103   8102   8104     1   109.5600471 388.275200
   8103   8106   8110     1   109.5600471 388.275200
   8103   8115   8118     1   107.2600461 396.643200
   8104   8102   8116     1   109.5600471 388.275200
   8104   8102   8124     1   109.7800468 425.094400
   8105   8103   8106     1   109.5600471 388.275200
   8105   8103   8115     1   110.2600474 425.931200
   8106   8107   8109     1   109.5600471 388.275200
   8106   8114   8117     1   107.2600461 396.643200
   8107   8106   8110     1   109.5600471 388.275200
   8107   8108   8111     1   110.2200475 386.601600
   8107   8113   8119     1   107.2600461 396.643200
   8108   8107   8109     1   109.5600471 388.275200
   8109   8107   8113     1   110.2600474 425.931200
   8110   8106   8114     1   110.2600474 425.931200
   8111   8108   8112     1   109.5800467 425.931200
   8111   8108   8124     1   109.5800467 425.931200
   8116   8122   8123     1   107.2600461 396.643200
   8120   8116   8122     1   110.2600474 425.931200
   8120   8116   8121     1   108.4600466 328.025600
   8121   8116   8122     1   110.2600474 425.931200
   8125   8126   8128     1   109.5600471 388.275200
   8125   8139   8143     1   109.5600471 388.275200
   8125   8139   8144     1   109.5600471 388.275200
   8126   8129   8133     1   109.5600471 388.275200
   8126   8138   8141     1   107.2600461 396.643200
   8126   8125   8127     1   109.5600471 388.275200
   8127   8125   8139     1   109.5600471 388.275200
   8127   8125   8147     1   109.7800468 425.094400
   8128   8126   8129     1   109.5600471 388.275200
   8128   8126   8138     1   110.2600474 425.931200
   8129   8130   8132     1   109.5600471 388.275200
   8129   8137   8140     1   107.2600461 396.643200
   8130   8131   8134     1   110.2200475 386.601600
   8130   8136   8142     1   107.2600461 396.643200
   8130   8129   8133     1   109.5600471 388.275200
   8131   8130   8132     1   109.5600471 388.275200
   8132   8130   8136     1   110.2600474 425.931200
   8133   8129   8137     1   110.2600474 425.931200
   8134   8131   8135     1   109.5800467 425.931200
   8134   8131   8147     1   109.5800467 425.931200
   8139   8145   8146     1   107.2600461 396.643200
   8143   8139   8145     1   110.2600474 425.931200
   8143   8139   8144     1   108.4600466 328.025600
   8144   8139   8145     1   110.2600474 425.931200
   8148   8149   8151     1   109.5600471 388.275200
   8148   8162   8166     1   109.5600471 388.275200
   8148   8162   8167     1   109.5600471 388.275200
   8149   8148   8150     1   109.5600471 388.275200
   8149   8152   8156     1   109.5600471 388.275200
   8149   8161   8164     1   107.2600461 396.643200
   8150   8148   8162     1   109.5600471 388.275200
   8150   8148   8170     1   109.7800468 425.094400
   8151   8149   8152     1   109.5600471 388.275200
   8151   8149   8161     1   110.2600474 425.931200
   8152   8153   8155     1   109.5600471 388.275200
   8152   8160   8163     1   107.2600461 396.643200
   8153   8152   8156     1   109.5600471 388.275200
   8153   8154   8157     1   110.2200475 386.601600
   8153   8159   8165     1   107.2600461 396.643200
   8154   8153   8155     1   109.5600471 388.275200
   8155   8153   8159     1   110.2600474 425.931200
   8156   8152   8160     1   110.2600474 425.931200
   8157   8154   8158     1   109.5800467 425.931200
   8157   8154   8170     1   109.5800467 425.931200
   8162   8168   8169     1   107.2600461 396.643200
   8166   8162   8168     1   110.2600474 425.931200
   8166   8162   8167     1   108.4600466 328.025600
   8167   8162   8168     1   110.2600474 425.931200
   8171   8172   8174     1   109.5600471 388.275200
   8171   8185   8189     1   109.5600471 388.275200
   8171   8185   8190     1   109.5600471 388.275200
   8172   8175   8179     1   109.5600471 388.275200
   8172   8184   8187     1   107.2600461 396.643200
   8172   8171   8173     1   109.5600471 388.275200
   8173   8171   8185     1   109.5600471 388.275200
   8173   8171   8193     1   109.7800468 425.094400
   8174   8172   8175     1   109.5600471 388.275200
   8174   8172   8184     1   110.2600474 425.931200
   8175   8176   8178     1   109.5600471 388.275200
   8175   8183   8186     1   107.2600461 396.643200
   8176   8177   8180     1   110.2200475 386.601600
   8176   8182   8188     1   107.2600461 396.643200
   8176   8175   8179     1   109.5600471 388.275200
   8177   8176   8178     1   109.5600471 388.275200
   8178   8176   8182     1   110.2600474 425.931200
   8179   8175   8183     1   110.2600474 425.931200
   8180   8177   8181     1   109.5800467 425.931200
   8180   8177   8193     1   109.5800467 425.931200
   8185   8191   8192     1   107.2600461 396.643200
   8189   8185   8191     1   110.2600474 425.931200
   8189   8185   8190     1   108.4600466 328.025600
   8190   8185   8191     1   110.2600474 425.931200
   8194   8195   8197     1   109.5600471 388.275200
   8194   8208   8212     1   109.5600471 388.275200
   8194   8208   8213     1   109.5600471 388.275200
   8195   8194   8196     1   109.5600471 388.275200
   8195   8198   8202     1   109.5600471 388.275200
   8195   8207   8210     1   107.2600461 396.643200
   8196   8194   8208     1   109.5600471 388.275200
   8196   8194   8216     1   109.7800468 425.094400
   8197   8195   8198     1   109.5600471 388.275200
   8197   8195   8207     1   110.2600474 425.931200
   8198   8199   8201     1   109.5600471 388.275200
   8198   8206   8209     1   107.2600461 396.643200
   8199   8198   8202     1   109.5600471 388.275200
   8199   8200   8203     1   110.2200475 386.601600
   8199   8205   8211     1   107.2600461 396.643200
   8200   8199   8201     1   109.5600471 388.275200
   8201   8199   8205     1   110.2600474 425.931200
   8202   8198   8206     1   110.2600474 425.931200
   8203   8200   8204     1   109.5800467 425.931200
   8203   8200   8216     1   109.5800467 425.931200
   8208   8214   8215     1   107.2600461 396.643200
   8212   8208   8214     1   110.2600474 425.931200
   8212   8208   8213     1   108.4600466 328.025600
   8213   8208   8214     1   110.2600474 425.931200
   8217   8218   8220     1   109.5600471 388.275200
   8217   8231   8235     1   109.5600471 388.275200
   8217   8231   8236     1   109.5600471 388.275200
   8218   8221   8225     1   109.5600471 388.275200
   8218   8230   8233     1   107.2600461 396.643200
   8218   8217   8219     1   109.5600471 388.275200
   8219   8217   8231     1   109.5600471 388.275200
   8219   8217   8239     1   109.7800468 425.094400
   8220   8218   8221     1   109.5600471 388.275200
   8220   8218   8230     1   110.2600474 425.931200
   8221   8222   8224     1   109.5600471 388.275200
   8221   8229   8232     1   107.2600461 396.643200
   8222   8223   8226     1   110.2200475 386.601600
   8222   8228   8234     1   107.2600461 396.643200
   8222   8221   8225     1   109.5600471 388.275200
   8223   8222   8224     1   109.5600471 388.275200
   8224   8222   8228     1   110.2600474 425.931200
   8225   8221   8229     1   110.2600474 425.931200
   8226   8223   8227     1   109.5800467 425.931200
   8226   8223   8239     1   109.5800467 425.931200
   8231   8237   8238     1   107.2600461 396.643200
   8235   8231   8237     1   110.2600474 425.931200
   8235   8231   8236     1   108.4600466 328.025600
   8236   8231   8237     1   110.2600474 425.931200
   8240   8241   8243     1   109.5600471 388.275200
   8240   8254   8258     1   109.5600471 388.275200
   8240   8254   8259     1   109.5600471 388.275200
   8241   8240   8242     1   109.5600471 388.275200
   8241   8244   8248     1   109.5600471 388.275200
   8241   8253   8256     1   107.2600461 396.643200
   8242   8240   8254     1   109.5600471 388.275200
   8242   8240   8262     1   109.7800468 425.094400
   8243   8241   8244     1   109.5600471 388.275200
   8243   8241   8253     1   110.2600474 425.931200
   8244   8245   8247     1   109.5600471 388.275200
   8244   8252   8255     1   107.2600461 396.643200
   8245   8244   8248     1   109.5600471 388.275200
   8245   8246   8249     1   110.2200475 386.601600
   8245   8251   8257     1   107.2600461 396.643200
   8246   8245   8247     1   109.5600471 388.275200
   8247   8245   8251     1   110.2600474 425.931200
   8248   8244   8252     1   110.2600474 425.931200
   8249   8246   8250     1   109.5800467 425.931200
   8249   8246   8262     1   109.5800467 425.931200
   8254   8260   8261     1   107.2600461 396.643200
   8258   8254   8260     1   110.2600474 425.931200
   8258   8254   8259     1   108.4600466 328.025600
   8259   8254   8260     1   110.2600474 425.931200
   8263   8264   8266     1   109.5600471 388.275200
   8263   8277   8281     1   109.5600471 388.275200
   8263   8277   8282     1   109.5600471 388.275200
   8264   8267   8271     1   109.5600471 388.275200
   8264   8276   8279     1   107.2600461 396.643200
   8264   8263   8265     1   109.5600471 388.275200
   8265   8263   8277     1   109.5600471 388.275200
   8265   8263   8285     1   109.7800468 425.094400
   8266   8264   8267     1   109.5600471 388.275200
   8266   8264   8276     1   110.2600474 425.931200
   8267   8268   8270     1   109.5600471 388.275200
   8267   8275   8278     1   107.2600461 396.643200
   8268   8269   8272     1   110.2200475 386.601600
   8268   8274   8280     1   107.2600461 396.643200
   8268   8267   8271     1   109.5600471 388.275200
   8269   8268   8270     1   109.5600471 388.275200
   8270   8268   8274     1   110.2600474 425.931200
   8271   8267   8275     1   110.2600474 425.931200
   8272   8269   8273     1   109.5800467 425.931200
   8272   8269   8285     1   109.5800467 425.931200
   8277   8283   8284     1   107.2600461 396.643200
   8281   8277   8283     1   110.2600474 425.931200
   8281   8277   8282     1   108.4600466 328.025600
   8282   8277   8283     1   110.2600474 425.931200
   8286   8287   8289     1   109.5600471 388.275200
   8286   8300   8304     1   109.5600471 388.275200
   8286   8300   8305     1   109.5600471 388.275200
   8287   8286   8288     1   109.5600471 388.275200
   8287   8290   8294     1   109.5600471 388.275200
   8287   8299   8302     1   107.2600461 396.643200
   8288   8286   8300     1   109.5600471 388.275200
   8288   8286   8308     1   109.7800468 425.094400
   8289   8287   8290     1   109.5600471 388.275200
   8289   8287   8299     1   110.2600474 425.931200
   8290   8291   8293     1   109.5600471 388.275200
   8290   8298   8301     1   107.2600461 396.643200
   8291   8290   8294     1   109.5600471 388.275200
   8291   8292   8295     1   110.2200475 386.601600
   8291   8297   8303     1   107.2600461 396.643200
   8292   8291   8293     1   109.5600471 388.275200
   8293   8291   8297     1   110.2600474 425.931200
   8294   8290   8298     1   110.2600474 425.931200
   8295   8292   8296     1   109.5800467 425.931200
   8295   8292   8308     1   109.5800467 425.931200
   8300   8306   8307     1   107.2600461 396.643200
   8304   8300   8306     1   110.2600474 425.931200
   8304   8300   8305     1   108.4600466 328.025600
   8305   8300   8306     1   110.2600474 425.931200
   8309   8310   8312     1   109.5600471 388.275200
   8309   8323   8327     1   109.5600471 388.275200
   8309   8323   8328     1   109.5600471 388.275200
   8310   8313   8317     1   109.5600471 388.275200
   8310   8322   8325     1   107.2600461 396.643200
   8310   8309   8311     1   109.5600471 388.275200
   8311   8309   8323     1   109.5600471 388.275200
   8311   8309   8331     1   109.7800468 425.094400
   8312   8310   8313     1   109.5600471 388.275200
   8312   8310   8322     1   110.2600474 425.931200
   8313   8314   8316     1   109.5600471 388.275200
   8313   8321   8324     1   107.2600461 396.643200
   8314   8315   8318     1   110.2200475 386.601600
   8314   8320   8326     1   107.2600461 396.643200
   8314   8313   8317     1   109.5600471 388.275200
   8315   8314   8316     1   109.5600471 388.275200
   8316   8314   8320     1   110.2600474 425.931200
   8317   8313   8321     1   110.2600474 425.931200
   8318   8315   8319     1   109.5800467 425.931200
   8318   8315   8331     1   109.5800467 425.931200
   8323   8329   8330     1   107.2600461 396.643200
   8327   8323   8329     1   110.2600474 425.931200
   8327   8323   8328     1   108.4600466 328.025600
   8328   8323   8329     1   110.2600474 425.931200
   8332   8333   8335     1   109.5600471 388.275200
   8332   8346   8350     1   109.5600471 388.275200
   8332   8346   8351     1   109.5600471 388.275200
   8333   8332   8334     1   109.5600471 388.275200
   8333   8336   8340     1   109.5600471 388.275200
   8333   8345   8348     1   107.2600461 396.643200
   8334   8332   8346     1   109.5600471 388.275200
   8334   8332   8354     1   109.7800468 425.094400
   8335   8333   8336     1   109.5600471 388.275200
   8335   8333   8345     1   110.2600474 425.931200
   8336   8337   8339     1   109.5600471 388.275200
   8336   8344   8347     1   107.2600461 396.643200
   8337   8336   8340     1   109.5600471 388.275200
   8337   8338   8341     1   110.2200475 386.601600
   8337   8343   8349     1   107.2600461 396.643200
   8338   8337   8339     1   109.5600471 388.275200
   8339   8337   8343     1   110.2600474 425.931200
   8340   8336   8344     1   110.2600474 425.931200
   8341   8338   8342     1   109.5800467 425.931200
   8341   8338   8354     1   109.5800467 425.931200
   8346   8352   8353     1   107.2600461 396.643200
   8350   8346   8352     1   110.2600474 425.931200
   8350   8346   8351     1   108.4600466 328.025600
   8351   8346   8352     1   110.2600474 425.931200
   8355   8356   8358     1   109.5600471 388.275200
   8355   8369   8373     1   109.5600471 388.275200
   8355   8369   8374     1   109.5600471 388.275200
   8356   8359   8363     1   109.5600471 388.275200
   8356   8368   8371     1   107.2600461 396.643200
   8356   8355   8357     1   109.5600471 388.275200
   8357   8355   8369     1   109.5600471 388.275200
   8357   8355   8377     1   109.7800468 425.094400
   8358   8356   8359     1   109.5600471 388.275200
   8358   8356   8368     1   110.2600474 425.931200
   8359   8360   8362     1   109.5600471 388.275200
   8359   8367   8370     1   107.2600461 396.643200
   8360   8361   8364     1   110.2200475 386.601600
   8360   8366   8372     1   107.2600461 396.643200
   8360   8359   8363     1   109.5600471 388.275200
   8361   8360   8362     1   109.5600471 388.275200
   8362   8360   8366     1   110.2600474 425.931200
   8363   8359   8367     1   110.2600474 425.931200
   8364   8361   8365     1   109.5800467 425.931200
   8364   8361   8377     1   109.5800467 425.931200
   8369   8375   8376     1   107.2600461 396.643200
   8373   8369   8375     1   110.2600474 425.931200
   8373   8369   8374     1   108.4600466 328.025600
   8374   8369   8375     1   110.2600474 425.931200
   8378   8379   8381     1   109.5600471 388.275200
   8378   8392   8396     1   109.5600471 388.275200
   8378   8392   8397     1   109.5600471 388.275200
   8379   8378   8380     1   109.5600471 388.275200
   8379   8382   8386     1   109.5600471 388.275200
   8379   8391   8394     1   107.2600461 396.643200
   8380   8378   8392     1   109.5600471 388.275200
   8380   8378   8400     1   109.7800468 425.094400
   8381   8379   8382     1   109.5600471 388.275200
   8381   8379   8391     1   110.2600474 425.931200
   8382   8383   8385     1   109.5600471 388.275200
   8382   8390   8393     1   107.2600461 396.643200
   8383   8382   8386     1   109.5600471 388.275200
   8383   8384   8387     1   110.2200475 386.601600
   8383   8389   8395     1   107.2600461 396.643200
   8384   8383   8385     1   109.5600471 388.275200
   8385   8383   8389     1   110.2600474 425.931200
   8386   8382   8390     1   110.2600474 425.931200
   8387   8384   8388     1   109.5800467 425.931200
   8387   8384   8400     1   109.5800467 425.931200
   8392   8398   8399     1   107.2600461 396.643200
   8396   8392   8398     1   110.2600474 425.931200
   8396   8392   8397     1   108.4600466 328.025600
   8397   8392   8398     1   110.2600474 425.931200
   8401   8402   8404     1   109.5600471 388.275200
   8401   8415   8419     1   109.5600471 388.275200
   8401   8415   8420     1   109.5600471 388.275200
   8402   8405   8409     1   109.5600471 388.275200
   8402   8414   8417     1   107.2600461 396.643200
   8402   8401   8403     1   109.5600471 388.275200
   8403   8401   8415     1   109.5600471 388.275200
   8403   8401   8423     1   109.7800468 425.094400
   8404   8402   8405     1   109.5600471 388.275200
   8404   8402   8414     1   110.2600474 425.931200
   8405   8406   8408     1   109.5600471 388.275200
   8405   8413   8416     1   107.2600461 396.643200
   8406   8407   8410     1   110.2200475 386.601600
   8406   8412   8418     1   107.2600461 396.643200
   8406   8405   8409     1   109.5600471 388.275200
   8407   8406   8408     1   109.5600471 388.275200
   8408   8406   8412     1   110.2600474 425.931200
   8409   8405   8413     1   110.2600474 425.931200
   8410   8407   8411     1   109.5800467 425.931200
   8410   8407   8423     1   109.5800467 425.931200
   8415   8421   8422     1   107.2600461 396.643200
   8419   8415   8421     1   110.2600474 425.931200
   8419   8415   8420     1   108.4600466 328.025600
   8420   8415   8421     1   110.2600474 425.931200
   8424   8425   8427     1   109.5600471 388.275200
   8424   8438   8442     1   109.5600471 388.275200
   8424   8438   8443     1   109.5600471 388.275200
   8425   8424   8426     1   109.5600471 388.275200
   8425   8428   8432     1   109.5600471 388.275200
   8425   8437   8440     1   107.2600461 396.643200
   8426   8424   8438     1   109.5600471 388.275200
   8426   8424   8446     1   109.7800468 425.094400
   8427   8425   8428     1   109.5600471 388.275200
   8427   8425   8437     1   110.2600474 425.931200
   8428   8429   8431     1   109.5600471 388.275200
   8428   8436   8439     1   107.2600461 396.643200
   8429   8428   8432     1   109.5600471 388.275200
   8429   8430   8433     1   110.2200475 386.601600
   8429   8435   8441     1   107.2600461 396.643200
   8430   8429   8431     1   109.5600471 388.275200
   8431   8429   8435     1   110.2600474 425.931200
   8432   8428   8436     1   110.2600474 425.931200
   8433   8430   8434     1   109.5800467 425.931200
   8433   8430   8446     1   109.5800467 425.931200
   8438   8444   8445     1   107.2600461 396.643200
   8442   8438   8444     1   110.2600474 425.931200
   8442   8438   8443     1   108.4600466 328.025600
   8443   8438   8444     1   110.2600474 425.931200
   8447   8448   8450     1   109.5600471 388.275200
   8447   8461   8465     1   109.5600471 388.275200
   8447   8461   8466     1   109.5600471 388.275200
   8448   8451   8455     1   109.5600471 388.275200
   8448   8460   8463     1   107.2600461 396.643200
   8448   8447   8449     1   109.5600471 388.275200
   8449   8447   8461     1   109.5600471 388.275200
   8449   8447   8469     1   109.7800468 425.094400
   8450   8448   8451     1   109.5600471 388.275200
   8450   8448   8460     1   110.2600474 425.931200
   8451   8452   8454     1   109.5600471 388.275200
   8451   8459   8462     1   107.2600461 396.643200
   8452   8453   8456     1   110.2200475 386.601600
   8452   8458   8464     1   107.2600461 396.643200
   8452   8451   8455     1   109.5600471 388.275200
   8453   8452   8454     1   109.5600471 388.275200
   8454   8452   8458     1   110.2600474 425.931200
   8455   8451   8459     1   110.2600474 425.931200
   8456   8453   8457     1   109.5800467 425.931200
   8456   8453   8469     1   109.5800467 425.931200
   8461   8467   8468     1   107.2600461 396.643200
   8465   8461   8467     1   110.2600474 425.931200
   8465   8461   8466     1   108.4600466 328.025600
   8466   8461   8467     1   110.2600474 425.931200
   8470   8471   8473     1   109.5600471 388.275200
   8470   8484   8488     1   109.5600471 388.275200
   8470   8484   8489     1   109.5600471 388.275200
   8471   8470   8472     1   109.5600471 388.275200
   8471   8474   8478     1   109.5600471 388.275200
   8471   8483   8486     1   107.2600461 396.643200
   8472   8470   8484     1   109.5600471 388.275200
   8472   8470   8492     1   109.7800468 425.094400
   8473   8471   8474     1   109.5600471 388.275200
   8473   8471   8483     1   110.2600474 425.931200
   8474   8475   8477     1   109.5600471 388.275200
   8474   8482   8485     1   107.2600461 396.643200
   8475   8474   8478     1   109.5600471 388.275200
   8475   8476   8479     1   110.2200475 386.601600
   8475   8481   8487     1   107.2600461 396.643200
   8476   8475   8477     1   109.5600471 388.275200
   8477   8475   8481     1   110.2600474 425.931200
   8478   8474   8482     1   110.2600474 425.931200
   8479   8476   8480     1   109.5800467 425.931200
   8479   8476   8492     1   109.5800467 425.931200
   8484   8490   8491     1   107.2600461 396.643200
   8488   8484   8490     1   110.2600474 425.931200
   8488   8484   8489     1   108.4600466 328.025600
   8489   8484   8490     1   110.2600474 425.931200
   8493   8494   8496     1   109.5600471 388.275200
   8493   8507   8511     1   109.5600471 388.275200
   8493   8507   8512     1   109.5600471 388.275200
   8494   8497   8501     1   109.5600471 388.275200
   8494   8506   8509     1   107.2600461 396.643200
   8494   8493   8495     1   109.5600471 388.275200
   8495   8493   8507     1   109.5600471 388.275200
   8495   8493   8515     1   109.7800468 425.094400
   8496   8494   8497     1   109.5600471 388.275200
   8496   8494   8506     1   110.2600474 425.931200
   8497   8498   8500     1   109.5600471 388.275200
   8497   8505   8508     1   107.2600461 396.643200
   8498   8499   8502     1   110.2200475 386.601600
   8498   8504   8510     1   107.2600461 396.643200
   8498   8497   8501     1   109.5600471 388.275200
   8499   8498   8500     1   109.5600471 388.275200
   8500   8498   8504     1   110.2600474 425.931200
   8501   8497   8505     1   110.2600474 425.931200
   8502   8499   8503     1   109.5800467 425.931200
   8502   8499   8515     1   109.5800467 425.931200
   8507   8513   8514     1   107.2600461 396.643200
   8511   8507   8513     1   110.2600474 425.931200
   8511   8507   8512     1   108.4600466 328.025600
   8512   8507   8513     1   110.2600474 425.931200
   8516   8517   8519     1   109.5600471 388.275200
   8516   8530   8534     1   109.5600471 388.275200
   8516   8530   8535     1   109.5600471 388.275200
   8517   8516   8518     1   109.5600471 388.275200
   8517   8520   8524     1   109.5600471 388.275200
   8517   8529   8532     1   107.2600461 396.643200
   8518   8516   8530     1   109.5600471 388.275200
   8518   8516   8538     1   109.7800468 425.094400
   8519   8517   8520     1   109.5600471 388.275200
   8519   8517   8529     1   110.2600474 425.931200
   8520   8521   8523     1   109.5600471 388.275200
   8520   8528   8531     1   107.2600461 396.643200
   8521   8520   8524     1   109.5600471 388.275200
   8521   8522   8525     1   110.2200475 386.601600
   8521   8527   8533     1   107.2600461 396.643200
   8522   8521   8523     1   109.5600471 388.275200
   8523   8521   8527     1   110.2600474 425.931200
   8524   8520   8528     1   110.2600474 425.931200
   8525   8522   8526     1   109.5800467 425.931200
   8525   8522   8538     1   109.5800467 425.931200
   8530   8536   8537     1   107.2600461 396.643200
   8534   8530   8536     1   110.2600474 425.931200
   8534   8530   8535     1   108.4600466 328.025600
   8535   8530   8536     1   110.2600474 425.931200
   8539   8540   8542     1   109.5600471 388.275200
   8539   8553   8557     1   109.5600471 388.275200
   8539   8553   8558     1   109.5600471 388.275200
   8540   8543   8547     1   109.5600471 388.275200
   8540   8552   8555     1   107.2600461 396.643200
   8540   8539   8541     1   109.5600471 388.275200
   8541   8539   8553     1   109.5600471 388.275200
   8541   8539   8561     1   109.7800468 425.094400
   8542   8540   8543     1   109.5600471 388.275200
   8542   8540   8552     1   110.2600474 425.931200
   8543   8544   8546     1   109.5600471 388.275200
   8543   8551   8554     1   107.2600461 396.643200
   8544   8545   8548     1   110.2200475 386.601600
   8544   8550   8556     1   107.2600461 396.643200
   8544   8543   8547     1   109.5600471 388.275200
   8545   8544   8546     1   109.5600471 388.275200
   8546   8544   8550     1   110.2600474 425.931200
   8547   8543   8551     1   110.2600474 425.931200
   8548   8545   8549     1   109.5800467 425.931200
   8548   8545   8561     1   109.5800467 425.931200
   8553   8559   8560     1   107.2600461 396.643200
   8557   8553   8559     1   110.2600474 425.931200
   8557   8553   8558     1   108.4600466 328.025600
   8558   8553   8559     1   110.2600474 425.931200
   8562   8563   8565     1   109.5600471 388.275200
   8562   8576   8580     1   109.5600471 388.275200
   8562   8576   8581     1   109.5600471 388.275200
   8563   8562   8564     1   109.5600471 388.275200
   8563   8566   8570     1   109.5600471 388.275200
   8563   8575   8578     1   107.2600461 396.643200
   8564   8562   8576     1   109.5600471 388.275200
   8564   8562   8584     1   109.7800468 425.094400
   8565   8563   8566     1   109.5600471 388.275200
   8565   8563   8575     1   110.2600474 425.931200
   8566   8567   8569     1   109.5600471 388.275200
   8566   8574   8577     1   107.2600461 396.643200
   8567   8566   8570     1   109.5600471 388.275200
   8567   8568   8571     1   110.2200475 386.601600
   8567   8573   8579     1   107.2600461 396.643200
   8568   8567   8569     1   109.5600471 388.275200
   8569   8567   8573     1   110.2600474 425.931200
   8570   8566   8574     1   110.2600474 425.931200
   8571   8568   8572     1   109.5800467 425.931200
   8571   8568   8584     1   109.5800467 425.931200
   8576   8582   8583     1   107.2600461 396.643200
   8580   8576   8582     1   110.2600474 425.931200
   8580   8576   8581     1   108.4600466 328.025600
   8581   8576   8582     1   110.2600474 425.931200
   8585   8586   8588     1   109.5600471 388.275200
   8585   8599   8603     1   109.5600471 388.275200
   8585   8599   8604     1   109.5600471 388.275200
   8586   8589   8593     1   109.5600471 388.275200
   8586   8598   8601     1   107.2600461 396.643200
   8586   8585   8587     1   109.5600471 388.275200
   8587   8585   8599     1   109.5600471 388.275200
   8587   8585   8607     1   109.7800468 425.094400
   8588   8586   8589     1   109.5600471 388.275200
   8588   8586   8598     1   110.2600474 425.931200
   8589   8590   8592     1   109.5600471 388.275200
   8589   8597   8600     1   107.2600461 396.643200
   8590   8591   8594     1   110.2200475 386.601600
   8590   8596   8602     1   107.2600461 396.643200
   8590   8589   8593     1   109.5600471 388.275200
   8591   8590   8592     1   109.5600471 388.275200
   8592   8590   8596     1   110.2600474 425.931200
   8593   8589   8597     1   110.2600474 425.931200
   8594   8591   8595     1   109.5800467 425.931200
   8594   8591   8607     1   109.5800467 425.931200
   8599   8605   8606     1   107.2600461 396.643200
   8603   8599   8605     1   110.2600474 425.931200
   8603   8599   8604     1   108.4600466 328.025600
   8604   8599   8605     1   110.2600474 425.931200
   8608   8609   8611     1   109.5600471 388.275200
   8608   8622   8626     1   109.5600471 388.275200
   8608   8622   8627     1   109.5600471 388.275200
   8609   8608   8610     1   109.5600471 388.275200
   8609   8612   8616     1   109.5600471 388.275200
   8609   8621   8624     1   107.2600461 396.643200
   8610   8608   8622     1   109.5600471 388.275200
   8610   8608   8630     1   109.7800468 425.094400
   8611   8609   8612     1   109.5600471 388.275200
   8611   8609   8621     1   110.2600474 425.931200
   8612   8613   8615     1   109.5600471 388.275200
   8612   8620   8623     1   107.2600461 396.643200
   8613   8612   8616     1   109.5600471 388.275200
   8613   8614   8617     1   110.2200475 386.601600
   8613   8619   8625     1   107.2600461 396.643200
   8614   8613   8615     1   109.5600471 388.275200
   8615   8613   8619     1   110.2600474 425.931200
   8616   8612   8620     1   110.2600474 425.931200
   8617   8614   8618     1   109.5800467 425.931200
   8617   8614   8630     1   109.5800467 425.931200
   8622   8628   8629     1   107.2600461 396.643200
   8626   8622   8628     1   110.2600474 425.931200
   8626   8622   8627     1   108.4600466 328.025600
   8627   8622   8628     1   110.2600474 425.931200
   8631   8632   8634     1   109.5600471 388.275200
   8631   8645   8649     1   109.5600471 388.275200
   8631   8645   8650     1   109.5600471 388.275200
   8632   8635   8639     1   109.5600471 388.275200
   8632   8644   8647     1   107.2600461 396.643200
   8632   8631   8633     1   109.5600471 388.275200
   8633   8631   8645     1   109.5600471 388.275200
   8633   8631   8653     1   109.7800468 425.094400
   8634   8632   8635     1   109.5600471 388.275200
   8634   8632   8644     1   110.2600474 425.931200
   8635   8636   8638     1   109.5600471 388.275200
   8635   8643   8646     1   107.2600461 396.643200
   8636   8637   8640     1   110.2200475 386.601600
   8636   8642   8648     1   107.2600461 396.643200
   8636   8635   8639     1   109.5600471 388.275200
   8637   8636   8638     1   109.5600471 388.275200
   8638   8636   8642     1   110.2600474 425.931200
   8639   8635   8643     1   110.2600474 425.931200
   8640   8637   8641     1   109.5800467 425.931200
   8640   8637   8653     1   109.5800467 425.931200
   8645   8651   8652     1   107.2600461 396.643200
   8649   8645   8651     1   110.2600474 425.931200
   8649   8645   8650     1   108.4600466 328.025600
   8650   8645   8651     1   110.2600474 425.931200
   8654   8655   8657     1   109.5600471 388.275200
   8654   8668   8672     1   109.5600471 388.275200
   8654   8668   8673     1   109.5600471 388.275200
   8655   8654   8656     1   109.5600471 388.275200
   8655   8658   8662     1   109.5600471 388.275200
   8655   8667   8670     1   107.2600461 396.643200
   8656   8654   8668     1   109.5600471 388.275200
   8656   8654   8676     1   109.7800468 425.094400
   8657   8655   8658     1   109.5600471 388.275200
   8657   8655   8667     1   110.2600474 425.931200
   8658   8659   8661     1   109.5600471 388.275200
   8658   8666   8669     1   107.2600461 396.643200
   8659   8658   8662     1   109.5600471 388.275200
   8659   8660   8663     1   110.2200475 386.601600
   8659   8665   8671     1   107.2600461 396.643200
   8660   8659   8661     1   109.5600471 388.275200
   8661   8659   8665     1   110.2600474 425.931200
   8662   8658   8666     1   110.2600474 425.931200
   8663   8660   8664     1   109.5800467 425.931200
   8663   8660   8676     1   109.5800467 425.931200
   8668   8674   8675     1   107.2600461 396.643200
   8672   8668   8674     1   110.2600474 425.931200
   8672   8668   8673     1   108.4600466 328.025600
   8673   8668   8674     1   110.2600474 425.931200
   8677   8678   8680     1   109.5600471 388.275200
   8677   8691   8695     1   109.5600471 388.275200
   8677   8691   8696     1   109.5600471 388.275200
   8678   8681   8685     1   109.5600471 388.275200
   8678   8690   8693     1   107.2600461 396.643200
   8678   8677   8679     1   109.5600471 388.275200
   8679   8677   8691     1   109.5600471 388.275200
   8679   8677   8699     1   109.7800468 425.094400
   8680   8678   8681     1   109.5600471 388.275200
   8680   8678   8690     1   110.2600474 425.931200
   8681   8682   8684     1   109.5600471 388.275200
   8681   8689   8692     1   107.2600461 396.643200
   8682   8683   8686     1   110.2200475 386.601600
   8682   8688   8694     1   107.2600461 396.643200
   8682   8681   8685     1   109.5600471 388.275200
   8683   8682   8684     1   109.5600471 388.275200
   8684   8682   8688     1   110.2600474 425.931200
   8685   8681   8689     1   110.2600474 425.931200
   8686   8683   8687     1   109.5800467 425.931200
   8686   8683   8699     1   109.5800467 425.931200
   8691   8697   8698     1   107.2600461 396.643200
   8695   8691   8697     1   110.2600474 425.931200
   8695   8691   8696     1   108.4600466 328.025600
   8696   8691   8697     1   110.2600474 425.931200
   8700   8701   8703     1   109.5600471 388.275200
   8700   8714   8718     1   109.5600471 388.275200
   8700   8714   8719     1   109.5600471 388.275200
   8701   8700   8702     1   109.5600471 388.275200
   8701   8704   8708     1   109.5600471 388.275200
   8701   8713   8716     1   107.2600461 396.643200
   8702   8700   8714     1   109.5600471 388.275200
   8702   8700   8722     1   109.7800468 425.094400
   8703   8701   8704     1   109.5600471 388.275200
   8703   8701   8713     1   110.2600474 425.931200
   8704   8705   8707     1   109.5600471 388.275200
   8704   8712   8715     1   107.2600461 396.643200
   8705   8704   8708     1   109.5600471 388.275200
   8705   8706   8709     1   110.2200475 386.601600
   8705   8711   8717     1   107.2600461 396.643200
   8706   8705   8707     1   109.5600471 388.275200
   8707   8705   8711     1   110.2600474 425.931200
   8708   8704   8712     1   110.2600474 425.931200
   8709   8706   8710     1   109.5800467 425.931200
   8709   8706   8722     1   109.5800467 425.931200
   8714   8720   8721     1   107.2600461 396.643200
   8718   8714   8720     1   110.2600474 425.931200
   8718   8714   8719     1   108.4600466 328.025600
   8719   8714   8720     1   110.2600474 425.931200
   8723   8724   8726     1   109.5600471 388.275200
   8723   8737   8741     1   109.5600471 388.275200
   8723   8737   8742     1   109.5600471 388.275200
   8724   8727   8731     1   109.5600471 388.275200
   8724   8736   8739     1   107.2600461 396.643200
   8724   8723   8725     1   109.5600471 388.275200
   8725   8723   8737     1   109.5600471 388.275200
   8725   8723   8745     1   109.7800468 425.094400
   8726   8724   8727     1   109.5600471 388.275200
   8726   8724   8736     1   110.2600474 425.931200
   8727   8728   8730     1   109.5600471 388.275200
   8727   8735   8738     1   107.2600461 396.643200
   8728   8729   8732     1   110.2200475 386.601600
   8728   8734   8740     1   107.2600461 396.643200
   8728   8727   8731     1   109.5600471 388.275200
   8729   8728   8730     1   109.5600471 388.275200
   8730   8728   8734     1   110.2600474 425.931200
   8731   8727   8735     1   110.2600474 425.931200
   8732   8729   8733     1   109.5800467 425.931200
   8732   8729   8745     1   109.5800467 425.931200
   8737   8743   8744     1   107.2600461 396.643200
   8741   8737   8743     1   110.2600474 425.931200
   8741   8737   8742     1   108.4600466 328.025600
   8742   8737   8743     1   110.2600474 425.931200
   8746   8747   8749     1   109.5600471 388.275200
   8746   8760   8764     1   109.5600471 388.275200
   8746   8760   8765     1   109.5600471 388.275200
   8747   8746   8748     1   109.5600471 388.275200
   8747   8750   8754     1   109.5600471 388.275200
   8747   8759   8762     1   107.2600461 396.643200
   8748   8746   8760     1   109.5600471 388.275200
   8748   8746   8768     1   109.7800468 425.094400
   8749   8747   8750     1   109.5600471 388.275200
   8749   8747   8759     1   110.2600474 425.931200
   8750   8751   8753     1   109.5600471 388.275200
   8750   8758   8761     1   107.2600461 396.643200
   8751   8750   8754     1   109.5600471 388.275200
   8751   8752   8755     1   110.2200475 386.601600
   8751   8757   8763     1   107.2600461 396.643200
   8752   8751   8753     1   109.5600471 388.275200
   8753   8751   8757     1   110.2600474 425.931200
   8754   8750   8758     1   110.2600474 425.931200
   8755   8752   8756     1   109.5800467 425.931200
   8755   8752   8768     1   109.5800467 425.931200
   8760   8766   8767     1   107.2600461 396.643200
   8764   8760   8766     1   110.2600474 425.931200
   8764   8760   8765     1   108.4600466 328.025600
   8765   8760   8766     1   110.2600474 425.931200
   8769   8770   8772     1   109.5600471 388.275200
   8769   8783   8787     1   109.5600471 388.275200
   8769   8783   8788     1   109.5600471 388.275200
   8770   8773   8777     1   109.5600471 388.275200
   8770   8782   8785     1   107.2600461 396.643200
   8770   8769   8771     1   109.5600471 388.275200
   8771   8769   8783     1   109.5600471 388.275200
   8771   8769   8791     1   109.7800468 425.094400
   8772   8770   8773     1   109.5600471 388.275200
   8772   8770   8782     1   110.2600474 425.931200
   8773   8774   8776     1   109.5600471 388.275200
   8773   8781   8784     1   107.2600461 396.643200
   8774   8775   8778     1   110.2200475 386.601600
   8774   8780   8786     1   107.2600461 396.643200
   8774   8773   8777     1   109.5600471 388.275200
   8775   8774   8776     1   109.5600471 388.275200
   8776   8774   8780     1   110.2600474 425.931200
   8777   8773   8781     1   110.2600474 425.931200
   8778   8775   8779     1   109.5800467 425.931200
   8778   8775   8791     1   109.5800467 425.931200
   8783   8789   8790     1   107.2600461 396.643200
   8787   8783   8789     1   110.2600474 425.931200
   8787   8783   8788     1   108.4600466 328.025600
   8788   8783   8789     1   110.2600474 425.931200
   8792   8793   8795     1   109.5600471 388.275200
   8792   8806   8810     1   109.5600471 388.275200
   8792   8806   8811     1   109.5600471 388.275200
   8793   8792   8794     1   109.5600471 388.275200
   8793   8796   8800     1   109.5600471 388.275200
   8793   8805   8808     1   107.2600461 396.643200
   8794   8792   8806     1   109.5600471 388.275200
   8794   8792   8814     1   109.7800468 425.094400
   8795   8793   8796     1   109.5600471 388.275200
   8795   8793   8805     1   110.2600474 425.931200
   8796   8797   8799     1   109.5600471 388.275200
   8796   8804   8807     1   107.2600461 396.643200
   8797   8796   8800     1   109.5600471 388.275200
   8797   8798   8801     1   110.2200475 386.601600
   8797   8803   8809     1   107.2600461 396.643200
   8798   8797   8799     1   109.5600471 388.275200
   8799   8797   8803     1   110.2600474 425.931200
   8800   8796   8804     1   110.2600474 425.931200
   8801   8798   8802     1   109.5800467 425.931200
   8801   8798   8814     1   109.5800467 425.931200
   8806   8812   8813     1   107.2600461 396.643200
   8810   8806   8812     1   110.2600474 425.931200
   8810   8806   8811     1   108.4600466 328.025600
   8811   8806   8812     1   110.2600474 425.931200
   8815   8816   8818     1   109.5600471 388.275200
   8815   8829   8833     1   109.5600471 388.275200
   8815   8829   8834     1   109.5600471 388.275200
   8816   8819   8823     1   109.5600471 388.275200
   8816   8828   8831     1   107.2600461 396.643200
   8816   8815   8817     1   109.5600471 388.275200
   8817   8815   8829     1   109.5600471 388.275200
   8817   8815   8837     1   109.7800468 425.094400
   8818   8816   8819     1   109.5600471 388.275200
   8818   8816   8828     1   110.2600474 425.931200
   8819   8820   8822     1   109.5600471 388.275200
   8819   8827   8830     1   107.2600461 396.643200
   8820   8821   8824     1   110.2200475 386.601600
   8820   8826   8832     1   107.2600461 396.643200
   8820   8819   8823     1   109.5600471 388.275200
   8821   8820   8822     1   109.5600471 388.275200
   8822   8820   8826     1   110.2600474 425.931200
   8823   8819   8827     1   110.2600474 425.931200
   8824   8821   8825     1   109.5800467 425.931200
   8824   8821   8837     1   109.5800467 425.931200
   8829   8835   8836     1   107.2600461 396.643200
   8833   8829   8835     1   110.2600474 425.931200
   8833   8829   8834     1   108.4600466 328.025600
   8834   8829   8835     1   110.2600474 425.931200
   8838   8839   8841     1   109.5600471 388.275200
   8838   8852   8856     1   109.5600471 388.275200
   8838   8852   8857     1   109.5600471 388.275200
   8839   8838   8840     1   109.5600471 388.275200
   8839   8842   8846     1   109.5600471 388.275200
   8839   8851   8854     1   107.2600461 396.643200
   8840   8838   8852     1   109.5600471 388.275200
   8840   8838   8860     1   109.7800468 425.094400
   8841   8839   8842     1   109.5600471 388.275200
   8841   8839   8851     1   110.2600474 425.931200
   8842   8843   8845     1   109.5600471 388.275200
   8842   8850   8853     1   107.2600461 396.643200
   8843   8842   8846     1   109.5600471 388.275200
   8843   8844   8847     1   110.2200475 386.601600
   8843   8849   8855     1   107.2600461 396.643200
   8844   8843   8845     1   109.5600471 388.275200
   8845   8843   8849     1   110.2600474 425.931200
   8846   8842   8850     1   110.2600474 425.931200
   8847   8844   8848     1   109.5800467 425.931200
   8847   8844   8860     1   109.5800467 425.931200
   8852   8858   8859     1   107.2600461 396.643200
   8856   8852   8858     1   110.2600474 425.931200
   8856   8852   8857     1   108.4600466 328.025600
   8857   8852   8858     1   110.2600474 425.931200
   8861   8862   8864     1   109.5600471 388.275200
   8861   8875   8879     1   109.5600471 388.275200
   8861   8875   8880     1   109.5600471 388.275200
   8862   8865   8869     1   109.5600471 388.275200
   8862   8874   8877     1   107.2600461 396.643200
   8862   8861   8863     1   109.5600471 388.275200
   8863   8861   8875     1   109.5600471 388.275200
   8863   8861   8883     1   109.7800468 425.094400
   8864   8862   8865     1   109.5600471 388.275200
   8864   8862   8874     1   110.2600474 425.931200
   8865   8866   8868     1   109.5600471 388.275200
   8865   8873   8876     1   107.2600461 396.643200
   8866   8867   8870     1   110.2200475 386.601600
   8866   8872   8878     1   107.2600461 396.643200
   8866   8865   8869     1   109.5600471 388.275200
   8867   8866   8868     1   109.5600471 388.275200
   8868   8866   8872     1   110.2600474 425.931200
   8869   8865   8873     1   110.2600474 425.931200
   8870   8867   8871     1   109.5800467 425.931200
   8870   8867   8883     1   109.5800467 425.931200
   8875   8881   8882     1   107.2600461 396.643200
   8879   8875   8881     1   110.2600474 425.931200
   8879   8875   8880     1   108.4600466 328.025600
   8880   8875   8881     1   110.2600474 425.931200
   8884   8885   8887     1   109.5600471 388.275200
   8884   8898   8902     1   109.5600471 388.275200
   8884   8898   8903     1   109.5600471 388.275200
   8885   8884   8886     1   109.5600471 388.275200
   8885   8888   8892     1   109.5600471 388.275200
   8885   8897   8900     1   107.2600461 396.643200
   8886   8884   8898     1   109.5600471 388.275200
   8886   8884   8906     1   109.7800468 425.094400
   8887   8885   8888     1   109.5600471 388.275200
   8887   8885   8897     1   110.2600474 425.931200
   8888   8889   8891     1   109.5600471 388.275200
   8888   8896   8899     1   107.2600461 396.643200
   8889   8888   8892     1   109.5600471 388.275200
   8889   8890   8893     1   110.2200475 386.601600
   8889   8895   8901     1   107.2600461 396.643200
   8890   8889   8891     1   109.5600471 388.275200
   8891   8889   8895     1   110.2600474 425.931200
   8892   8888   8896     1   110.2600474 425.931200
   8893   8890   8894     1   109.5800467 425.931200
   8893   8890   8906     1   109.5800467 425.931200
   8898   8904   8905     1   107.2600461 396.643200
   8902   8898   8904     1   110.2600474 425.931200
   8902   8898   8903     1   108.4600466 328.025600
   8903   8898   8904     1   110.2600474 425.931200
   8907   8908   8910     1   109.5600471 388.275200
   8907   8921   8925     1   109.5600471 388.275200
   8907   8921   8926     1   109.5600471 388.275200
   8908   8911   8915     1   109.5600471 388.275200
   8908   8920   8923     1   107.2600461 396.643200
   8908   8907   8909     1   109.5600471 388.275200
   8909   8907   8921     1   109.5600471 388.275200
   8909   8907   8929     1   109.7800468 425.094400
   8910   8908   8911     1   109.5600471 388.275200
   8910   8908   8920     1   110.2600474 425.931200
   8911   8912   8914     1   109.5600471 388.275200
   8911   8919   8922     1   107.2600461 396.643200
   8912   8913   8916     1   110.2200475 386.601600
   8912   8918   8924     1   107.2600461 396.643200
   8912   8911   8915     1   109.5600471 388.275200
   8913   8912   8914     1   109.5600471 388.275200
   8914   8912   8918     1   110.2600474 425.931200
   8915   8911   8919     1   110.2600474 425.931200
   8916   8913   8917     1   109.5800467 425.931200
   8916   8913   8929     1   109.5800467 425.931200
   8921   8927   8928     1   107.2600461 396.643200
   8925   8921   8927     1   110.2600474 425.931200
   8925   8921   8926     1   108.4600466 328.025600
   8926   8921   8927     1   110.2600474 425.931200
   8930   8931   8933     1   109.5600471 388.275200
   8930   8944   8948     1   109.5600471 388.275200
   8930   8944   8949     1   109.5600471 388.275200
   8931   8930   8932     1   109.5600471 388.275200
   8931   8934   8938     1   109.5600471 388.275200
   8931   8943   8946     1   107.2600461 396.643200
   8932   8930   8944     1   109.5600471 388.275200
   8932   8930   8952     1   109.7800468 425.094400
   8933   8931   8934     1   109.5600471 388.275200
   8933   8931   8943     1   110.2600474 425.931200
   8934   8935   8937     1   109.5600471 388.275200
   8934   8942   8945     1   107.2600461 396.643200
   8935   8934   8938     1   109.5600471 388.275200
   8935   8936   8939     1   110.2200475 386.601600
   8935   8941   8947     1   107.2600461 396.643200
   8936   8935   8937     1   109.5600471 388.275200
   8937   8935   8941     1   110.2600474 425.931200
   8938   8934   8942     1   110.2600474 425.931200
   8939   8936   8940     1   109.5800467 425.931200
   8939   8936   8952     1   109.5800467 425.931200
   8944   8950   8951     1   107.2600461 396.643200
   8948   8944   8950     1   110.2600474 425.931200
   8948   8944   8949     1   108.4600466 328.025600
   8949   8944   8950     1   110.2600474 425.931200
   8953   8954   8956     1   109.5600471 388.275200
   8953   8967   8971     1   109.5600471 388.275200
   8953   8967   8972     1   109.5600471 388.275200
   8954   8957   8961     1   109.5600471 388.275200
   8954   8966   8969     1   107.2600461 396.643200
   8954   8953   8955     1   109.5600471 388.275200
   8955   8953   8967     1   109.5600471 388.275200
   8955   8953   8975     1   109.7800468 425.094400
   8956   8954   8957     1   109.5600471 388.275200
   8956   8954   8966     1   110.2600474 425.931200
   8957   8958   8960     1   109.5600471 388.275200
   8957   8965   8968     1   107.2600461 396.643200
   8958   8959   8962     1   110.2200475 386.601600
   8958   8964   8970     1   107.2600461 396.643200
   8958   8957   8961     1   109.5600471 388.275200
   8959   8958   8960     1   109.5600471 388.275200
   8960   8958   8964     1   110.2600474 425.931200
   8961   8957   8965     1   110.2600474 425.931200
   8962   8959   8963     1   109.5800467 425.931200
   8962   8959   8975     1   109.5800467 425.931200
   8967   8973   8974     1   107.2600461 396.643200
   8971   8967   8973     1   110.2600474 425.931200
   8971   8967   8972     1   108.4600466 328.025600
   8972   8967   8973     1   110.2600474 425.931200
   8976   8977   8979     1   109.5600471 388.275200
   8976   8990   8994     1   109.5600471 388.275200
   8976   8990   8995     1   109.5600471 388.275200
   8977   8976   8978     1   109.5600471 388.275200
   8977   8980   8984     1   109.5600471 388.275200
   8977   8989   8992     1   107.2600461 396.643200
   8978   8976   8990     1   109.5600471 388.275200
   8978   8976   8998     1   109.7800468 425.094400
   8979   8977   8980     1   109.5600471 388.275200
   8979   8977   8989     1   110.2600474 425.931200
   8980   8981   8983     1   109.5600471 388.275200
   8980   8988   8991     1   107.2600461 396.643200
   8981   8980   8984     1   109.5600471 388.275200
   8981   8982   8985     1   110.2200475 386.601600
   8981   8987   8993     1   107.2600461 396.643200
   8982   8981   8983     1   109.5600471 388.275200
   8983   8981   8987     1   110.2600474 425.931200
   8984   8980   8988     1   110.2600474 425.931200
   8985   8982   8986     1   109.5800467 425.931200
   8985   8982   8998     1   109.5800467 425.931200
   8990   8996   8997     1   107.2600461 396.643200
   8994   8990   8996     1   110.2600474 425.931200
   8994   8990   8995     1   108.4600466 328.025600
   8995   8990   8996     1   110.2600474 425.931200
   8999   9000   9002     1   109.5600471 388.275200
   8999   9013   9017     1   109.5600471 388.275200
   8999   9013   9018     1   109.5600471 388.275200
   9000   9003   9007     1   109.5600471 388.275200
   9000   9012   9015     1   107.2600461 396.643200
   9000   8999   9001     1   109.5600471 388.275200
   9001   8999   9013     1   109.5600471 388.275200
   9001   8999   9021     1   109.7800468 425.094400
   9002   9000   9003     1   109.5600471 388.275200
   9002   9000   9012     1   110.2600474 425.931200
   9003   9004   9006     1   109.5600471 388.275200
   9003   9011   9014     1   107.2600461 396.643200
   9004   9005   9008     1   110.2200475 386.601600
   9004   9010   9016     1   107.2600461 396.643200
   9004   9003   9007     1   109.5600471 388.275200
   9005   9004   9006     1   109.5600471 388.275200
   9006   9004   9010     1   110.2600474 425.931200
   9007   9003   9011     1   110.2600474 425.931200
   9008   9005   9009     1   109.5800467 425.931200
   9008   9005   9021     1   109.5800467 425.931200
   9013   9019   9020     1   107.2600461 396.643200
   9017   9013   9019     1   110.2600474 425.931200
   9017   9013   9018     1   108.4600466 328.025600
   9018   9013   9019     1   110.2600474 425.931200
   9022   9023   9025     1   109.5600471 388.275200
   9022   9036   9040     1   109.5600471 388.275200
   9022   9036   9041     1   109.5600471 388.275200
   9023   9022   9024     1   109.5600471 388.275200
   9023   9026   9030     1   109.5600471 388.275200
   9023   9035   9038     1   107.2600461 396.643200
   9024   9022   9036     1   109.5600471 388.275200
   9024   9022   9044     1   109.7800468 425.094400
   9025   9023   9026     1   109.5600471 388.275200
   9025   9023   9035     1   110.2600474 425.931200
   9026   9027   9029     1   109.5600471 388.275200
   9026   9034   9037     1   107.2600461 396.643200
   9027   9026   9030     1   109.5600471 388.275200
   9027   9028   9031     1   110.2200475 386.601600
   9027   9033   9039     1   107.2600461 396.643200
   9028   9027   9029     1   109.5600471 388.275200
   9029   9027   9033     1   110.2600474 425.931200
   9030   9026   9034     1   110.2600474 425.931200
   9031   9028   9032     1   109.5800467 425.931200
   9031   9028   9044     1   109.5800467 425.931200
   9036   9042   9043     1   107.2600461 396.643200
   9040   9036   9042     1   110.2600474 425.931200
   9040   9036   9041     1   108.4600466 328.025600
   9041   9036   9042     1   110.2600474 425.931200
   9045   9046   9048     1   109.5600471 388.275200
   9045   9059   9063     1   109.5600471 388.275200
   9045   9059   9064     1   109.5600471 388.275200
   9046   9049   9053     1   109.5600471 388.275200
   9046   9058   9061     1   107.2600461 396.643200
   9046   9045   9047     1   109.5600471 388.275200
   9047   9045   9059     1   109.5600471 388.275200
   9047   9045   9067     1   109.7800468 425.094400
   9048   9046   9049     1   109.5600471 388.275200
   9048   9046   9058     1   110.2600474 425.931200
   9049   9050   9052     1   109.5600471 388.275200
   9049   9057   9060     1   107.2600461 396.643200
   9050   9051   9054     1   110.2200475 386.601600
   9050   9056   9062     1   107.2600461 396.643200
   9050   9049   9053     1   109.5600471 388.275200
   9051   9050   9052     1   109.5600471 388.275200
   9052   9050   9056     1   110.2600474 425.931200
   9053   9049   9057     1   110.2600474 425.931200
   9054   9051   9055     1   109.5800467 425.931200
   9054   9051   9067     1   109.5800467 425.931200
   9059   9065   9066     1   107.2600461 396.643200
   9063   9059   9065     1   110.2600474 425.931200
   9063   9059   9064     1   108.4600466 328.025600
   9064   9059   9065     1   110.2600474 425.931200
   9068   9069   9071     1   109.5600471 388.275200
   9068   9082   9086     1   109.5600471 388.275200
   9068   9082   9087     1   109.5600471 388.275200
   9069   9068   9070     1   109.5600471 388.275200
   9069   9072   9076     1   109.5600471 388.275200
   9069   9081   9084     1   107.2600461 396.643200
   9070   9068   9082     1   109.5600471 388.275200
   9070   9068   9090     1   109.7800468 425.094400
   9071   9069   9072     1   109.5600471 388.275200
   9071   9069   9081     1   110.2600474 425.931200
   9072   9073   9075     1   109.5600471 388.275200
   9072   9080   9083     1   107.2600461 396.643200
   9073   9072   9076     1   109.5600471 388.275200
   9073   9074   9077     1   110.2200475 386.601600
   9073   9079   9085     1   107.2600461 396.643200
   9074   9073   9075     1   109.5600471 388.275200
   9075   9073   9079     1   110.2600474 425.931200
   9076   9072   9080     1   110.2600474 425.931200
   9077   9074   9078     1   109.5800467 425.931200
   9077   9074   9090     1   109.5800467 425.931200
   9082   9088   9089     1   107.2600461 396.643200
   9086   9082   9088     1   110.2600474 425.931200
   9086   9082   9087     1   108.4600466 328.025600
   9087   9082   9088     1   110.2600474 425.931200
   9091   9092   9094     1   109.5600471 388.275200
   9091   9105   9109     1   109.5600471 388.275200
   9091   9105   9110     1   109.5600471 388.275200
   9092   9095   9099     1   109.5600471 388.275200
   9092   9104   9107     1   107.2600461 396.643200
   9092   9091   9093     1   109.5600471 388.275200
   9093   9091   9105     1   109.5600471 388.275200
   9093   9091   9113     1   109.7800468 425.094400
   9094   9092   9095     1   109.5600471 388.275200
   9094   9092   9104     1   110.2600474 425.931200
   9095   9096   9098     1   109.5600471 388.275200
   9095   9103   9106     1   107.2600461 396.643200
   9096   9097   9100     1   110.2200475 386.601600
   9096   9102   9108     1   107.2600461 396.643200
   9096   9095   9099     1   109.5600471 388.275200
   9097   9096   9098     1   109.5600471 388.275200
   9098   9096   9102     1   110.2600474 425.931200
   9099   9095   9103     1   110.2600474 425.931200
   9100   9097   9101     1   109.5800467 425.931200
   9100   9097   9113     1   109.5800467 425.931200
   9105   9111   9112     1   107.2600461 396.643200
   9109   9105   9111     1   110.2600474 425.931200
   9109   9105   9110     1   108.4600466 328.025600
   9110   9105   9111     1   110.2600474 425.931200
   9114   9115   9117     1   109.5600471 388.275200
   9114   9128   9132     1   109.5600471 388.275200
   9114   9128   9133     1   109.5600471 388.275200
   9115   9114   9116     1   109.5600471 388.275200
   9115   9118   9122     1   109.5600471 388.275200
   9115   9127   9130     1   107.2600461 396.643200
   9116   9114   9128     1   109.5600471 388.275200
   9116   9114   9136     1   109.7800468 425.094400
   9117   9115   9118     1   109.5600471 388.275200
   9117   9115   9127     1   110.2600474 425.931200
   9118   9119   9121     1   109.5600471 388.275200
   9118   9126   9129     1   107.2600461 396.643200
   9119   9118   9122     1   109.5600471 388.275200
   9119   9120   9123     1   110.2200475 386.601600
   9119   9125   9131     1   107.2600461 396.643200
   9120   9119   9121     1   109.5600471 388.275200
   9121   9119   9125     1   110.2600474 425.931200
   9122   9118   9126     1   110.2600474 425.931200
   9123   9120   9124     1   109.5800467 425.931200
   9123   9120   9136     1   109.5800467 425.931200
   9128   9134   9135     1   107.2600461 396.643200
   9132   9128   9134     1   110.2600474 425.931200
   9132   9128   9133     1   108.4600466 328.025600
   9133   9128   9134     1   110.2600474 425.931200
   9137   9138   9140     1   109.5600471 388.275200
   9137   9151   9155     1   109.5600471 388.275200
   9137   9151   9156     1   109.5600471 388.275200
   9138   9141   9145     1   109.5600471 388.275200
   9138   9150   9153     1   107.2600461 396.643200
   9138   9137   9139     1   109.5600471 388.275200
   9139   9137   9151     1   109.5600471 388.275200
   9139   9137   9159     1   109.7800468 425.094400
   9140   9138   9141     1   109.5600471 388.275200
   9140   9138   9150     1   110.2600474 425.931200
   9141   9142   9144     1   109.5600471 388.275200
   9141   9149   9152     1   107.2600461 396.643200
   9142   9143   9146     1   110.2200475 386.601600
   9142   9148   9154     1   107.2600461 396.643200
   9142   9141   9145     1   109.5600471 388.275200
   9143   9142   9144     1   109.5600471 388.275200
   9144   9142   9148     1   110.2600474 425.931200
   9145   9141   9149     1   110.2600474 425.931200
   9146   9143   9147     1   109.5800467 425.931200
   9146   9143   9159     1   109.5800467 425.931200
   9151   9157   9158     1   107.2600461 396.643200
   9155   9151   9157     1   110.2600474 425.931200
   9155   9151   9156     1   108.4600466 328.025600
   9156   9151   9157     1   110.2600474 425.931200
   9160   9161   9163     1   109.5600471 388.275200
   9160   9174   9178     1   109.5600471 388.275200
   9160   9174   9179     1   109.5600471 388.275200
   9161   9160   9162     1   109.5600471 388.275200
   9161   9164   9168     1   109.5600471 388.275200
   9161   9173   9176     1   107.2600461 396.643200
   9162   9160   9174     1   109.5600471 388.275200
   9162   9160   9182     1   109.7800468 425.094400
   9163   9161   9164     1   109.5600471 388.275200
   9163   9161   9173     1   110.2600474 425.931200
   9164   9165   9167     1   109.5600471 388.275200
   9164   9172   9175     1   107.2600461 396.643200
   9165   9164   9168     1   109.5600471 388.275200
   9165   9166   9169     1   110.2200475 386.601600
   9165   9171   9177     1   107.2600461 396.643200
   9166   9165   9167     1   109.5600471 388.275200
   9167   9165   9171     1   110.2600474 425.931200
   9168   9164   9172     1   110.2600474 425.931200
   9169   9166   9170     1   109.5800467 425.931200
   9169   9166   9182     1   109.5800467 425.931200
   9174   9180   9181     1   107.2600461 396.643200
   9178   9174   9180     1   110.2600474 425.931200
   9178   9174   9179     1   108.4600466 328.025600
   9179   9174   9180     1   110.2600474 425.931200
   9183   9184   9186     1   109.5600471 388.275200
   9183   9197   9201     1   109.5600471 388.275200
   9183   9197   9202     1   109.5600471 388.275200
   9184   9187   9191     1   109.5600471 388.275200
   9184   9196   9199     1   107.2600461 396.643200
   9184   9183   9185     1   109.5600471 388.275200
   9185   9183   9197     1   109.5600471 388.275200
   9185   9183   9205     1   109.7800468 425.094400
   9186   9184   9187     1   109.5600471 388.275200
   9186   9184   9196     1   110.2600474 425.931200
   9187   9188   9190     1   109.5600471 388.275200
   9187   9195   9198     1   107.2600461 396.643200
   9188   9189   9192     1   110.2200475 386.601600
   9188   9194   9200     1   107.2600461 396.643200
   9188   9187   9191     1   109.5600471 388.275200
   9189   9188   9190     1   109.5600471 388.275200
   9190   9188   9194     1   110.2600474 425.931200
   9191   9187   9195     1   110.2600474 425.931200
   9192   9189   9193     1   109.5800467 425.931200
   9192   9189   9205     1   109.5800467 425.931200
   9197   9203   9204     1   107.2600461 396.643200
   9201   9197   9203     1   110.2600474 425.931200
   9201   9197   9202     1   108.4600466 328.025600
   9202   9197   9203     1   110.2600474 425.931200
   9206   9207   9209     1   109.5600471 388.275200
   9206   9220   9224     1   109.5600471 388.275200
   9206   9220   9225     1   109.5600471 388.275200
   9207   9206   9208     1   109.5600471 388.275200
   9207   9210   9214     1   109.5600471 388.275200
   9207   9219   9222     1   107.2600461 396.643200
   9208   9206   9220     1   109.5600471 388.275200
   9208   9206   9228     1   109.7800468 425.094400
   9209   9207   9210     1   109.5600471 388.275200
   9209   9207   9219     1   110.2600474 425.931200
   9210   9211   9213     1   109.5600471 388.275200
   9210   9218   9221     1   107.2600461 396.643200
   9211   9210   9214     1   109.5600471 388.275200
   9211   9212   9215     1   110.2200475 386.601600
   9211   9217   9223     1   107.2600461 396.643200
   9212   9211   9213     1   109.5600471 388.275200
   9213   9211   9217     1   110.2600474 425.931200
   9214   9210   9218     1   110.2600474 425.931200
   9215   9212   9216     1   109.5800467 425.931200
   9215   9212   9228     1   109.5800467 425.931200
   9220   9226   9227     1   107.2600461 396.643200
   9224   9220   9226     1   110.2600474 425.931200
   9224   9220   9225     1   108.4600466 328.025600
   9225   9220   9226     1   110.2600474 425.931200
   9229   9230   9232     1   109.5600471 388.275200
   9229   9243   9247     1   109.5600471 388.275200
   9229   9243   9248     1   109.5600471 388.275200
   9230   9233   9237     1   109.5600471 388.275200
   9230   9242   9245     1   107.2600461 396.643200
   9230   9229   9231     1   109.5600471 388.275200
   9231   9229   9243     1   109.5600471 388.275200
   9231   9229   9251     1   109.7800468 425.094400
   9232   9230   9233     1   109.5600471 388.275200
   9232   9230   9242     1   110.2600474 425.931200
   9233   9234   9236     1   109.5600471 388.275200
   9233   9241   9244     1   107.2600461 396.643200
   9234   9235   9238     1   110.2200475 386.601600
   9234   9240   9246     1   107.2600461 396.643200
   9234   9233   9237     1   109.5600471 388.275200
   9235   9234   9236     1   109.5600471 388.275200
   9236   9234   9240     1   110.2600474 425.931200
   9237   9233   9241     1   110.2600474 425.931200
   9238   9235   9239     1   109.5800467 425.931200
   9238   9235   9251     1   109.5800467 425.931200
   9243   9249   9250     1   107.2600461 396.643200
   9247   9243   9249     1   110.2600474 425.931200
   9247   9243   9248     1   108.4600466 328.025600
   9248   9243   9249     1   110.2600474 425.931200
   9252   9253   9255     1   109.5600471 388.275200
   9252   9266   9270     1   109.5600471 388.275200
   9252   9266   9271     1   109.5600471 388.275200
   9253   9252   9254     1   109.5600471 388.275200
   9253   9256   9260     1   109.5600471 388.275200
   9253   9265   9268     1   107.2600461 396.643200
   9254   9252   9266     1   109.5600471 388.275200
   9254   9252   9274     1   109.7800468 425.094400
   9255   9253   9256     1   109.5600471 388.275200
   9255   9253   9265     1   110.2600474 425.931200
   9256   9257   9259     1   109.5600471 388.275200
   9256   9264   9267     1   107.2600461 396.643200
   9257   9256   9260     1   109.5600471 388.275200
   9257   9258   9261     1   110.2200475 386.601600
   9257   9263   9269     1   107.2600461 396.643200
   9258   9257   9259     1   109.5600471 388.275200
   9259   9257   9263     1   110.2600474 425.931200
   9260   9256   9264     1   110.2600474 425.931200
   9261   9258   9262     1   109.5800467 425.931200
   9261   9258   9274     1   109.5800467 425.931200
   9266   9272   9273     1   107.2600461 396.643200
   9270   9266   9272     1   110.2600474 425.931200
   9270   9266   9271     1   108.4600466 328.025600
   9271   9266   9272     1   110.2600474 425.931200
   9275   9276   9278     1   109.5600471 388.275200
   9275   9289   9293     1   109.5600471 388.275200
   9275   9289   9294     1   109.5600471 388.275200
   9276   9279   9283     1   109.5600471 388.275200
   9276   9288   9291     1   107.2600461 396.643200
   9276   9275   9277     1   109.5600471 388.275200
   9277   9275   9289     1   109.5600471 388.275200
   9277   9275   9297     1   109.7800468 425.094400
   9278   9276   9279     1   109.5600471 388.275200
   9278   9276   9288     1   110.2600474 425.931200
   9279   9280   9282     1   109.5600471 388.275200
   9279   9287   9290     1   107.2600461 396.643200
   9280   9281   9284     1   110.2200475 386.601600
   9280   9286   9292     1   107.2600461 396.643200
   9280   9279   9283     1   109.5600471 388.275200
   9281   9280   9282     1   109.5600471 388.275200
   9282   9280   9286     1   110.2600474 425.931200
   9283   9279   9287     1   110.2600474 425.931200
   9284   9281   9285     1   109.5800467 425.931200
   9284   9281   9297     1   109.5800467 425.931200
   9289   9295   9296     1   107.2600461 396.643200
   9293   9289   9295     1   110.2600474 425.931200
   9293   9289   9294     1   108.4600466 328.025600
   9294   9289   9295     1   110.2600474 425.931200
   9298   9299   9301     1   109.5600471 388.275200
   9298   9312   9316     1   109.5600471 388.275200
   9298   9312   9317     1   109.5600471 388.275200
   9299   9298   9300     1   109.5600471 388.275200
   9299   9302   9306     1   109.5600471 388.275200
   9299   9311   9314     1   107.2600461 396.643200
   9300   9298   9312     1   109.5600471 388.275200
   9300   9298   9320     1   109.7800468 425.094400
   9301   9299   9302     1   109.5600471 388.275200
   9301   9299   9311     1   110.2600474 425.931200
   9302   9303   9305     1   109.5600471 388.275200
   9302   9310   9313     1   107.2600461 396.643200
   9303   9302   9306     1   109.5600471 388.275200
   9303   9304   9307     1   110.2200475 386.601600
   9303   9309   9315     1   107.2600461 396.643200
   9304   9303   9305     1   109.5600471 388.275200
   9305   9303   9309     1   110.2600474 425.931200
   9306   9302   9310     1   110.2600474 425.931200
   9307   9304   9308     1   109.5800467 425.931200
   9307   9304   9320     1   109.5800467 425.931200
   9312   9318   9319     1   107.2600461 396.643200
   9316   9312   9318     1   110.2600474 425.931200
   9316   9312   9317     1   108.4600466 328.025600
   9317   9312   9318     1   110.2600474 425.931200
   9321   9322   9324     1   109.5600471 388.275200
   9321   9335   9339     1   109.5600471 388.275200
   9321   9335   9340     1   109.5600471 388.275200
   9322   9325   9329     1   109.5600471 388.275200
   9322   9334   9337     1   107.2600461 396.643200
   9322   9321   9323     1   109.5600471 388.275200
   9323   9321   9335     1   109.5600471 388.275200
   9323   9321   9343     1   109.7800468 425.094400
   9324   9322   9325     1   109.5600471 388.275200
   9324   9322   9334     1   110.2600474 425.931200
   9325   9326   9328     1   109.5600471 388.275200
   9325   9333   9336     1   107.2600461 396.643200
   9326   9327   9330     1   110.2200475 386.601600
   9326   9332   9338     1   107.2600461 396.643200
   9326   9325   9329     1   109.5600471 388.275200
   9327   9326   9328     1   109.5600471 388.275200
   9328   9326   9332     1   110.2600474 425.931200
   9329   9325   9333     1   110.2600474 425.931200
   9330   9327   9331     1   109.5800467 425.931200
   9330   9327   9343     1   109.5800467 425.931200
   9335   9341   9342     1   107.2600461 396.643200
   9339   9335   9341     1   110.2600474 425.931200
   9339   9335   9340     1   108.4600466 328.025600
   9340   9335   9341     1   110.2600474 425.931200
   9344   9345   9347     1   109.5600471 388.275200
   9344   9358   9362     1   109.5600471 388.275200
   9344   9358   9363     1   109.5600471 388.275200
   9345   9344   9346     1   109.5600471 388.275200
   9345   9348   9352     1   109.5600471 388.275200
   9345   9357   9360     1   107.2600461 396.643200
   9346   9344   9358     1   109.5600471 388.275200
   9346   9344   9366     1   109.7800468 425.094400
   9347   9345   9348     1   109.5600471 388.275200
   9347   9345   9357     1   110.2600474 425.931200
   9348   9349   9351     1   109.5600471 388.275200
   9348   9356   9359     1   107.2600461 396.643200
   9349   9348   9352     1   109.5600471 388.275200
   9349   9350   9353     1   110.2200475 386.601600
   9349   9355   9361     1   107.2600461 396.643200
   9350   9349   9351     1   109.5600471 388.275200
   9351   9349   9355     1   110.2600474 425.931200
   9352   9348   9356     1   110.2600474 425.931200
   9353   9350   9354     1   109.5800467 425.931200
   9353   9350   9366     1   109.5800467 425.931200
   9358   9364   9365     1   107.2600461 396.643200
   9362   9358   9364     1   110.2600474 425.931200
   9362   9358   9363     1   108.4600466 328.025600
   9363   9358   9364     1   110.2600474 425.931200
   9367   9368   9370     1   109.5600471 388.275200
   9367   9381   9385     1   109.5600471 388.275200
   9367   9381   9386     1   109.5600471 388.275200
   9368   9371   9375     1   109.5600471 388.275200
   9368   9380   9383     1   107.2600461 396.643200
   9368   9367   9369     1   109.5600471 388.275200
   9369   9367   9381     1   109.5600471 388.275200
   9369   9367   9389     1   109.7800468 425.094400
   9370   9368   9371     1   109.5600471 388.275200
   9370   9368   9380     1   110.2600474 425.931200
   9371   9372   9374     1   109.5600471 388.275200
   9371   9379   9382     1   107.2600461 396.643200
   9372   9373   9376     1   110.2200475 386.601600
   9372   9378   9384     1   107.2600461 396.643200
   9372   9371   9375     1   109.5600471 388.275200
   9373   9372   9374     1   109.5600471 388.275200
   9374   9372   9378     1   110.2600474 425.931200
   9375   9371   9379     1   110.2600474 425.931200
   9376   9373   9377     1   109.5800467 425.931200
   9376   9373   9389     1   109.5800467 425.931200
   9381   9387   9388     1   107.2600461 396.643200
   9385   9381   9387     1   110.2600474 425.931200
   9385   9381   9386     1   108.4600466 328.025600
   9386   9381   9387     1   110.2600474 425.931200
   9390   9391   9393     1   109.5600471 388.275200
   9390   9404   9408     1   109.5600471 388.275200
   9390   9404   9409     1   109.5600471 388.275200
   9391   9390   9392     1   109.5600471 388.275200
   9391   9394   9398     1   109.5600471 388.275200
   9391   9403   9406     1   107.2600461 396.643200
   9392   9390   9404     1   109.5600471 388.275200
   9392   9390   9412     1   109.7800468 425.094400
   9393   9391   9394     1   109.5600471 388.275200
   9393   9391   9403     1   110.2600474 425.931200
   9394   9395   9397     1   109.5600471 388.275200
   9394   9402   9405     1   107.2600461 396.643200
   9395   9394   9398     1   109.5600471 388.275200
   9395   9396   9399     1   110.2200475 386.601600
   9395   9401   9407     1   107.2600461 396.643200
   9396   9395   9397     1   109.5600471 388.275200
   9397   9395   9401     1   110.2600474 425.931200
   9398   9394   9402     1   110.2600474 425.931200
   9399   9396   9400     1   109.5800467 425.931200
   9399   9396   9412     1   109.5800467 425.931200
   9404   9410   9411     1   107.2600461 396.643200
   9408   9404   9410     1   110.2600474 425.931200
   9408   9404   9409     1   108.4600466 328.025600
   9409   9404   9410     1   110.2600474 425.931200
   9413   9414   9416     1   109.5600471 388.275200
   9413   9427   9431     1   109.5600471 388.275200
   9413   9427   9432     1   109.5600471 388.275200
   9414   9417   9421     1   109.5600471 388.275200
   9414   9426   9429     1   107.2600461 396.643200
   9414   9413   9415     1   109.5600471 388.275200
   9415   9413   9427     1   109.5600471 388.275200
   9415   9413   9435     1   109.7800468 425.094400
   9416   9414   9417     1   109.5600471 388.275200
   9416   9414   9426     1   110.2600474 425.931200
   9417   9418   9420     1   109.5600471 388.275200
   9417   9425   9428     1   107.2600461 396.643200
   9418   9419   9422     1   110.2200475 386.601600
   9418   9424   9430     1   107.2600461 396.643200
   9418   9417   9421     1   109.5600471 388.275200
   9419   9418   9420     1   109.5600471 388.275200
   9420   9418   9424     1   110.2600474 425.931200
   9421   9417   9425     1   110.2600474 425.931200
   9422   9419   9423     1   109.5800467 425.931200
   9422   9419   9435     1   109.5800467 425.931200
   9427   9433   9434     1   107.2600461 396.643200
   9431   9427   9433     1   110.2600474 425.931200
   9431   9427   9432     1   108.4600466 328.025600
   9432   9427   9433     1   110.2600474 425.931200
   9436   9437   9439     1   109.5600471 388.275200
   9436   9450   9454     1   109.5600471 388.275200
   9436   9450   9455     1   109.5600471 388.275200
   9437   9436   9438     1   109.5600471 388.275200
   9437   9440   9444     1   109.5600471 388.275200
   9437   9449   9452     1   107.2600461 396.643200
   9438   9436   9450     1   109.5600471 388.275200
   9438   9436   9458     1   109.7800468 425.094400
   9439   9437   9440     1   109.5600471 388.275200
   9439   9437   9449     1   110.2600474 425.931200
   9440   9441   9443     1   109.5600471 388.275200
   9440   9448   9451     1   107.2600461 396.643200
   9441   9440   9444     1   109.5600471 388.275200
   9441   9442   9445     1   110.2200475 386.601600
   9441   9447   9453     1   107.2600461 396.643200
   9442   9441   9443     1   109.5600471 388.275200
   9443   9441   9447     1   110.2600474 425.931200
   9444   9440   9448     1   110.2600474 425.931200
   9445   9442   9446     1   109.5800467 425.931200
   9445   9442   9458     1   109.5800467 425.931200
   9450   9456   9457     1   107.2600461 396.643200
   9454   9450   9456     1   110.2600474 425.931200
   9454   9450   9455     1   108.4600466 328.025600
   9455   9450   9456     1   110.2600474 425.931200
   9459   9460   9462     1   109.5600471 388.275200
   9459   9473   9477     1   109.5600471 388.275200
   9459   9473   9478     1   109.5600471 388.275200
   9460   9463   9467     1   109.5600471 388.275200
   9460   9472   9475     1   107.2600461 396.643200
   9460   9459   9461     1   109.5600471 388.275200
   9461   9459   9473     1   109.5600471 388.275200
   9461   9459   9481     1   109.7800468 425.094400
   9462   9460   9463     1   109.5600471 388.275200
   9462   9460   9472     1   110.2600474 425.931200
   9463   9464   9466     1   109.5600471 388.275200
   9463   9471   9474     1   107.2600461 396.643200
   9464   9465   9468     1   110.2200475 386.601600
   9464   9470   9476     1   107.2600461 396.643200
   9464   9463   9467     1   109.5600471 388.275200
   9465   9464   9466     1   109.5600471 388.275200
   9466   9464   9470     1   110.2600474 425.931200
   9467   9463   9471     1   110.2600474 425.931200
   9468   9465   9469     1   109.5800467 425.931200
   9468   9465   9481     1   109.5800467 425.931200
   9473   9479   9480     1   107.2600461 396.643200
   9477   9473   9479     1   110.2600474 425.931200
   9477   9473   9478     1   108.4600466 328.025600
   9478   9473   9479     1   110.2600474 425.931200
   9482   9483   9485     1   109.5600471 388.275200
   9482   9496   9500     1   109.5600471 388.275200
   9482   9496   9501     1   109.5600471 388.275200
   9483   9482   9484     1   109.5600471 388.275200
   9483   9486   9490     1   109.5600471 388.275200
   9483   9495   9498     1   107.2600461 396.643200
   9484   9482   9496     1   109.5600471 388.275200
   9484   9482   9504     1   109.7800468 425.094400
   9485   9483   9486     1   109.5600471 388.275200
   9485   9483   9495     1   110.2600474 425.931200
   9486   9487   9489     1   109.5600471 388.275200
   9486   9494   9497     1   107.2600461 396.643200
   9487   9486   9490     1   109.5600471 388.275200
   9487   9488   9491     1   110.2200475 386.601600
   9487   9493   9499     1   107.2600461 396.643200
   9488   9487   9489     1   109.5600471 388.275200
   9489   9487   9493     1   110.2600474 425.931200
   9490   9486   9494     1   110.2600474 425.931200
   9491   9488   9492     1   109.5800467 425.931200
   9491   9488   9504     1   109.5800467 425.931200
   9496   9502   9503     1   107.2600461 396.643200
   9500   9496   9502     1   110.2600474 425.931200
   9500   9496   9501     1   108.4600466 328.025600
   9501   9496   9502     1   110.2600474 425.931200
   9505   9506   9508     1   109.5600471 388.275200
   9505   9519   9523     1   109.5600471 388.275200
   9505   9519   9524     1   109.5600471 388.275200
   9506   9509   9513     1   109.5600471 388.275200
   9506   9518   9521     1   107.2600461 396.643200
   9506   9505   9507     1   109.5600471 388.275200
   9507   9505   9519     1   109.5600471 388.275200
   9507   9505   9527     1   109.7800468 425.094400
   9508   9506   9509     1   109.5600471 388.275200
   9508   9506   9518     1   110.2600474 425.931200
   9509   9510   9512     1   109.5600471 388.275200
   9509   9517   9520     1   107.2600461 396.643200
   9510   9511   9514     1   110.2200475 386.601600
   9510   9516   9522     1   107.2600461 396.643200
   9510   9509   9513     1   109.5600471 388.275200
   9511   9510   9512     1   109.5600471 388.275200
   9512   9510   9516     1   110.2600474 425.931200
   9513   9509   9517     1   110.2600474 425.931200
   9514   9511   9515     1   109.5800467 425.931200
   9514   9511   9527     1   109.5800467 425.931200
   9519   9525   9526     1   107.2600461 396.643200
   9523   9519   9525     1   110.2600474 425.931200
   9523   9519   9524     1   108.4600466 328.025600
   9524   9519   9525     1   110.2600474 425.931200
   9528   9529   9531     1   109.5600471 388.275200
   9528   9542   9546     1   109.5600471 388.275200
   9528   9542   9547     1   109.5600471 388.275200
   9529   9528   9530     1   109.5600471 388.275200
   9529   9532   9536     1   109.5600471 388.275200
   9529   9541   9544     1   107.2600461 396.643200
   9530   9528   9542     1   109.5600471 388.275200
   9530   9528   9550     1   109.7800468 425.094400
   9531   9529   9532     1   109.5600471 388.275200
   9531   9529   9541     1   110.2600474 425.931200
   9532   9533   9535     1   109.5600471 388.275200
   9532   9540   9543     1   107.2600461 396.643200
   9533   9532   9536     1   109.5600471 388.275200
   9533   9534   9537     1   110.2200475 386.601600
   9533   9539   9545     1   107.2600461 396.643200
   9534   9533   9535     1   109.5600471 388.275200
   9535   9533   9539     1   110.2600474 425.931200
   9536   9532   9540     1   110.2600474 425.931200
   9537   9534   9538     1   109.5800467 425.931200
   9537   9534   9550     1   109.5800467 425.931200
   9542   9548   9549     1   107.2600461 396.643200
   9546   9542   9548     1   110.2600474 425.931200
   9546   9542   9547     1   108.4600466 328.025600
   9547   9542   9548     1   110.2600474 425.931200
   9551   9552   9554     1   109.5600471 388.275200
   9551   9565   9569     1   109.5600471 388.275200
   9551   9565   9570     1   109.5600471 388.275200
   9552   9555   9559     1   109.5600471 388.275200
   9552   9564   9567     1   107.2600461 396.643200
   9552   9551   9553     1   109.5600471 388.275200
   9553   9551   9565     1   109.5600471 388.275200
   9553   9551   9573     1   109.7800468 425.094400
   9554   9552   9555     1   109.5600471 388.275200
   9554   9552   9564     1   110.2600474 425.931200
   9555   9556   9558     1   109.5600471 388.275200
   9555   9563   9566     1   107.2600461 396.643200
   9556   9557   9560     1   110.2200475 386.601600
   9556   9562   9568     1   107.2600461 396.643200
   9556   9555   9559     1   109.5600471 388.275200
   9557   9556   9558     1   109.5600471 388.275200
   9558   9556   9562     1   110.2600474 425.931200
   9559   9555   9563     1   110.2600474 425.931200
   9560   9557   9561     1   109.5800467 425.931200
   9560   9557   9573     1   109.5800467 425.931200
   9565   9571   9572     1   107.2600461 396.643200
   9569   9565   9571     1   110.2600474 425.931200
   9569   9565   9570     1   108.4600466 328.025600
   9570   9565   9571     1   110.2600474 425.931200
   9574   9575   9577     1   109.5600471 388.275200
   9574   9588   9592     1   109.5600471 388.275200
   9574   9588   9593     1   109.5600471 388.275200
   9575   9574   9576     1   109.5600471 388.275200
   9575   9578   9582     1   109.5600471 388.275200
   9575   9587   9590     1   107.2600461 396.643200
   9576   9574   9588     1   109.5600471 388.275200
   9576   9574   9596     1   109.7800468 425.094400
   9577   9575   9578     1   109.5600471 388.275200
   9577   9575   9587     1   110.2600474 425.931200
   9578   9579   9581     1   109.5600471 388.275200
   9578   9586   9589     1   107.2600461 396.643200
   9579   9578   9582     1   109.5600471 388.275200
   9579   9580   9583     1   110.2200475 386.601600
   9579   9585   9591     1   107.2600461 396.643200
   9580   9579   9581     1   109.5600471 388.275200
   9581   9579   9585     1   110.2600474 425.931200
   9582   9578   9586     1   110.2600474 425.931200
   9583   9580   9584     1   109.5800467 425.931200
   9583   9580   9596     1   109.5800467 425.931200
   9588   9594   9595     1   107.2600461 396.643200
   9592   9588   9594     1   110.2600474 425.931200
   9592   9588   9593     1   108.4600466 328.025600
   9593   9588   9594     1   110.2600474 425.931200
   9597   9598   9600     1   109.5600471 388.275200
   9597   9611   9615     1   109.5600471 388.275200
   9597   9611   9616     1   109.5600471 388.275200
   9598   9601   9605     1   109.5600471 388.275200
   9598   9610   9613     1   107.2600461 396.643200
   9598   9597   9599     1   109.5600471 388.275200
   9599   9597   9611     1   109.5600471 388.275200
   9599   9597   9619     1   109.7800468 425.094400
   9600   9598   9601     1   109.5600471 388.275200
   9600   9598   9610     1   110.2600474 425.931200
   9601   9602   9604     1   109.5600471 388.275200
   9601   9609   9612     1   107.2600461 396.643200
   9602   9603   9606     1   110.2200475 386.601600
   9602   9608   9614     1   107.2600461 396.643200
   9602   9601   9605     1   109.5600471 388.275200
   9603   9602   9604     1   109.5600471 388.275200
   9604   9602   9608     1   110.2600474 425.931200
   9605   9601   9609     1   110.2600474 425.931200
   9606   9603   9607     1   109.5800467 425.931200
   9606   9603   9619     1   109.5800467 425.931200
   9611   9617   9618     1   107.2600461 396.643200
   9615   9611   9617     1   110.2600474 425.931200
   9615   9611   9616     1   108.4600466 328.025600
   9616   9611   9617     1   110.2600474 425.931200
   9620   9621   9623     1   109.5600471 388.275200
   9620   9634   9638     1   109.5600471 388.275200
   9620   9634   9639     1   109.5600471 388.275200
   9621   9620   9622     1   109.5600471 388.275200
   9621   9624   9628     1   109.5600471 388.275200
   9621   9633   9636     1   107.2600461 396.643200
   9622   9620   9634     1   109.5600471 388.275200
   9622   9620   9642     1   109.7800468 425.094400
   9623   9621   9624     1   109.5600471 388.275200
   9623   9621   9633     1   110.2600474 425.931200
   9624   9625   9627     1   109.5600471 388.275200
   9624   9632   9635     1   107.2600461 396.643200
   9625   9624   9628     1   109.5600471 388.275200
   9625   9626   9629     1   110.2200475 386.601600
   9625   9631   9637     1   107.2600461 396.643200
   9626   9625   9627     1   109.5600471 388.275200
   9627   9625   9631     1   110.2600474 425.931200
   9628   9624   9632     1   110.2600474 425.931200
   9629   9626   9630     1   109.5800467 425.931200
   9629   9626   9642     1   109.5800467 425.931200
   9634   9640   9641     1   107.2600461 396.643200
   9638   9634   9640     1   110.2600474 425.931200
   9638   9634   9639     1   108.4600466 328.025600
   9639   9634   9640     1   110.2600474 425.931200
   9643   9644   9646     1   109.5600471 388.275200
   9643   9657   9661     1   109.5600471 388.275200
   9643   9657   9662     1   109.5600471 388.275200
   9644   9647   9651     1   109.5600471 388.275200
   9644   9656   9659     1   107.2600461 396.643200
   9644   9643   9645     1   109.5600471 388.275200
   9645   9643   9657     1   109.5600471 388.275200
   9645   9643   9665     1   109.7800468 425.094400
   9646   9644   9647     1   109.5600471 388.275200
   9646   9644   9656     1   110.2600474 425.931200
   9647   9648   9650     1   109.5600471 388.275200
   9647   9655   9658     1   107.2600461 396.643200
   9648   9649   9652     1   110.2200475 386.601600
   9648   9654   9660     1   107.2600461 396.643200
   9648   9647   9651     1   109.5600471 388.275200
   9649   9648   9650     1   109.5600471 388.275200
   9650   9648   9654     1   110.2600474 425.931200
   9651   9647   9655     1   110.2600474 425.931200
   9652   9649   9653     1   109.5800467 425.931200
   9652   9649   9665     1   109.5800467 425.931200
   9657   9663   9664     1   107.2600461 396.643200
   9661   9657   9663     1   110.2600474 425.931200
   9661   9657   9662     1   108.4600466 328.025600
   9662   9657   9663     1   110.2600474 425.931200
   9666   9667   9669     1   109.5600471 388.275200
   9666   9680   9684     1   109.5600471 388.275200
   9666   9680   9685     1   109.5600471 388.275200
   9667   9666   9668     1   109.5600471 388.275200
   9667   9670   9674     1   109.5600471 388.275200
   9667   9679   9682     1   107.2600461 396.643200
   9668   9666   9680     1   109.5600471 388.275200
   9668   9666   9688     1   109.7800468 425.094400
   9669   9667   9670     1   109.5600471 388.275200
   9669   9667   9679     1   110.2600474 425.931200
   9670   9671   9673     1   109.5600471 388.275200
   9670   9678   9681     1   107.2600461 396.643200
   9671   9670   9674     1   109.5600471 388.275200
   9671   9672   9675     1   110.2200475 386.601600
   9671   9677   9683     1   107.2600461 396.643200
   9672   9671   9673     1   109.5600471 388.275200
   9673   9671   9677     1   110.2600474 425.931200
   9674   9670   9678     1   110.2600474 425.931200
   9675   9672   9676     1   109.5800467 425.931200
   9675   9672   9688     1   109.5800467 425.931200
   9680   9686   9687     1   107.2600461 396.643200
   9684   9680   9686     1   110.2600474 425.931200
   9684   9680   9685     1   108.4600466 328.025600
   9685   9680   9686     1   110.2600474 425.931200
   9689   9690   9692     1   109.5600471 388.275200
   9689   9703   9707     1   109.5600471 388.275200
   9689   9703   9708     1   109.5600471 388.275200
   9690   9693   9697     1   109.5600471 388.275200
   9690   9702   9705     1   107.2600461 396.643200
   9690   9689   9691     1   109.5600471 388.275200
   9691   9689   9703     1   109.5600471 388.275200
   9691   9689   9711     1   109.7800468 425.094400
   9692   9690   9693     1   109.5600471 388.275200
   9692   9690   9702     1   110.2600474 425.931200
   9693   9694   9696     1   109.5600471 388.275200
   9693   9701   9704     1   107.2600461 396.643200
   9694   9695   9698     1   110.2200475 386.601600
   9694   9700   9706     1   107.2600461 396.643200
   9694   9693   9697     1   109.5600471 388.275200
   9695   9694   9696     1   109.5600471 388.275200
   9696   9694   9700     1   110.2600474 425.931200
   9697   9693   9701     1   110.2600474 425.931200
   9698   9695   9699     1   109.5800467 425.931200
   9698   9695   9711     1   109.5800467 425.931200
   9703   9709   9710     1   107.2600461 396.643200
   9707   9703   9709     1   110.2600474 425.931200
   9707   9703   9708     1   108.4600466 328.025600
   9708   9703   9709     1   110.2600474 425.931200
   9712   9713   9715     1   109.5600471 388.275200
   9712   9726   9730     1   109.5600471 388.275200
   9712   9726   9731     1   109.5600471 388.275200
   9713   9712   9714     1   109.5600471 388.275200
   9713   9716   9720     1   109.5600471 388.275200
   9713   9725   9728     1   107.2600461 396.643200
   9714   9712   9726     1   109.5600471 388.275200
   9714   9712   9734     1   109.7800468 425.094400
   9715   9713   9716     1   109.5600471 388.275200
   9715   9713   9725     1   110.2600474 425.931200
   9716   9717   9719     1   109.5600471 388.275200
   9716   9724   9727     1   107.2600461 396.643200
   9717   9716   9720     1   109.5600471 388.275200
   9717   9718   9721     1   110.2200475 386.601600
   9717   9723   9729     1   107.2600461 396.643200
   9718   9717   9719     1   109.5600471 388.275200
   9719   9717   9723     1   110.2600474 425.931200
   9720   9716   9724     1   110.2600474 425.931200
   9721   9718   9722     1   109.5800467 425.931200
   9721   9718   9734     1   109.5800467 425.931200
   9726   9732   9733     1   107.2600461 396.643200
   9730   9726   9732     1   110.2600474 425.931200
   9730   9726   9731     1   108.4600466 328.025600
   9731   9726   9732     1   110.2600474 425.931200
   9735   9736   9738     1   109.5600471 388.275200
   9735   9749   9753     1   109.5600471 388.275200
   9735   9749   9754     1   109.5600471 388.275200
   9736   9739   9743     1   109.5600471 388.275200
   9736   9748   9751     1   107.2600461 396.643200
   9736   9735   9737     1   109.5600471 388.275200
   9737   9735   9749     1   109.5600471 388.275200
   9737   9735   9757     1   109.7800468 425.094400
   9738   9736   9739     1   109.5600471 388.275200
   9738   9736   9748     1   110.2600474 425.931200
   9739   9740   9742     1   109.5600471 388.275200
   9739   9747   9750     1   107.2600461 396.643200
   9740   9741   9744     1   110.2200475 386.601600
   9740   9746   9752     1   107.2600461 396.643200
   9740   9739   9743     1   109.5600471 388.275200
   9741   9740   9742     1   109.5600471 388.275200
   9742   9740   9746     1   110.2600474 425.931200
   9743   9739   9747     1   110.2600474 425.931200
   9744   9741   9745     1   109.5800467 425.931200
   9744   9741   9757     1   109.5800467 425.931200
   9749   9755   9756     1   107.2600461 396.643200
   9753   9749   9755     1   110.2600474 425.931200
   9753   9749   9754     1   108.4600466 328.025600
   9754   9749   9755     1   110.2600474 425.931200
   9758   9759   9761     1   109.5600471 388.275200
   9758   9772   9776     1   109.5600471 388.275200
   9758   9772   9777     1   109.5600471 388.275200
   9759   9758   9760     1   109.5600471 388.275200
   9759   9762   9766     1   109.5600471 388.275200
   9759   9771   9774     1   107.2600461 396.643200
   9760   9758   9772     1   109.5600471 388.275200
   9760   9758   9780     1   109.7800468 425.094400
   9761   9759   9762     1   109.5600471 388.275200
   9761   9759   9771     1   110.2600474 425.931200
   9762   9763   9765     1   109.5600471 388.275200
   9762   9770   9773     1   107.2600461 396.643200
   9763   9762   9766     1   109.5600471 388.275200
   9763   9764   9767     1   110.2200475 386.601600
   9763   9769   9775     1   107.2600461 396.643200
   9764   9763   9765     1   109.5600471 388.275200
   9765   9763   9769     1   110.2600474 425.931200
   9766   9762   9770     1   110.2600474 425.931200
   9767   9764   9768     1   109.5800467 425.931200
   9767   9764   9780     1   109.5800467 425.931200
   9772   9778   9779     1   107.2600461 396.643200
   9776   9772   9778     1   110.2600474 425.931200
   9776   9772   9777     1   108.4600466 328.025600
   9777   9772   9778     1   110.2600474 425.931200
   9781   9782   9784     1   109.5600471 388.275200
   9781   9795   9799     1   109.5600471 388.275200
   9781   9795   9800     1   109.5600471 388.275200
   9782   9785   9789     1   109.5600471 388.275200
   9782   9794   9797     1   107.2600461 396.643200
   9782   9781   9783     1   109.5600471 388.275200
   9783   9781   9795     1   109.5600471 388.275200
   9783   9781   9803     1   109.7800468 425.094400
   9784   9782   9785     1   109.5600471 388.275200
   9784   9782   9794     1   110.2600474 425.931200
   9785   9786   9788     1   109.5600471 388.275200
   9785   9793   9796     1   107.2600461 396.643200
   9786   9787   9790     1   110.2200475 386.601600
   9786   9792   9798     1   107.2600461 396.643200
   9786   9785   9789     1   109.5600471 388.275200
   9787   9786   9788     1   109.5600471 388.275200
   9788   9786   9792     1   110.2600474 425.931200
   9789   9785   9793     1   110.2600474 425.931200
   9790   9787   9791     1   109.5800467 425.931200
   9790   9787   9803     1   109.5800467 425.931200
   9795   9801   9802     1   107.2600461 396.643200
   9799   9795   9801     1   110.2600474 425.931200
   9799   9795   9800     1   108.4600466 328.025600
   9800   9795   9801     1   110.2600474 425.931200
   9804   9805   9807     1   109.5600471 388.275200
   9804   9818   9822     1   109.5600471 388.275200
   9804   9818   9823     1   109.5600471 388.275200
   9805   9804   9806     1   109.5600471 388.275200
   9805   9808   9812     1   109.5600471 388.275200
   9805   9817   9820     1   107.2600461 396.643200
   9806   9804   9818     1   109.5600471 388.275200
   9806   9804   9826     1   109.7800468 425.094400
   9807   9805   9808     1   109.5600471 388.275200
   9807   9805   9817     1   110.2600474 425.931200
   9808   9809   9811     1   109.5600471 388.275200
   9808   9816   9819     1   107.2600461 396.643200
   9809   9808   9812     1   109.5600471 388.275200
   9809   9810   9813     1   110.2200475 386.601600
   9809   9815   9821     1   107.2600461 396.643200
   9810   9809   9811     1   109.5600471 388.275200
   9811   9809   9815     1   110.2600474 425.931200
   9812   9808   9816     1   110.2600474 425.931200
   9813   9810   9814     1   109.5800467 425.931200
   9813   9810   9826     1   109.5800467 425.931200
   9818   9824   9825     1   107.2600461 396.643200
   9822   9818   9824     1   110.2600474 425.931200
   9822   9818   9823     1   108.4600466 328.025600
   9823   9818   9824     1   110.2600474 425.931200
   9827   9828   9830     1   109.5600471 388.275200
   9827   9841   9845     1   109.5600471 388.275200
   9827   9841   9846     1   109.5600471 388.275200
   9828   9831   9835     1   109.5600471 388.275200
   9828   9840   9843     1   107.2600461 396.643200
   9828   9827   9829     1   109.5600471 388.275200
   9829   9827   9841     1   109.5600471 388.275200
   9829   9827   9849     1   109.7800468 425.094400
   9830   9828   9831     1   109.5600471 388.275200
   9830   9828   9840     1   110.2600474 425.931200
   9831   9832   9834     1   109.5600471 388.275200
   9831   9839   9842     1   107.2600461 396.643200
   9832   9833   9836     1   110.2200475 386.601600
   9832   9838   9844     1   107.2600461 396.643200
   9832   9831   9835     1   109.5600471 388.275200
   9833   9832   9834     1   109.5600471 388.275200
   9834   9832   9838     1   110.2600474 425.931200
   9835   9831   9839     1   110.2600474 425.931200
   9836   9833   9837     1   109.5800467 425.931200
   9836   9833   9849     1   109.5800467 425.931200
   9841   9847   9848     1   107.2600461 396.643200
   9845   9841   9847     1   110.2600474 425.931200
   9845   9841   9846     1   108.4600466 328.025600
   9846   9841   9847     1   110.2600474 425.931200
   9850   9851   9853     1   109.5600471 388.275200
   9850   9864   9868     1   109.5600471 388.275200
   9850   9864   9869     1   109.5600471 388.275200
   9851   9850   9852     1   109.5600471 388.275200
   9851   9854   9858     1   109.5600471 388.275200
   9851   9863   9866     1   107.2600461 396.643200
   9852   9850   9864     1   109.5600471 388.275200
   9852   9850   9872     1   109.7800468 425.094400
   9853   9851   9854     1   109.5600471 388.275200
   9853   9851   9863     1   110.2600474 425.931200
   9854   9855   9857     1   109.5600471 388.275200
   9854   9862   9865     1   107.2600461 396.643200
   9855   9854   9858     1   109.5600471 388.275200
   9855   9856   9859     1   110.2200475 386.601600
   9855   9861   9867     1   107.2600461 396.643200
   9856   9855   9857     1   109.5600471 388.275200
   9857   9855   9861     1   110.2600474 425.931200
   9858   9854   9862     1   110.2600474 425.931200
   9859   9856   9860     1   109.5800467 425.931200
   9859   9856   9872     1   109.5800467 425.931200
   9864   9870   9871     1   107.2600461 396.643200
   9868   9864   9870     1   110.2600474 425.931200
   9868   9864   9869     1   108.4600466 328.025600
   9869   9864   9870     1   110.2600474 425.931200
   9873   9874   9876     1   109.5600471 388.275200
   9873   9887   9891     1   109.5600471 388.275200
   9873   9887   9892     1   109.5600471 388.275200
   9874   9877   9881     1   109.5600471 388.275200
   9874   9886   9889     1   107.2600461 396.643200
   9874   9873   9875     1   109.5600471 388.275200
   9875   9873   9887     1   109.5600471 388.275200
   9875   9873   9895     1   109.7800468 425.094400
   9876   9874   9877     1   109.5600471 388.275200
   9876   9874   9886     1   110.2600474 425.931200
   9877   9878   9880     1   109.5600471 388.275200
   9877   9885   9888     1   107.2600461 396.643200
   9878   9879   9882     1   110.2200475 386.601600
   9878   9884   9890     1   107.2600461 396.643200
   9878   9877   9881     1   109.5600471 388.275200
   9879   9878   9880     1   109.5600471 388.275200
   9880   9878   9884     1   110.2600474 425.931200
   9881   9877   9885     1   110.2600474 425.931200
   9882   9879   9883     1   109.5800467 425.931200
   9882   9879   9895     1   109.5800467 425.931200
   9887   9893   9894     1   107.2600461 396.643200
   9891   9887   9893     1   110.2600474 425.931200
   9891   9887   9892     1   108.4600466 328.025600
   9892   9887   9893     1   110.2600474 425.931200
   9896   9897   9899     1   109.5600471 388.275200
   9896   9910   9914     1   109.5600471 388.275200
   9896   9910   9915     1   109.5600471 388.275200
   9897   9896   9898     1   109.5600471 388.275200
   9897   9900   9904     1   109.5600471 388.275200
   9897   9909   9912     1   107.2600461 396.643200
   9898   9896   9910     1   109.5600471 388.275200
   9898   9896   9918     1   109.7800468 425.094400
   9899   9897   9900     1   109.5600471 388.275200
   9899   9897   9909     1   110.2600474 425.931200
   9900   9901   9903     1   109.5600471 388.275200
   9900   9908   9911     1   107.2600461 396.643200
   9901   9900   9904     1   109.5600471 388.275200
   9901   9902   9905     1   110.2200475 386.601600
   9901   9907   9913     1   107.2600461 396.643200
   9902   9901   9903     1   109.5600471 388.275200
   9903   9901   9907     1   110.2600474 425.931200
   9904   9900   9908     1   110.2600474 425.931200
   9905   9902   9906     1   109.5800467 425.931200
   9905   9902   9918     1   109.5800467 425.931200
   9910   9916   9917     1   107.2600461 396.643200
   9914   9910   9916     1   110.2600474 425.931200
   9914   9910   9915     1   108.4600466 328.025600
   9915   9910   9916     1   110.2600474 425.931200
   9919   9920   9922     1   109.5600471 388.275200
   9919   9933   9937     1   109.5600471 388.275200
   9919   9933   9938     1   109.5600471 388.275200
   9920   9923   9927     1   109.5600471 388.275200
   9920   9932   9935     1   107.2600461 396.643200
   9920   9919   9921     1   109.5600471 388.275200
   9921   9919   9933     1   109.5600471 388.275200
   9921   9919   9941     1   109.7800468 425.094400
   9922   9920   9923     1   109.5600471 388.275200
   9922   9920   9932     1   110.2600474 425.931200
   9923   9924   9926     1   109.5600471 388.275200
   9923   9931   9934     1   107.2600461 396.643200
   9924   9925   9928     1   110.2200475 386.601600
   9924   9930   9936     1   107.2600461 396.643200
   9924   9923   9927     1   109.5600471 388.275200
   9925   9924   9926     1   109.5600471 388.275200
   9926   9924   9930     1   110.2600474 425.931200
   9927   9923   9931     1   110.2600474 425.931200
   9928   9925   9929     1   109.5800467 425.931200
   9928   9925   9941     1   109.5800467 425.931200
   9933   9939   9940     1   107.2600461 396.643200
   9937   9933   9939     1   110.2600474 425.931200
   9937   9933   9938     1   108.4600466 328.025600
   9938   9933   9939     1   110.2600474 425.931200
   9942   9943   9945     1   109.5600471 388.275200
   9942   9956   9960     1   109.5600471 388.275200
   9942   9956   9961     1   109.5600471 388.275200
   9943   9942   9944     1   109.5600471 388.275200
   9943   9946   9950     1   109.5600471 388.275200
   9943   9955   9958     1   107.2600461 396.643200
   9944   9942   9956     1   109.5600471 388.275200
   9944   9942   9964     1   109.7800468 425.094400
   9945   9943   9946     1   109.5600471 388.275200
   9945   9943   9955     1   110.2600474 425.931200
   9946   9947   9949     1   109.5600471 388.275200
   9946   9954   9957     1   107.2600461 396.643200
   9947   9946   9950     1   109.5600471 388.275200
   9947   9948   9951     1   110.2200475 386.601600
   9947   9953   9959     1   107.2600461 396.643200
   9948   9947   9949     1   109.5600471 388.275200
   9949   9947   9953     1   110.2600474 425.931200
   9950   9946   9954     1   110.2600474 425.931200
   9951   9948   9952     1   109.5800467 425.931200
   9951   9948   9964     1   109.5800467 425.931200
   9956   9962   9963     1   107.2600461 396.643200
   9960   9956   9962     1   110.2600474 425.931200
   9960   9956   9961     1   108.4600466 328.025600
   9961   9956   9962     1   110.2600474 425.931200
   9965   9966   9968     1   109.5600471 388.275200
   9965   9979   9983     1   109.5600471 388.275200
   9965   9979   9984     1   109.5600471 388.275200
   9966   9969   9973     1   109.5600471 388.275200
   9966   9978   9981     1   107.2600461 396.643200
   9966   9965   9967     1   109.5600471 388.275200
   9967   9965   9979     1   109.5600471 388.275200
   9967   9965   9987     1   109.7800468 425.094400
   9968   9966   9969     1   109.5600471 388.275200
   9968   9966   9978     1   110.2600474 425.931200
   9969   9970   9972     1   109.5600471 388.275200
   9969   9977   9980     1   107.2600461 396.643200
   9970   9971   9974     1   110.2200475 386.601600
   9970   9976   9982     1   107.2600461 396.643200
   9970   9969   9973     1   109.5600471 388.275200
   9971   9970   9972     1   109.5600471 388.275200
   9972   9970   9976     1   110.2600474 425.931200
   9973   9969   9977     1   110.2600474 425.931200
   9974   9971   9975     1   109.5800467 425.931200
   9974   9971   9987     1   109.5800467 425.931200
   9979   9985   9986     1   107.2600461 396.643200
   9983   9979   9985     1   110.2600474 425.931200
   9983   9979   9984     1   108.4600466 328.025600
   9984   9979   9985     1   110.2600474 425.931200
   9988   9989   9991     1   109.5600471 388.275200
   9988  10002  10006     1   109.5600471 388.275200
   9988  10002  10007     1   109.5600471 388.275200
   9989   9988   9990     1   109.5600471 388.275200
   9989   9992   9996     1   109.5600471 388.275200
   9989  10001  10004     1   107.2600461 396.643200
   9990   9988  10002     1   109.5600471 388.275200
   9990   9988  10010     1   109.7800468 425.094400
   9991   9989   9992     1   109.5600471 388.275200
   9991   9989  10001     1   110.2600474 425.931200
   9992   9993   9995     1   109.5600471 388.275200
   9992  10000  10003     1   107.2600461 396.643200
   9993   9992   9996     1   109.5600471 388.275200
   9993   9994   9997     1   110.2200475 386.601600
   9993   9999  10005     1   107.2600461 396.643200
   9994   9993   9995     1   109.5600471 388.275200
   9995   9993   9999     1   110.2600474 425.931200
   9996   9992  10000     1   110.2600474 425.931200
   9997   9994   9998     1   109.5800467 425.931200
   9997   9994  10010     1   109.5800467 425.931200
  10002  10008  10009     1   107.2600461 396.643200
  10006  10002  10008     1   110.2600474 425.931200
  10006  10002  10007     1   108.4600466 328.025600
  10007  10002  10008     1   110.2600474 425.931200
  10011  10012  10014     1   109.5600471 388.275200
  10011  10025  10029     1   109.5600471 388.275200
  10011  10025  10030     1   109.5600471 388.275200
  10012  10015  10019     1   109.5600471 388.275200
  10012  10024  10027     1   107.2600461 396.643200
  10012  10011  10013     1   109.5600471 388.275200
  10013  10011  10025     1   109.5600471 388.275200
  10013  10011  10033     1   109.7800468 425.094400
  10014  10012  10015     1   109.5600471 388.275200
  10014  10012  10024     1   110.2600474 425.931200
  10015  10016  10018     1   109.5600471 388.275200
  10015  10023  10026     1   107.2600461 396.643200
  10016  10017  10020     1   110.2200475 386.601600
  10016  10022  10028     1   107.2600461 396.643200
  10016  10015  10019     1   109.5600471 388.275200
  10017  10016  10018     1   109.5600471 388.275200
  10018  10016  10022     1   110.2600474 425.931200
  10019  10015  10023     1   110.2600474 425.931200
  10020  10017  10021     1   109.5800467 425.931200
  10020  10017  10033     1   109.5800467 425.931200
  10025  10031  10032     1   107.2600461 396.643200
  10029  10025  10031     1   110.2600474 425.931200
  10029  10025  10030     1   108.4600466 328.025600
  10030  10025  10031     1   110.2600474 425.931200
  10034  10035  10037     1   109.5600471 388.275200
  10034  10048  10052     1   109.5600471 388.275200
  10034  10048  10053     1   109.5600471 388.275200
  10035  10034  10036     1   109.5600471 388.275200
  10035  10038  10042     1   109.5600471 388.275200
  10035  10047  10050     1   107.2600461 396.643200
  10036  10034  10048     1   109.5600471 388.275200
  10036  10034  10056     1   109.7800468 425.094400
  10037  10035  10038     1   109.5600471 388.275200
  10037  10035  10047     1   110.2600474 425.931200
  10038  10039  10041     1   109.5600471 388.275200
  10038  10046  10049     1   107.2600461 396.643200
  10039  10038  10042     1   109.5600471 388.275200
  10039  10040  10043     1   110.2200475 386.601600
  10039  10045  10051     1   107.2600461 396.643200
  10040  10039  10041     1   109.5600471 388.275200
  10041  10039  10045     1   110.2600474 425.931200
  10042  10038  10046     1   110.2600474 425.931200
  10043  10040  10044     1   109.5800467 425.931200
  10043  10040  10056     1   109.5800467 425.931200
  10048  10054  10055     1   107.2600461 396.643200
  10052  10048  10054     1   110.2600474 425.931200
  10052  10048  10053     1   108.4600466 328.025600
  10053  10048  10054     1   110.2600474 425.931200
  10057  10058  10060     1   109.5600471 388.275200
  10057  10071  10075     1   109.5600471 388.275200
  10057  10071  10076     1   109.5600471 388.275200
  10058  10061  10065     1   109.5600471 388.275200
  10058  10070  10073     1   107.2600461 396.643200
  10058  10057  10059     1   109.5600471 388.275200
  10059  10057  10071     1   109.5600471 388.275200
  10059  10057  10079     1   109.7800468 425.094400
  10060  10058  10061     1   109.5600471 388.275200
  10060  10058  10070     1   110.2600474 425.931200
  10061  10062  10064     1   109.5600471 388.275200
  10061  10069  10072     1   107.2600461 396.643200
  10062  10063  10066     1   110.2200475 386.601600
  10062  10068  10074     1   107.2600461 396.643200
  10062  10061  10065     1   109.5600471 388.275200
  10063  10062  10064     1   109.5600471 388.275200
  10064  10062  10068     1   110.2600474 425.931200
  10065  10061  10069     1   110.2600474 425.931200
  10066  10063  10067     1   109.5800467 425.931200
  10066  10063  10079     1   109.5800467 425.931200
  10071  10077  10078     1   107.2600461 396.643200
  10075  10071  10077     1   110.2600474 425.931200
  10075  10071  10076     1   108.4600466 328.025600
  10076  10071  10077     1   110.2600474 425.931200
  10080  10081  10083     1   109.5600471 388.275200
  10080  10094  10098     1   109.5600471 388.275200
  10080  10094  10099     1   109.5600471 388.275200
  10081  10080  10082     1   109.5600471 388.275200
  10081  10084  10088     1   109.5600471 388.275200
  10081  10093  10096     1   107.2600461 396.643200
  10082  10080  10094     1   109.5600471 388.275200
  10082  10080  10102     1   109.7800468 425.094400
  10083  10081  10084     1   109.5600471 388.275200
  10083  10081  10093     1   110.2600474 425.931200
  10084  10085  10087     1   109.5600471 388.275200
  10084  10092  10095     1   107.2600461 396.643200
  10085  10084  10088     1   109.5600471 388.275200
  10085  10086  10089     1   110.2200475 386.601600
  10085  10091  10097     1   107.2600461 396.643200
  10086  10085  10087     1   109.5600471 388.275200
  10087  10085  10091     1   110.2600474 425.931200
  10088  10084  10092     1   110.2600474 425.931200
  10089  10086  10090     1   109.5800467 425.931200
  10089  10086  10102     1   109.5800467 425.931200
  10094  10100  10101     1   107.2600461 396.643200
  10098  10094  10100     1   110.2600474 425.931200
  10098  10094  10099     1   108.4600466 328.025600
  10099  10094  10100     1   110.2600474 425.931200
  10103  10104  10106     1   109.5600471 388.275200
  10103  10117  10121     1   109.5600471 388.275200
  10103  10117  10122     1   109.5600471 388.275200
  10104  10107  10111     1   109.5600471 388.275200
  10104  10116  10119     1   107.2600461 396.643200
  10104  10103  10105     1   109.5600471 388.275200
  10105  10103  10117     1   109.5600471 388.275200
  10105  10103  10125     1   109.7800468 425.094400
  10106  10104  10107     1   109.5600471 388.275200
  10106  10104  10116     1   110.2600474 425.931200
  10107  10108  10110     1   109.5600471 388.275200
  10107  10115  10118     1   107.2600461 396.643200
  10108  10109  10112     1   110.2200475 386.601600
  10108  10114  10120     1   107.2600461 396.643200
  10108  10107  10111     1   109.5600471 388.275200
  10109  10108  10110     1   109.5600471 388.275200
  10110  10108  10114     1   110.2600474 425.931200
  10111  10107  10115     1   110.2600474 425.931200
  10112  10109  10113     1   109.5800467 425.931200
  10112  10109  10125     1   109.5800467 425.931200
  10117  10123  10124     1   107.2600461 396.643200
  10121  10117  10123     1   110.2600474 425.931200
  10121  10117  10122     1   108.4600466 328.025600
  10122  10117  10123     1   110.2600474 425.931200
  10126  10127  10129     1   109.5600471 388.275200
  10126  10140  10144     1   109.5600471 388.275200
  10126  10140  10145     1   109.5600471 388.275200
  10127  10126  10128     1   109.5600471 388.275200
  10127  10130  10134     1   109.5600471 388.275200
  10127  10139  10142     1   107.2600461 396.643200
  10128  10126  10140     1   109.5600471 388.275200
  10128  10126  10148     1   109.7800468 425.094400
  10129  10127  10130     1   109.5600471 388.275200
  10129  10127  10139     1   110.2600474 425.931200
  10130  10131  10133     1   109.5600471 388.275200
  10130  10138  10141     1   107.2600461 396.643200
  10131  10130  10134     1   109.5600471 388.275200
  10131  10132  10135     1   110.2200475 386.601600
  10131  10137  10143     1   107.2600461 396.643200
  10132  10131  10133     1   109.5600471 388.275200
  10133  10131  10137     1   110.2600474 425.931200
  10134  10130  10138     1   110.2600474 425.931200
  10135  10132  10136     1   109.5800467 425.931200
  10135  10132  10148     1   109.5800467 425.931200
  10140  10146  10147     1   107.2600461 396.643200
  10144  10140  10146     1   110.2600474 425.931200
  10144  10140  10145     1   108.4600466 328.025600
  10145  10140  10146     1   110.2600474 425.931200
  10149  10150  10152     1   109.5600471 388.275200
  10149  10163  10167     1   109.5600471 388.275200
  10149  10163  10168     1   109.5600471 388.275200
  10150  10153  10157     1   109.5600471 388.275200
  10150  10162  10165     1   107.2600461 396.643200
  10150  10149  10151     1   109.5600471 388.275200
  10151  10149  10163     1   109.5600471 388.275200
  10151  10149  10171     1   109.7800468 425.094400
  10152  10150  10153     1   109.5600471 388.275200
  10152  10150  10162     1   110.2600474 425.931200
  10153  10154  10156     1   109.5600471 388.275200
  10153  10161  10164     1   107.2600461 396.643200
  10154  10155  10158     1   110.2200475 386.601600
  10154  10160  10166     1   107.2600461 396.643200
  10154  10153  10157     1   109.5600471 388.275200
  10155  10154  10156     1   109.5600471 388.275200
  10156  10154  10160     1   110.2600474 425.931200
  10157  10153  10161     1   110.2600474 425.931200
  10158  10155  10159     1   109.5800467 425.931200
  10158  10155  10171     1   109.5800467 425.931200
  10163  10169  10170     1   107.2600461 396.643200
  10167  10163  10169     1   110.2600474 425.931200
  10167  10163  10168     1   108.4600466 328.025600
  10168  10163  10169     1   110.2600474 425.931200
  10172  10173  10175     1   109.5600471 388.275200
  10172  10186  10190     1   109.5600471 388.275200
  10172  10186  10191     1   109.5600471 388.275200
  10173  10172  10174     1   109.5600471 388.275200
  10173  10176  10180     1   109.5600471 388.275200
  10173  10185  10188     1   107.2600461 396.643200
  10174  10172  10186     1   109.5600471 388.275200
  10174  10172  10194     1   109.7800468 425.094400
  10175  10173  10176     1   109.5600471 388.275200
  10175  10173  10185     1   110.2600474 425.931200
  10176  10177  10179     1   109.5600471 388.275200
  10176  10184  10187     1   107.2600461 396.643200
  10177  10176  10180     1   109.5600471 388.275200
  10177  10178  10181     1   110.2200475 386.601600
  10177  10183  10189     1   107.2600461 396.643200
  10178  10177  10179     1   109.5600471 388.275200
  10179  10177  10183     1   110.2600474 425.931200
  10180  10176  10184     1   110.2600474 425.931200
  10181  10178  10182     1   109.5800467 425.931200
  10181  10178  10194     1   109.5800467 425.931200
  10186  10192  10193     1   107.2600461 396.643200
  10190  10186  10192     1   110.2600474 425.931200
  10190  10186  10191     1   108.4600466 328.025600
  10191  10186  10192     1   110.2600474 425.931200
  10195  10196  10198     1   109.5600471 388.275200
  10195  10209  10213     1   109.5600471 388.275200
  10195  10209  10214     1   109.5600471 388.275200
  10196  10199  10203     1   109.5600471 388.275200
  10196  10208  10211     1   107.2600461 396.643200
  10196  10195  10197     1   109.5600471 388.275200
  10197  10195  10209     1   109.5600471 388.275200
  10197  10195  10217     1   109.7800468 425.094400
  10198  10196  10199     1   109.5600471 388.275200
  10198  10196  10208     1   110.2600474 425.931200
  10199  10200  10202     1   109.5600471 388.275200
  10199  10207  10210     1   107.2600461 396.643200
  10200  10201  10204     1   110.2200475 386.601600
  10200  10206  10212     1   107.2600461 396.643200
  10200  10199  10203     1   109.5600471 388.275200
  10201  10200  10202     1   109.5600471 388.275200
  10202  10200  10206     1   110.2600474 425.931200
  10203  10199  10207     1   110.2600474 425.931200
  10204  10201  10205     1   109.5800467 425.931200
  10204  10201  10217     1   109.5800467 425.931200
  10209  10215  10216     1   107.2600461 396.643200
  10213  10209  10215     1   110.2600474 425.931200
  10213  10209  10214     1   108.4600466 328.025600
  10214  10209  10215     1   110.2600474 425.931200
  10218  10219  10221     1   109.5600471 388.275200
  10218  10232  10236     1   109.5600471 388.275200
  10218  10232  10237     1   109.5600471 388.275200
  10219  10218  10220     1   109.5600471 388.275200
  10219  10222  10226     1   109.5600471 388.275200
  10219  10231  10234     1   107.2600461 396.643200
  10220  10218  10232     1   109.5600471 388.275200
  10220  10218  10240     1   109.7800468 425.094400
  10221  10219  10222     1   109.5600471 388.275200
  10221  10219  10231     1   110.2600474 425.931200
  10222  10223  10225     1   109.5600471 388.275200
  10222  10230  10233     1   107.2600461 396.643200
  10223  10222  10226     1   109.5600471 388.275200
  10223  10224  10227     1   110.2200475 386.601600
  10223  10229  10235     1   107.2600461 396.643200
  10224  10223  10225     1   109.5600471 388.275200
  10225  10223  10229     1   110.2600474 425.931200
  10226  10222  10230     1   110.2600474 425.931200
  10227  10224  10228     1   109.5800467 425.931200
  10227  10224  10240     1   109.5800467 425.931200
  10232  10238  10239     1   107.2600461 396.643200
  10236  10232  10238     1   110.2600474 425.931200
  10236  10232  10237     1   108.4600466 328.025600
  10237  10232  10238     1   110.2600474 425.931200
  10241  10242  10244     1   109.5600471 388.275200
  10241  10255  10259     1   109.5600471 388.275200
  10241  10255  10260     1   109.5600471 388.275200
  10242  10245  10249     1   109.5600471 388.275200
  10242  10254  10257     1   107.2600461 396.643200
  10242  10241  10243     1   109.5600471 388.275200
  10243  10241  10255     1   109.5600471 388.275200
  10243  10241  10263     1   109.7800468 425.094400
  10244  10242  10245     1   109.5600471 388.275200
  10244  10242  10254     1   110.2600474 425.931200
  10245  10246  10248     1   109.5600471 388.275200
  10245  10253  10256     1   107.2600461 396.643200
  10246  10247  10250     1   110.2200475 386.601600
  10246  10252  10258     1   107.2600461 396.643200
  10246  10245  10249     1   109.5600471 388.275200
  10247  10246  10248     1   109.5600471 388.275200
  10248  10246  10252     1   110.2600474 425.931200
  10249  10245  10253     1   110.2600474 425.931200
  10250  10247  10251     1   109.5800467 425.931200
  10250  10247  10263     1   109.5800467 425.931200
  10255  10261  10262     1   107.2600461 396.643200
  10259  10255  10261     1   110.2600474 425.931200
  10259  10255  10260     1   108.4600466 328.025600
  10260  10255  10261     1   110.2600474 425.931200
  10264  10265  10267     1   109.5600471 388.275200
  10264  10278  10282     1   109.5600471 388.275200
  10264  10278  10283     1   109.5600471 388.275200
  10265  10264  10266     1   109.5600471 388.275200
  10265  10268  10272     1   109.5600471 388.275200
  10265  10277  10280     1   107.2600461 396.643200
  10266  10264  10278     1   109.5600471 388.275200
  10266  10264  10286     1   109.7800468 425.094400
  10267  10265  10268     1   109.5600471 388.275200
  10267  10265  10277     1   110.2600474 425.931200
  10268  10269  10271     1   109.5600471 388.275200
  10268  10276  10279     1   107.2600461 396.643200
  10269  10268  10272     1   109.5600471 388.275200
  10269  10270  10273     1   110.2200475 386.601600
  10269  10275  10281     1   107.2600461 396.643200
  10270  10269  10271     1   109.5600471 388.275200
  10271  10269  10275     1   110.2600474 425.931200
  10272  10268  10276     1   110.2600474 425.931200
  10273  10270  10274     1   109.5800467 425.931200
  10273  10270  10286     1   109.5800467 425.931200
  10278  10284  10285     1   107.2600461 396.643200
  10282  10278  10284     1   110.2600474 425.931200
  10282  10278  10283     1   108.4600466 328.025600
  10283  10278  10284     1   110.2600474 425.931200
  10287  10288  10290     1   109.5600471 388.275200
  10287  10301  10305     1   109.5600471 388.275200
  10287  10301  10306     1   109.5600471 388.275200
  10288  10291  10295     1   109.5600471 388.275200
  10288  10300  10303     1   107.2600461 396.643200
  10288  10287  10289     1   109.5600471 388.275200
  10289  10287  10301     1   109.5600471 388.275200
  10289  10287  10309     1   109.7800468 425.094400
  10290  10288  10291     1   109.5600471 388.275200
  10290  10288  10300     1   110.2600474 425.931200
  10291  10292  10294     1   109.5600471 388.275200
  10291  10299  10302     1   107.2600461 396.643200
  10292  10293  10296     1   110.2200475 386.601600
  10292  10298  10304     1   107.2600461 396.643200
  10292  10291  10295     1   109.5600471 388.275200
  10293  10292  10294     1   109.5600471 388.275200
  10294  10292  10298     1   110.2600474 425.931200
  10295  10291  10299     1   110.2600474 425.931200
  10296  10293  10297     1   109.5800467 425.931200
  10296  10293  10309     1   109.5800467 425.931200
  10301  10307  10308     1   107.2600461 396.643200
  10305  10301  10307     1   110.2600474 425.931200
  10305  10301  10306     1   108.4600466 328.025600
  10306  10301  10307     1   110.2600474 425.931200
  10310  10311  10313     1   109.5600471 388.275200
  10310  10324  10328     1   109.5600471 388.275200
  10310  10324  10329     1   109.5600471 388.275200
  10311  10310  10312     1   109.5600471 388.275200
  10311  10314  10318     1   109.5600471 388.275200
  10311  10323  10326     1   107.2600461 396.643200
  10312  10310  10324     1   109.5600471 388.275200
  10312  10310  10332     1   109.7800468 425.094400
  10313  10311  10314     1   109.5600471 388.275200
  10313  10311  10323     1   110.2600474 425.931200
  10314  10315  10317     1   109.5600471 388.275200
  10314  10322  10325     1   107.2600461 396.643200
  10315  10314  10318     1   109.5600471 388.275200
  10315  10316  10319     1   110.2200475 386.601600
  10315  10321  10327     1   107.2600461 396.643200
  10316  10315  10317     1   109.5600471 388.275200
  10317  10315  10321     1   110.2600474 425.931200
  10318  10314  10322     1   110.2600474 425.931200
  10319  10316  10320     1   109.5800467 425.931200
  10319  10316  10332     1   109.5800467 425.931200
  10324  10330  10331     1   107.2600461 396.643200
  10328  10324  10330     1   110.2600474 425.931200
  10328  10324  10329     1   108.4600466 328.025600
  10329  10324  10330     1   110.2600474 425.931200
  10333  10334  10336     1   109.5600471 388.275200
  10333  10347  10351     1   109.5600471 388.275200
  10333  10347  10352     1   109.5600471 388.275200
  10334  10337  10341     1   109.5600471 388.275200
  10334  10346  10349     1   107.2600461 396.643200
  10334  10333  10335     1   109.5600471 388.275200
  10335  10333  10347     1   109.5600471 388.275200
  10335  10333  10355     1   109.7800468 425.094400
  10336  10334  10337     1   109.5600471 388.275200
  10336  10334  10346     1   110.2600474 425.931200
  10337  10338  10340     1   109.5600471 388.275200
  10337  10345  10348     1   107.2600461 396.643200
  10338  10339  10342     1   110.2200475 386.601600
  10338  10344  10350     1   107.2600461 396.643200
  10338  10337  10341     1   109.5600471 388.275200
  10339  10338  10340     1   109.5600471 388.275200
  10340  10338  10344     1   110.2600474 425.931200
  10341  10337  10345     1   110.2600474 425.931200
  10342  10339  10343     1   109.5800467 425.931200
  10342  10339  10355     1   109.5800467 425.931200
  10347  10353  10354     1   107.2600461 396.643200
  10351  10347  10353     1   110.2600474 425.931200
  10351  10347  10352     1   108.4600466 328.025600
  10352  10347  10353     1   110.2600474 425.931200
  10356  10357  10359     1   109.5600471 388.275200
  10356  10370  10374     1   109.5600471 388.275200
  10356  10370  10375     1   109.5600471 388.275200
  10357  10356  10358     1   109.5600471 388.275200
  10357  10360  10364     1   109.5600471 388.275200
  10357  10369  10372     1   107.2600461 396.643200
  10358  10356  10370     1   109.5600471 388.275200
  10358  10356  10378     1   109.7800468 425.094400
  10359  10357  10360     1   109.5600471 388.275200
  10359  10357  10369     1   110.2600474 425.931200
  10360  10361  10363     1   109.5600471 388.275200
  10360  10368  10371     1   107.2600461 396.643200
  10361  10360  10364     1   109.5600471 388.275200
  10361  10362  10365     1   110.2200475 386.601600
  10361  10367  10373     1   107.2600461 396.643200
  10362  10361  10363     1   109.5600471 388.275200
  10363  10361  10367     1   110.2600474 425.931200
  10364  10360  10368     1   110.2600474 425.931200
  10365  10362  10366     1   109.5800467 425.931200
  10365  10362  10378     1   109.5800467 425.931200
  10370  10376  10377     1   107.2600461 396.643200
  10374  10370  10376     1   110.2600474 425.931200
  10374  10370  10375     1   108.4600466 328.025600
  10375  10370  10376     1   110.2600474 425.931200
  10379  10380  10382     1   109.5600471 388.275200
  10379  10393  10397     1   109.5600471 388.275200
  10379  10393  10398     1   109.5600471 388.275200
  10380  10383  10387     1   109.5600471 388.275200
  10380  10392  10395     1   107.2600461 396.643200
  10380  10379  10381     1   109.5600471 388.275200
  10381  10379  10393     1   109.5600471 388.275200
  10381  10379  10401     1   109.7800468 425.094400
  10382  10380  10383     1   109.5600471 388.275200
  10382  10380  10392     1   110.2600474 425.931200
  10383  10384  10386     1   109.5600471 388.275200
  10383  10391  10394     1   107.2600461 396.643200
  10384  10385  10388     1   110.2200475 386.601600
  10384  10390  10396     1   107.2600461 396.643200
  10384  10383  10387     1   109.5600471 388.275200
  10385  10384  10386     1   109.5600471 388.275200
  10386  10384  10390     1   110.2600474 425.931200
  10387  10383  10391     1   110.2600474 425.931200
  10388  10385  10389     1   109.5800467 425.931200
  10388  10385  10401     1   109.5800467 425.931200
  10393  10399  10400     1   107.2600461 396.643200
  10397  10393  10399     1   110.2600474 425.931200
  10397  10393  10398     1   108.4600466 328.025600
  10398  10393  10399     1   110.2600474 425.931200
  10402  10403  10405     1   109.5600471 388.275200
  10402  10416  10420     1   109.5600471 388.275200
  10402  10416  10421     1   109.5600471 388.275200
  10403  10402  10404     1   109.5600471 388.275200
  10403  10406  10410     1   109.5600471 388.275200
  10403  10415  10418     1   107.2600461 396.643200
  10404  10402  10416     1   109.5600471 388.275200
  10404  10402  10424     1   109.7800468 425.094400
  10405  10403  10406     1   109.5600471 388.275200
  10405  10403  10415     1   110.2600474 425.931200
  10406  10407  10409     1   109.5600471 388.275200
  10406  10414  10417     1   107.2600461 396.643200
  10407  10406  10410     1   109.5600471 388.275200
  10407  10408  10411     1   110.2200475 386.601600
  10407  10413  10419     1   107.2600461 396.643200
  10408  10407  10409     1   109.5600471 388.275200
  10409  10407  10413     1   110.2600474 425.931200
  10410  10406  10414     1   110.2600474 425.931200
  10411  10408  10412     1   109.5800467 425.931200
  10411  10408  10424     1   109.5800467 425.931200
  10416  10422  10423     1   107.2600461 396.643200
  10420  10416  10422     1   110.2600474 425.931200
  10420  10416  10421     1   108.4600466 328.025600
  10421  10416  10422     1   110.2600474 425.931200
  10425  10426  10428     1   109.5600471 388.275200
  10425  10439  10443     1   109.5600471 388.275200
  10425  10439  10444     1   109.5600471 388.275200
  10426  10429  10433     1   109.5600471 388.275200
  10426  10438  10441     1   107.2600461 396.643200
  10426  10425  10427     1   109.5600471 388.275200
  10427  10425  10439     1   109.5600471 388.275200
  10427  10425  10447     1   109.7800468 425.094400
  10428  10426  10429     1   109.5600471 388.275200
  10428  10426  10438     1   110.2600474 425.931200
  10429  10430  10432     1   109.5600471 388.275200
  10429  10437  10440     1   107.2600461 396.643200
  10430  10431  10434     1   110.2200475 386.601600
  10430  10436  10442     1   107.2600461 396.643200
  10430  10429  10433     1   109.5600471 388.275200
  10431  10430  10432     1   109.5600471 388.275200
  10432  10430  10436     1   110.2600474 425.931200
  10433  10429  10437     1   110.2600474 425.931200
  10434  10431  10435     1   109.5800467 425.931200
  10434  10431  10447     1   109.5800467 425.931200
  10439  10445  10446     1   107.2600461 396.643200
  10443  10439  10445     1   110.2600474 425.931200
  10443  10439  10444     1   108.4600466 328.025600
  10444  10439  10445     1   110.2600474 425.931200
  10448  10449  10451     1   109.5600471 388.275200
  10448  10462  10466     1   109.5600471 388.275200
  10448  10462  10467     1   109.5600471 388.275200
  10449  10448  10450     1   109.5600471 388.275200
  10449  10452  10456     1   109.5600471 388.275200
  10449  10461  10464     1   107.2600461 396.643200
  10450  10448  10462     1   109.5600471 388.275200
  10450  10448  10470     1   109.7800468 425.094400
  10451  10449  10452     1   109.5600471 388.275200
  10451  10449  10461     1   110.2600474 425.931200
  10452  10453  10455     1   109.5600471 388.275200
  10452  10460  10463     1   107.2600461 396.643200
  10453  10452  10456     1   109.5600471 388.275200
  10453  10454  10457     1   110.2200475 386.601600
  10453  10459  10465     1   107.2600461 396.643200
  10454  10453  10455     1   109.5600471 388.275200
  10455  10453  10459     1   110.2600474 425.931200
  10456  10452  10460     1   110.2600474 425.931200
  10457  10454  10458     1   109.5800467 425.931200
  10457  10454  10470     1   109.5800467 425.931200
  10462  10468  10469     1   107.2600461 396.643200
  10466  10462  10468     1   110.2600474 425.931200
  10466  10462  10467     1   108.4600466 328.025600
  10467  10462  10468     1   110.2600474 425.931200
  10471  10472  10474     1   109.5600471 388.275200
  10471  10485  10489     1   109.5600471 388.275200
  10471  10485  10490     1   109.5600471 388.275200
  10472  10475  10479     1   109.5600471 388.275200
  10472  10484  10487     1   107.2600461 396.643200
  10472  10471  10473     1   109.5600471 388.275200
  10473  10471  10485     1   109.5600471 388.275200
  10473  10471  10493     1   109.7800468 425.094400
  10474  10472  10475     1   109.5600471 388.275200
  10474  10472  10484     1   110.2600474 425.931200
  10475  10476  10478     1   109.5600471 388.275200
  10475  10483  10486     1   107.2600461 396.643200
  10476  10477  10480     1   110.2200475 386.601600
  10476  10482  10488     1   107.2600461 396.643200
  10476  10475  10479     1   109.5600471 388.275200
  10477  10476  10478     1   109.5600471 388.275200
  10478  10476  10482     1   110.2600474 425.931200
  10479  10475  10483     1   110.2600474 425.931200
  10480  10477  10481     1   109.5800467 425.931200
  10480  10477  10493     1   109.5800467 425.931200
  10485  10491  10492     1   107.2600461 396.643200
  10489  10485  10491     1   110.2600474 425.931200
  10489  10485  10490     1   108.4600466 328.025600
  10490  10485  10491     1   110.2600474 425.931200
  10494  10495  10497     1   109.5600471 388.275200
  10494  10508  10512     1   109.5600471 388.275200
  10494  10508  10513     1   109.5600471 388.275200
  10495  10494  10496     1   109.5600471 388.275200
  10495  10498  10502     1   109.5600471 388.275200
  10495  10507  10510     1   107.2600461 396.643200
  10496  10494  10508     1   109.5600471 388.275200
  10496  10494  10516     1   109.7800468 425.094400
  10497  10495  10498     1   109.5600471 388.275200
  10497  10495  10507     1   110.2600474 425.931200
  10498  10499  10501     1   109.5600471 388.275200
  10498  10506  10509     1   107.2600461 396.643200
  10499  10498  10502     1   109.5600471 388.275200
  10499  10500  10503     1   110.2200475 386.601600
  10499  10505  10511     1   107.2600461 396.643200
  10500  10499  10501     1   109.5600471 388.275200
  10501  10499  10505     1   110.2600474 425.931200
  10502  10498  10506     1   110.2600474 425.931200
  10503  10500  10504     1   109.5800467 425.931200
  10503  10500  10516     1   109.5800467 425.931200
  10508  10514  10515     1   107.2600461 396.643200
  10512  10508  10514     1   110.2600474 425.931200
  10512  10508  10513     1   108.4600466 328.025600
  10513  10508  10514     1   110.2600474 425.931200
  10517  10518  10520     1   109.5600471 388.275200
  10517  10531  10535     1   109.5600471 388.275200
  10517  10531  10536     1   109.5600471 388.275200
  10518  10521  10525     1   109.5600471 388.275200
  10518  10530  10533     1   107.2600461 396.643200
  10518  10517  10519     1   109.5600471 388.275200
  10519  10517  10531     1   109.5600471 388.275200
  10519  10517  10539     1   109.7800468 425.094400
  10520  10518  10521     1   109.5600471 388.275200
  10520  10518  10530     1   110.2600474 425.931200
  10521  10522  10524     1   109.5600471 388.275200
  10521  10529  10532     1   107.2600461 396.643200
  10522  10523  10526     1   110.2200475 386.601600
  10522  10528  10534     1   107.2600461 396.643200
  10522  10521  10525     1   109.5600471 388.275200
  10523  10522  10524     1   109.5600471 388.275200
  10524  10522  10528     1   110.2600474 425.931200
  10525  10521  10529     1   110.2600474 425.931200
  10526  10523  10527     1   109.5800467 425.931200
  10526  10523  10539     1   109.5800467 425.931200
  10531  10537  10538     1   107.2600461 396.643200
  10535  10531  10537     1   110.2600474 425.931200
  10535  10531  10536     1   108.4600466 328.025600
  10536  10531  10537     1   110.2600474 425.931200
  10540  10541  10543     1   109.5600471 388.275200
  10540  10554  10558     1   109.5600471 388.275200
  10540  10554  10559     1   109.5600471 388.275200
  10541  10540  10542     1   109.5600471 388.275200
  10541  10544  10548     1   109.5600471 388.275200
  10541  10553  10556     1   107.2600461 396.643200
  10542  10540  10554     1   109.5600471 388.275200
  10542  10540  10562     1   109.7800468 425.094400
  10543  10541  10544     1   109.5600471 388.275200
  10543  10541  10553     1   110.2600474 425.931200
  10544  10545  10547     1   109.5600471 388.275200
  10544  10552  10555     1   107.2600461 396.643200
  10545  10544  10548     1   109.5600471 388.275200
  10545  10546  10549     1   110.2200475 386.601600
  10545  10551  10557     1   107.2600461 396.643200
  10546  10545  10547     1   109.5600471 388.275200
  10547  10545  10551     1   110.2600474 425.931200
  10548  10544  10552     1   110.2600474 425.931200
  10549  10546  10550     1   109.5800467 425.931200
  10549  10546  10562     1   109.5800467 425.931200
  10554  10560  10561     1   107.2600461 396.643200
  10558  10554  10560     1   110.2600474 425.931200
  10558  10554  10559     1   108.4600466 328.025600
  10559  10554  10560     1   110.2600474 425.931200
  10563  10564  10566     1   109.5600471 388.275200
  10563  10577  10581     1   109.5600471 388.275200
  10563  10577  10582     1   109.5600471 388.275200
  10564  10567  10571     1   109.5600471 388.275200
  10564  10576  10579     1   107.2600461 396.643200
  10564  10563  10565     1   109.5600471 388.275200
  10565  10563  10577     1   109.5600471 388.275200
  10565  10563  10585     1   109.7800468 425.094400
  10566  10564  10567     1   109.5600471 388.275200
  10566  10564  10576     1   110.2600474 425.931200
  10567  10568  10570     1   109.5600471 388.275200
  10567  10575  10578     1   107.2600461 396.643200
  10568  10569  10572     1   110.2200475 386.601600
  10568  10574  10580     1   107.2600461 396.643200
  10568  10567  10571     1   109.5600471 388.275200
  10569  10568  10570     1   109.5600471 388.275200
  10570  10568  10574     1   110.2600474 425.931200
  10571  10567  10575     1   110.2600474 425.931200
  10572  10569  10573     1   109.5800467 425.931200
  10572  10569  10585     1   109.5800467 425.931200
  10577  10583  10584     1   107.2600461 396.643200
  10581  10577  10583     1   110.2600474 425.931200
  10581  10577  10582     1   108.4600466 328.025600
  10582  10577  10583     1   110.2600474 425.931200
  10586  10587  10589     1   109.5600471 388.275200
  10586  10600  10604     1   109.5600471 388.275200
  10586  10600  10605     1   109.5600471 388.275200
  10587  10586  10588     1   109.5600471 388.275200
  10587  10590  10594     1   109.5600471 388.275200
  10587  10599  10602     1   107.2600461 396.643200
  10588  10586  10600     1   109.5600471 388.275200
  10588  10586  10608     1   109.7800468 425.094400
  10589  10587  10590     1   109.5600471 388.275200
  10589  10587  10599     1   110.2600474 425.931200
  10590  10591  10593     1   109.5600471 388.275200
  10590  10598  10601     1   107.2600461 396.643200
  10591  10590  10594     1   109.5600471 388.275200
  10591  10592  10595     1   110.2200475 386.601600
  10591  10597  10603     1   107.2600461 396.643200
  10592  10591  10593     1   109.5600471 388.275200
  10593  10591  10597     1   110.2600474 425.931200
  10594  10590  10598     1   110.2600474 425.931200
  10595  10592  10596     1   109.5800467 425.931200
  10595  10592  10608     1   109.5800467 425.931200
  10600  10606  10607     1   107.2600461 396.643200
  10604  10600  10606     1   110.2600474 425.931200
  10604  10600  10605     1   108.4600466 328.025600
  10605  10600  10606     1   110.2600474 425.931200
  10609  10610  10612     1   109.5600471 388.275200
  10609  10623  10627     1   109.5600471 388.275200
  10609  10623  10628     1   109.5600471 388.275200
  10610  10613  10617     1   109.5600471 388.275200
  10610  10622  10625     1   107.2600461 396.643200
  10610  10609  10611     1   109.5600471 388.275200
  10611  10609  10623     1   109.5600471 388.275200
  10611  10609  10631     1   109.7800468 425.094400
  10612  10610  10613     1   109.5600471 388.275200
  10612  10610  10622     1   110.2600474 425.931200
  10613  10614  10616     1   109.5600471 388.275200
  10613  10621  10624     1   107.2600461 396.643200
  10614  10615  10618     1   110.2200475 386.601600
  10614  10620  10626     1   107.2600461 396.643200
  10614  10613  10617     1   109.5600471 388.275200
  10615  10614  10616     1   109.5600471 388.275200
  10616  10614  10620     1   110.2600474 425.931200
  10617  10613  10621     1   110.2600474 425.931200
  10618  10615  10619     1   109.5800467 425.931200
  10618  10615  10631     1   109.5800467 425.931200
  10623  10629  10630     1   107.2600461 396.643200
  10627  10623  10629     1   110.2600474 425.931200
  10627  10623  10628     1   108.4600466 328.025600
  10628  10623  10629     1   110.2600474 425.931200
  10632  10633  10635     1   109.5600471 388.275200
  10632  10646  10650     1   109.5600471 388.275200
  10632  10646  10651     1   109.5600471 388.275200
  10633  10632  10634     1   109.5600471 388.275200
  10633  10636  10640     1   109.5600471 388.275200
  10633  10645  10648     1   107.2600461 396.643200
  10634  10632  10646     1   109.5600471 388.275200
  10634  10632  10654     1   109.7800468 425.094400
  10635  10633  10636     1   109.5600471 388.275200
  10635  10633  10645     1   110.2600474 425.931200
  10636  10637  10639     1   109.5600471 388.275200
  10636  10644  10647     1   107.2600461 396.643200
  10637  10636  10640     1   109.5600471 388.275200
  10637  10638  10641     1   110.2200475 386.601600
  10637  10643  10649     1   107.2600461 396.643200
  10638  10637  10639     1   109.5600471 388.275200
  10639  10637  10643     1   110.2600474 425.931200
  10640  10636  10644     1   110.2600474 425.931200
  10641  10638  10642     1   109.5800467 425.931200
  10641  10638  10654     1   109.5800467 425.931200
  10646  10652  10653     1   107.2600461 396.643200
  10650  10646  10652     1   110.2600474 425.931200
  10650  10646  10651     1   108.4600466 328.025600
  10651  10646  10652     1   110.2600474 425.931200
  10655  10656  10658     1   109.5600471 388.275200
  10655  10669  10673     1   109.5600471 388.275200
  10655  10669  10674     1   109.5600471 388.275200
  10656  10659  10663     1   109.5600471 388.275200
  10656  10668  10671     1   107.2600461 396.643200
  10656  10655  10657     1   109.5600471 388.275200
  10657  10655  10669     1   109.5600471 388.275200
  10657  10655  10677     1   109.7800468 425.094400
  10658  10656  10659     1   109.5600471 388.275200
  10658  10656  10668     1   110.2600474 425.931200
  10659  10660  10662     1   109.5600471 388.275200
  10659  10667  10670     1   107.2600461 396.643200
  10660  10661  10664     1   110.2200475 386.601600
  10660  10666  10672     1   107.2600461 396.643200
  10660  10659  10663     1   109.5600471 388.275200
  10661  10660  10662     1   109.5600471 388.275200
  10662  10660  10666     1   110.2600474 425.931200
  10663  10659  10667     1   110.2600474 425.931200
  10664  10661  10665     1   109.5800467 425.931200
  10664  10661  10677     1   109.5800467 425.931200
  10669  10675  10676     1   107.2600461 396.643200
  10673  10669  10675     1   110.2600474 425.931200
  10673  10669  10674     1   108.4600466 328.025600
  10674  10669  10675     1   110.2600474 425.931200
  10678  10679  10681     1   109.5600471 388.275200
  10678  10692  10696     1   109.5600471 388.275200
  10678  10692  10697     1   109.5600471 388.275200
  10679  10678  10680     1   109.5600471 388.275200
  10679  10682  10686     1   109.5600471 388.275200
  10679  10691  10694     1   107.2600461 396.643200
  10680  10678  10692     1   109.5600471 388.275200
  10680  10678  10700     1   109.7800468 425.094400
  10681  10679  10682     1   109.5600471 388.275200
  10681  10679  10691     1   110.2600474 425.931200
  10682  10683  10685     1   109.5600471 388.275200
  10682  10690  10693     1   107.2600461 396.643200
  10683  10682  10686     1   109.5600471 388.275200
  10683  10684  10687     1   110.2200475 386.601600
  10683  10689  10695     1   107.2600461 396.643200
  10684  10683  10685     1   109.5600471 388.275200
  10685  10683  10689     1   110.2600474 425.931200
  10686  10682  10690     1   110.2600474 425.931200
  10687  10684  10688     1   109.5800467 425.931200
  10687  10684  10700     1   109.5800467 425.931200
  10692  10698  10699     1   107.2600461 396.643200
  10696  10692  10698     1   110.2600474 425.931200
  10696  10692  10697     1   108.4600466 328.025600
  10697  10692  10698     1   110.2600474 425.931200
  10701  10702  10704     1   109.5600471 388.275200
  10701  10715  10719     1   109.5600471 388.275200
  10701  10715  10720     1   109.5600471 388.275200
  10702  10705  10709     1   109.5600471 388.275200
  10702  10714  10717     1   107.2600461 396.643200
  10702  10701  10703     1   109.5600471 388.275200
  10703  10701  10715     1   109.5600471 388.275200
  10703  10701  10723     1   109.7800468 425.094400
  10704  10702  10705     1   109.5600471 388.275200
  10704  10702  10714     1   110.2600474 425.931200
  10705  10706  10708     1   109.5600471 388.275200
  10705  10713  10716     1   107.2600461 396.643200
  10706  10707  10710     1   110.2200475 386.601600
  10706  10712  10718     1   107.2600461 396.643200
  10706  10705  10709     1   109.5600471 388.275200
  10707  10706  10708     1   109.5600471 388.275200
  10708  10706  10712     1   110.2600474 425.931200
  10709  10705  10713     1   110.2600474 425.931200
  10710  10707  10711     1   109.5800467 425.931200
  10710  10707  10723     1   109.5800467 425.931200
  10715  10721  10722     1   107.2600461 396.643200
  10719  10715  10721     1   110.2600474 425.931200
  10719  10715  10720     1   108.4600466 328.025600
  10720  10715  10721     1   110.2600474 425.931200
  10724  10725  10727     1   109.5600471 388.275200
  10724  10738  10742     1   109.5600471 388.275200
  10724  10738  10743     1   109.5600471 388.275200
  10725  10724  10726     1   109.5600471 388.275200
  10725  10728  10732     1   109.5600471 388.275200
  10725  10737  10740     1   107.2600461 396.643200
  10726  10724  10738     1   109.5600471 388.275200
  10726  10724  10746     1   109.7800468 425.094400
  10727  10725  10728     1   109.5600471 388.275200
  10727  10725  10737     1   110.2600474 425.931200
  10728  10729  10731     1   109.5600471 388.275200
  10728  10736  10739     1   107.2600461 396.643200
  10729  10728  10732     1   109.5600471 388.275200
  10729  10730  10733     1   110.2200475 386.601600
  10729  10735  10741     1   107.2600461 396.643200
  10730  10729  10731     1   109.5600471 388.275200
  10731  10729  10735     1   110.2600474 425.931200
  10732  10728  10736     1   110.2600474 425.931200
  10733  10730  10734     1   109.5800467 425.931200
  10733  10730  10746     1   109.5800467 425.931200
  10738  10744  10745     1   107.2600461 396.643200
  10742  10738  10744     1   110.2600474 425.931200
  10742  10738  10743     1   108.4600466 328.025600
  10743  10738  10744     1   110.2600474 425.931200
  10747  10748  10750     1   109.5600471 388.275200
  10747  10761  10765     1   109.5600471 388.275200
  10747  10761  10766     1   109.5600471 388.275200
  10748  10751  10755     1   109.5600471 388.275200
  10748  10760  10763     1   107.2600461 396.643200
  10748  10747  10749     1   109.5600471 388.275200
  10749  10747  10761     1   109.5600471 388.275200
  10749  10747  10769     1   109.7800468 425.094400
  10750  10748  10751     1   109.5600471 388.275200
  10750  10748  10760     1   110.2600474 425.931200
  10751  10752  10754     1   109.5600471 388.275200
  10751  10759  10762     1   107.2600461 396.643200
  10752  10753  10756     1   110.2200475 386.601600
  10752  10758  10764     1   107.2600461 396.643200
  10752  10751  10755     1   109.5600471 388.275200
  10753  10752  10754     1   109.5600471 388.275200
  10754  10752  10758     1   110.2600474 425.931200
  10755  10751  10759     1   110.2600474 425.931200
  10756  10753  10757     1   109.5800467 425.931200
  10756  10753  10769     1   109.5800467 425.931200
  10761  10767  10768     1   107.2600461 396.643200
  10765  10761  10767     1   110.2600474 425.931200
  10765  10761  10766     1   108.4600466 328.025600
  10766  10761  10767     1   110.2600474 425.931200
  10770  10771  10773     1   109.5600471 388.275200
  10770  10784  10788     1   109.5600471 388.275200
  10770  10784  10789     1   109.5600471 388.275200
  10771  10770  10772     1   109.5600471 388.275200
  10771  10774  10778     1   109.5600471 388.275200
  10771  10783  10786     1   107.2600461 396.643200
  10772  10770  10784     1   109.5600471 388.275200
  10772  10770  10792     1   109.7800468 425.094400
  10773  10771  10774     1   109.5600471 388.275200
  10773  10771  10783     1   110.2600474 425.931200
  10774  10775  10777     1   109.5600471 388.275200
  10774  10782  10785     1   107.2600461 396.643200
  10775  10774  10778     1   109.5600471 388.275200
  10775  10776  10779     1   110.2200475 386.601600
  10775  10781  10787     1   107.2600461 396.643200
  10776  10775  10777     1   109.5600471 388.275200
  10777  10775  10781     1   110.2600474 425.931200
  10778  10774  10782     1   110.2600474 425.931200
  10779  10776  10780     1   109.5800467 425.931200
  10779  10776  10792     1   109.5800467 425.931200
  10784  10790  10791     1   107.2600461 396.643200
  10788  10784  10790     1   110.2600474 425.931200
  10788  10784  10789     1   108.4600466 328.025600
  10789  10784  10790     1   110.2600474 425.931200
  10793  10794  10796     1   109.5600471 388.275200
  10793  10807  10811     1   109.5600471 388.275200
  10793  10807  10812     1   109.5600471 388.275200
  10794  10797  10801     1   109.5600471 388.275200
  10794  10806  10809     1   107.2600461 396.643200
  10794  10793  10795     1   109.5600471 388.275200
  10795  10793  10807     1   109.5600471 388.275200
  10795  10793  10815     1   109.7800468 425.094400
  10796  10794  10797     1   109.5600471 388.275200
  10796  10794  10806     1   110.2600474 425.931200
  10797  10798  10800     1   109.5600471 388.275200
  10797  10805  10808     1   107.2600461 396.643200
  10798  10799  10802     1   110.2200475 386.601600
  10798  10804  10810     1   107.2600461 396.643200
  10798  10797  10801     1   109.5600471 388.275200
  10799  10798  10800     1   109.5600471 388.275200
  10800  10798  10804     1   110.2600474 425.931200
  10801  10797  10805     1   110.2600474 425.931200
  10802  10799  10803     1   109.5800467 425.931200
  10802  10799  10815     1   109.5800467 425.931200
  10807  10813  10814     1   107.2600461 396.643200
  10811  10807  10813     1   110.2600474 425.931200
  10811  10807  10812     1   108.4600466 328.025600
  10812  10807  10813     1   110.2600474 425.931200
  10816  10817  10819     1   109.5600471 388.275200
  10816  10830  10834     1   109.5600471 388.275200
  10816  10830  10835     1   109.5600471 388.275200
  10817  10816  10818     1   109.5600471 388.275200
  10817  10820  10824     1   109.5600471 388.275200
  10817  10829  10832     1   107.2600461 396.643200
  10818  10816  10830     1   109.5600471 388.275200
  10818  10816  10838     1   109.7800468 425.094400
  10819  10817  10820     1   109.5600471 388.275200
  10819  10817  10829     1   110.2600474 425.931200
  10820  10821  10823     1   109.5600471 388.275200
  10820  10828  10831     1   107.2600461 396.643200
  10821  10820  10824     1   109.5600471 388.275200
  10821  10822  10825     1   110.2200475 386.601600
  10821  10827  10833     1   107.2600461 396.643200
  10822  10821  10823     1   109.5600471 388.275200
  10823  10821  10827     1   110.2600474 425.931200
  10824  10820  10828     1   110.2600474 425.931200
  10825  10822  10826     1   109.5800467 425.931200
  10825  10822  10838     1   109.5800467 425.931200
  10830  10836  10837     1   107.2600461 396.643200
  10834  10830  10836     1   110.2600474 425.931200
  10834  10830  10835     1   108.4600466 328.025600
  10835  10830  10836     1   110.2600474 425.931200
  10839  10840  10842     1   109.5600471 388.275200
  10839  10853  10857     1   109.5600471 388.275200
  10839  10853  10858     1   109.5600471 388.275200
  10840  10843  10847     1   109.5600471 388.275200
  10840  10852  10855     1   107.2600461 396.643200
  10840  10839  10841     1   109.5600471 388.275200
  10841  10839  10853     1   109.5600471 388.275200
  10841  10839  10861     1   109.7800468 425.094400
  10842  10840  10843     1   109.5600471 388.275200
  10842  10840  10852     1   110.2600474 425.931200
  10843  10844  10846     1   109.5600471 388.275200
  10843  10851  10854     1   107.2600461 396.643200
  10844  10845  10848     1   110.2200475 386.601600
  10844  10850  10856     1   107.2600461 396.643200
  10844  10843  10847     1   109.5600471 388.275200
  10845  10844  10846     1   109.5600471 388.275200
  10846  10844  10850     1   110.2600474 425.931200
  10847  10843  10851     1   110.2600474 425.931200
  10848  10845  10849     1   109.5800467 425.931200
  10848  10845  10861     1   109.5800467 425.931200
  10853  10859  10860     1   107.2600461 396.643200
  10857  10853  10859     1   110.2600474 425.931200
  10857  10853  10858     1   108.4600466 328.025600
  10858  10853  10859     1   110.2600474 425.931200
  10862  10863  10865     1   109.5600471 388.275200
  10862  10876  10880     1   109.5600471 388.275200
  10862  10876  10881     1   109.5600471 388.275200
  10863  10862  10864     1   109.5600471 388.275200
  10863  10866  10870     1   109.5600471 388.275200
  10863  10875  10878     1   107.2600461 396.643200
  10864  10862  10876     1   109.5600471 388.275200
  10864  10862  10884     1   109.7800468 425.094400
  10865  10863  10866     1   109.5600471 388.275200
  10865  10863  10875     1   110.2600474 425.931200
  10866  10867  10869     1   109.5600471 388.275200
  10866  10874  10877     1   107.2600461 396.643200
  10867  10866  10870     1   109.5600471 388.275200
  10867  10868  10871     1   110.2200475 386.601600
  10867  10873  10879     1   107.2600461 396.643200
  10868  10867  10869     1   109.5600471 388.275200
  10869  10867  10873     1   110.2600474 425.931200
  10870  10866  10874     1   110.2600474 425.931200
  10871  10868  10872     1   109.5800467 425.931200
  10871  10868  10884     1   109.5800467 425.931200
  10876  10882  10883     1   107.2600461 396.643200
  10880  10876  10882     1   110.2600474 425.931200
  10880  10876  10881     1   108.4600466 328.025600
  10881  10876  10882     1   110.2600474 425.931200
  10885  10886  10888     1   109.5600471 388.275200
  10885  10899  10903     1   109.5600471 388.275200
  10885  10899  10904     1   109.5600471 388.275200
  10886  10889  10893     1   109.5600471 388.275200
  10886  10898  10901     1   107.2600461 396.643200
  10886  10885  10887     1   109.5600471 388.275200
  10887  10885  10899     1   109.5600471 388.275200
  10887  10885  10907     1   109.7800468 425.094400
  10888  10886  10889     1   109.5600471 388.275200
  10888  10886  10898     1   110.2600474 425.931200
  10889  10890  10892     1   109.5600471 388.275200
  10889  10897  10900     1   107.2600461 396.643200
  10890  10891  10894     1   110.2200475 386.601600
  10890  10896  10902     1   107.2600461 396.643200
  10890  10889  10893     1   109.5600471 388.275200
  10891  10890  10892     1   109.5600471 388.275200
  10892  10890  10896     1   110.2600474 425.931200
  10893  10889  10897     1   110.2600474 425.931200
  10894  10891  10895     1   109.5800467 425.931200
  10894  10891  10907     1   109.5800467 425.931200
  10899  10905  10906     1   107.2600461 396.643200
  10903  10899  10905     1   110.2600474 425.931200
  10903  10899  10904     1   108.4600466 328.025600
  10904  10899  10905     1   110.2600474 425.931200
  10908  10909  10911     1   109.5600471 388.275200
  10908  10922  10926     1   109.5600471 388.275200
  10908  10922  10927     1   109.5600471 388.275200
  10909  10908  10910     1   109.5600471 388.275200
  10909  10912  10916     1   109.5600471 388.275200
  10909  10921  10924     1   107.2600461 396.643200
  10910  10908  10922     1   109.5600471 388.275200
  10910  10908  10930     1   109.7800468 425.094400
  10911  10909  10912     1   109.5600471 388.275200
  10911  10909  10921     1   110.2600474 425.931200
  10912  10913  10915     1   109.5600471 388.275200
  10912  10920  10923     1   107.2600461 396.643200
  10913  10912  10916     1   109.5600471 388.275200
  10913  10914  10917     1   110.2200475 386.601600
  10913  10919  10925     1   107.2600461 396.643200
  10914  10913  10915     1   109.5600471 388.275200
  10915  10913  10919     1   110.2600474 425.931200
  10916  10912  10920     1   110.2600474 425.931200
  10917  10914  10918     1   109.5800467 425.931200
  10917  10914  10930     1   109.5800467 425.931200
  10922  10928  10929     1   107.2600461 396.643200
  10926  10922  10928     1   110.2600474 425.931200
  10926  10922  10927     1   108.4600466 328.025600
  10927  10922  10928     1   110.2600474 425.931200
  10931  10932  10934     1   109.5600471 388.275200
  10931  10945  10949     1   109.5600471 388.275200
  10931  10945  10950     1   109.5600471 388.275200
  10932  10935  10939     1   109.5600471 388.275200
  10932  10944  10947     1   107.2600461 396.643200
  10932  10931  10933     1   109.5600471 388.275200
  10933  10931  10945     1   109.5600471 388.275200
  10933  10931  10953     1   109.7800468 425.094400
  10934  10932  10935     1   109.5600471 388.275200
  10934  10932  10944     1   110.2600474 425.931200
  10935  10936  10938     1   109.5600471 388.275200
  10935  10943  10946     1   107.2600461 396.643200
  10936  10937  10940     1   110.2200475 386.601600
  10936  10942  10948     1   107.2600461 396.643200
  10936  10935  10939     1   109.5600471 388.275200
  10937  10936  10938     1   109.5600471 388.275200
  10938  10936  10942     1   110.2600474 425.931200
  10939  10935  10943     1   110.2600474 425.931200
  10940  10937  10941     1   109.5800467 425.931200
  10940  10937  10953     1   109.5800467 425.931200
  10945  10951  10952     1   107.2600461 396.643200
  10949  10945  10951     1   110.2600474 425.931200
  10949  10945  10950     1   108.4600466 328.025600
  10950  10945  10951     1   110.2600474 425.931200
  10954  10955  10957     1   109.5600471 388.275200
  10954  10968  10972     1   109.5600471 388.275200
  10954  10968  10973     1   109.5600471 388.275200
  10955  10954  10956     1   109.5600471 388.275200
  10955  10958  10962     1   109.5600471 388.275200
  10955  10967  10970     1   107.2600461 396.643200
  10956  10954  10968     1   109.5600471 388.275200
  10956  10954  10976     1   109.7800468 425.094400
  10957  10955  10958     1   109.5600471 388.275200
  10957  10955  10967     1   110.2600474 425.931200
  10958  10959  10961     1   109.5600471 388.275200
  10958  10966  10969     1   107.2600461 396.643200
  10959  10958  10962     1   109.5600471 388.275200
  10959  10960  10963     1   110.2200475 386.601600
  10959  10965  10971     1   107.2600461 396.643200
  10960  10959  10961     1   109.5600471 388.275200
  10961  10959  10965     1   110.2600474 425.931200
  10962  10958  10966     1   110.2600474 425.931200
  10963  10960  10964     1   109.5800467 425.931200
  10963  10960  10976     1   109.5800467 425.931200
  10968  10974  10975     1   107.2600461 396.643200
  10972  10968  10974     1   110.2600474 425.931200
  10972  10968  10973     1   108.4600466 328.025600
  10973  10968  10974     1   110.2600474 425.931200
  10977  10978  10980     1   109.5600471 388.275200
  10977  10991  10995     1   109.5600471 388.275200
  10977  10991  10996     1   109.5600471 388.275200
  10978  10981  10985     1   109.5600471 388.275200
  10978  10990  10993     1   107.2600461 396.643200
  10978  10977  10979     1   109.5600471 388.275200
  10979  10977  10991     1   109.5600471 388.275200
  10979  10977  10999     1   109.7800468 425.094400
  10980  10978  10981     1   109.5600471 388.275200
  10980  10978  10990     1   110.2600474 425.931200
  10981  10982  10984     1   109.5600471 388.275200
  10981  10989  10992     1   107.2600461 396.643200
  10982  10983  10986     1   110.2200475 386.601600
  10982  10988  10994     1   107.2600461 396.643200
  10982  10981  10985     1   109.5600471 388.275200
  10983  10982  10984     1   109.5600471 388.275200
  10984  10982  10988     1   110.2600474 425.931200
  10985  10981  10989     1   110.2600474 425.931200
  10986  10983  10987     1   109.5800467 425.931200
  10986  10983  10999     1   109.5800467 425.931200
  10991  10997  10998     1   107.2600461 396.643200
  10995  10991  10997     1   110.2600474 425.931200
  10995  10991  10996     1   108.4600466 328.025600
  10996  10991  10997     1   110.2600474 425.931200
  11000  11001  11003     1   109.5600471 388.275200
  11000  11014  11018     1   109.5600471 388.275200
  11000  11014  11019     1   109.5600471 388.275200
  11001  11000  11002     1   109.5600471 388.275200
  11001  11004  11008     1   109.5600471 388.275200
  11001  11013  11016     1   107.2600461 396.643200
  11002  11000  11014     1   109.5600471 388.275200
  11002  11000  11022     1   109.7800468 425.094400
  11003  11001  11004     1   109.5600471 388.275200
  11003  11001  11013     1   110.2600474 425.931200
  11004  11005  11007     1   109.5600471 388.275200
  11004  11012  11015     1   107.2600461 396.643200
  11005  11004  11008     1   109.5600471 388.275200
  11005  11006  11009     1   110.2200475 386.601600
  11005  11011  11017     1   107.2600461 396.643200
  11006  11005  11007     1   109.5600471 388.275200
  11007  11005  11011     1   110.2600474 425.931200
  11008  11004  11012     1   110.2600474 425.931200
  11009  11006  11010     1   109.5800467 425.931200
  11009  11006  11022     1   109.5800467 425.931200
  11014  11020  11021     1   107.2600461 396.643200
  11018  11014  11020     1   110.2600474 425.931200
  11018  11014  11019     1   108.4600466 328.025600
  11019  11014  11020     1   110.2600474 425.931200
  11023  11024  11026     1   109.5600471 388.275200
  11023  11037  11041     1   109.5600471 388.275200
  11023  11037  11042     1   109.5600471 388.275200
  11024  11027  11031     1   109.5600471 388.275200
  11024  11036  11039     1   107.2600461 396.643200
  11024  11023  11025     1   109.5600471 388.275200
  11025  11023  11037     1   109.5600471 388.275200
  11025  11023  11045     1   109.7800468 425.094400
  11026  11024  11027     1   109.5600471 388.275200
  11026  11024  11036     1   110.2600474 425.931200
  11027  11028  11030     1   109.5600471 388.275200
  11027  11035  11038     1   107.2600461 396.643200
  11028  11029  11032     1   110.2200475 386.601600
  11028  11034  11040     1   107.2600461 396.643200
  11028  11027  11031     1   109.5600471 388.275200
  11029  11028  11030     1   109.5600471 388.275200
  11030  11028  11034     1   110.2600474 425.931200
  11031  11027  11035     1   110.2600474 425.931200
  11032  11029  11033     1   109.5800467 425.931200
  11032  11029  11045     1   109.5800467 425.931200
  11037  11043  11044     1   107.2600461 396.643200
  11041  11037  11043     1   110.2600474 425.931200
  11041  11037  11042     1   108.4600466 328.025600
  11042  11037  11043     1   110.2600474 425.931200
  11046  11047  11049     1   109.5600471 388.275200
  11046  11060  11064     1   109.5600471 388.275200
  11046  11060  11065     1   109.5600471 388.275200
  11047  11046  11048     1   109.5600471 388.275200
  11047  11050  11054     1   109.5600471 388.275200
  11047  11059  11062     1   107.2600461 396.643200
  11048  11046  11060     1   109.5600471 388.275200
  11048  11046  11068     1   109.7800468 425.094400
  11049  11047  11050     1   109.5600471 388.275200
  11049  11047  11059     1   110.2600474 425.931200
  11050  11051  11053     1   109.5600471 388.275200
  11050  11058  11061     1   107.2600461 396.643200
  11051  11050  11054     1   109.5600471 388.275200
  11051  11052  11055     1   110.2200475 386.601600
  11051  11057  11063     1   107.2600461 396.643200
  11052  11051  11053     1   109.5600471 388.275200
  11053  11051  11057     1   110.2600474 425.931200
  11054  11050  11058     1   110.2600474 425.931200
  11055  11052  11056     1   109.5800467 425.931200
  11055  11052  11068     1   109.5800467 425.931200
  11060  11066  11067     1   107.2600461 396.643200
  11064  11060  11066     1   110.2600474 425.931200
  11064  11060  11065     1   108.4600466 328.025600
  11065  11060  11066     1   110.2600474 425.931200
  11069  11070  11072     1   109.5600471 388.275200
  11069  11083  11087     1   109.5600471 388.275200
  11069  11083  11088     1   109.5600471 388.275200
  11070  11073  11077     1   109.5600471 388.275200
  11070  11082  11085     1   107.2600461 396.643200
  11070  11069  11071     1   109.5600471 388.275200
  11071  11069  11083     1   109.5600471 388.275200
  11071  11069  11091     1   109.7800468 425.094400
  11072  11070  11073     1   109.5600471 388.275200
  11072  11070  11082     1   110.2600474 425.931200
  11073  11074  11076     1   109.5600471 388.275200
  11073  11081  11084     1   107.2600461 396.643200
  11074  11075  11078     1   110.2200475 386.601600
  11074  11080  11086     1   107.2600461 396.643200
  11074  11073  11077     1   109.5600471 388.275200
  11075  11074  11076     1   109.5600471 388.275200
  11076  11074  11080     1   110.2600474 425.931200
  11077  11073  11081     1   110.2600474 425.931200
  11078  11075  11079     1   109.5800467 425.931200
  11078  11075  11091     1   109.5800467 425.931200
  11083  11089  11090     1   107.2600461 396.643200
  11087  11083  11089     1   110.2600474 425.931200
  11087  11083  11088     1   108.4600466 328.025600
  11088  11083  11089     1   110.2600474 425.931200
  11092  11093  11095     1   109.5600471 388.275200
  11092  11106  11110     1   109.5600471 388.275200
  11092  11106  11111     1   109.5600471 388.275200
  11093  11092  11094     1   109.5600471 388.275200
  11093  11096  11100     1   109.5600471 388.275200
  11093  11105  11108     1   107.2600461 396.643200
  11094  11092  11106     1   109.5600471 388.275200
  11094  11092  11114     1   109.7800468 425.094400
  11095  11093  11096     1   109.5600471 388.275200
  11095  11093  11105     1   110.2600474 425.931200
  11096  11097  11099     1   109.5600471 388.275200
  11096  11104  11107     1   107.2600461 396.643200
  11097  11096  11100     1   109.5600471 388.275200
  11097  11098  11101     1   110.2200475 386.601600
  11097  11103  11109     1   107.2600461 396.643200
  11098  11097  11099     1   109.5600471 388.275200
  11099  11097  11103     1   110.2600474 425.931200
  11100  11096  11104     1   110.2600474 425.931200
  11101  11098  11102     1   109.5800467 425.931200
  11101  11098  11114     1   109.5800467 425.931200
  11106  11112  11113     1   107.2600461 396.643200
  11110  11106  11112     1   110.2600474 425.931200
  11110  11106  11111     1   108.4600466 328.025600
  11111  11106  11112     1   110.2600474 425.931200
  11115  11116  11118     1   109.5600471 388.275200
  11115  11129  11133     1   109.5600471 388.275200
  11115  11129  11134     1   109.5600471 388.275200
  11116  11119  11123     1   109.5600471 388.275200
  11116  11128  11131     1   107.2600461 396.643200
  11116  11115  11117     1   109.5600471 388.275200
  11117  11115  11129     1   109.5600471 388.275200
  11117  11115  11137     1   109.7800468 425.094400
  11118  11116  11119     1   109.5600471 388.275200
  11118  11116  11128     1   110.2600474 425.931200
  11119  11120  11122     1   109.5600471 388.275200
  11119  11127  11130     1   107.2600461 396.643200
  11120  11121  11124     1   110.2200475 386.601600
  11120  11126  11132     1   107.2600461 396.643200
  11120  11119  11123     1   109.5600471 388.275200
  11121  11120  11122     1   109.5600471 388.275200
  11122  11120  11126     1   110.2600474 425.931200
  11123  11119  11127     1   110.2600474 425.931200
  11124  11121  11125     1   109.5800467 425.931200
  11124  11121  11137     1   109.5800467 425.931200
  11129  11135  11136     1   107.2600461 396.643200
  11133  11129  11135     1   110.2600474 425.931200
  11133  11129  11134     1   108.4600466 328.025600
  11134  11129  11135     1   110.2600474 425.931200
  11138  11139  11141     1   109.5600471 388.275200
  11138  11152  11156     1   109.5600471 388.275200
  11138  11152  11157     1   109.5600471 388.275200
  11139  11138  11140     1   109.5600471 388.275200
  11139  11142  11146     1   109.5600471 388.275200
  11139  11151  11154     1   107.2600461 396.643200
  11140  11138  11152     1   109.5600471 388.275200
  11140  11138  11160     1   109.7800468 425.094400
  11141  11139  11142     1   109.5600471 388.275200
  11141  11139  11151     1   110.2600474 425.931200
  11142  11143  11145     1   109.5600471 388.275200
  11142  11150  11153     1   107.2600461 396.643200
  11143  11142  11146     1   109.5600471 388.275200
  11143  11144  11147     1   110.2200475 386.601600
  11143  11149  11155     1   107.2600461 396.643200
  11144  11143  11145     1   109.5600471 388.275200
  11145  11143  11149     1   110.2600474 425.931200
  11146  11142  11150     1   110.2600474 425.931200
  11147  11144  11148     1   109.5800467 425.931200
  11147  11144  11160     1   109.5800467 425.931200
  11152  11158  11159     1   107.2600461 396.643200
  11156  11152  11158     1   110.2600474 425.931200
  11156  11152  11157     1   108.4600466 328.025600
  11157  11152  11158     1   110.2600474 425.931200
  11161  11162  11164     1   109.5600471 388.275200
  11161  11175  11179     1   109.5600471 388.275200
  11161  11175  11180     1   109.5600471 388.275200
  11162  11165  11169     1   109.5600471 388.275200
  11162  11174  11177     1   107.2600461 396.643200
  11162  11161  11163     1   109.5600471 388.275200
  11163  11161  11175     1   109.5600471 388.275200
  11163  11161  11183     1   109.7800468 425.094400
  11164  11162  11165     1   109.5600471 388.275200
  11164  11162  11174     1   110.2600474 425.931200
  11165  11166  11168     1   109.5600471 388.275200
  11165  11173  11176     1   107.2600461 396.643200
  11166  11167  11170     1   110.2200475 386.601600
  11166  11172  11178     1   107.2600461 396.643200
  11166  11165  11169     1   109.5600471 388.275200
  11167  11166  11168     1   109.5600471 388.275200
  11168  11166  11172     1   110.2600474 425.931200
  11169  11165  11173     1   110.2600474 425.931200
  11170  11167  11171     1   109.5800467 425.931200
  11170  11167  11183     1   109.5800467 425.931200
  11175  11181  11182     1   107.2600461 396.643200
  11179  11175  11181     1   110.2600474 425.931200
  11179  11175  11180     1   108.4600466 328.025600
  11180  11175  11181     1   110.2600474 425.931200
  11184  11185  11187     1   109.5600471 388.275200
  11184  11198  11202     1   109.5600471 388.275200
  11184  11198  11203     1   109.5600471 388.275200
  11185  11184  11186     1   109.5600471 388.275200
  11185  11188  11192     1   109.5600471 388.275200
  11185  11197  11200     1   107.2600461 396.643200
  11186  11184  11198     1   109.5600471 388.275200
  11186  11184  11206     1   109.7800468 425.094400
  11187  11185  11188     1   109.5600471 388.275200
  11187  11185  11197     1   110.2600474 425.931200
  11188  11189  11191     1   109.5600471 388.275200
  11188  11196  11199     1   107.2600461 396.643200
  11189  11188  11192     1   109.5600471 388.275200
  11189  11190  11193     1   110.2200475 386.601600
  11189  11195  11201     1   107.2600461 396.643200
  11190  11189  11191     1   109.5600471 388.275200
  11191  11189  11195     1   110.2600474 425.931200
  11192  11188  11196     1   110.2600474 425.931200
  11193  11190  11194     1   109.5800467 425.931200
  11193  11190  11206     1   109.5800467 425.931200
  11198  11204  11205     1   107.2600461 396.643200
  11202  11198  11204     1   110.2600474 425.931200
  11202  11198  11203     1   108.4600466 328.025600
  11203  11198  11204     1   110.2600474 425.931200
  11207  11208  11210     1   109.5600471 388.275200
  11207  11221  11225     1   109.5600471 388.275200
  11207  11221  11226     1   109.5600471 388.275200
  11208  11211  11215     1   109.5600471 388.275200
  11208  11220  11223     1   107.2600461 396.643200
  11208  11207  11209     1   109.5600471 388.275200
  11209  11207  11221     1   109.5600471 388.275200
  11209  11207  11229     1   109.7800468 425.094400
  11210  11208  11211     1   109.5600471 388.275200
  11210  11208  11220     1   110.2600474 425.931200
  11211  11212  11214     1   109.5600471 388.275200
  11211  11219  11222     1   107.2600461 396.643200
  11212  11213  11216     1   110.2200475 386.601600
  11212  11218  11224     1   107.2600461 396.643200
  11212  11211  11215     1   109.5600471 388.275200
  11213  11212  11214     1   109.5600471 388.275200
  11214  11212  11218     1   110.2600474 425.931200
  11215  11211  11219     1   110.2600474 425.931200
  11216  11213  11217     1   109.5800467 425.931200
  11216  11213  11229     1   109.5800467 425.931200
  11221  11227  11228     1   107.2600461 396.643200
  11225  11221  11227     1   110.2600474 425.931200
  11225  11221  11226     1   108.4600466 328.025600
  11226  11221  11227     1   110.2600474 425.931200
  11230  11231  11233     1   109.5600471 388.275200
  11230  11244  11248     1   109.5600471 388.275200
  11230  11244  11249     1   109.5600471 388.275200
  11231  11230  11232     1   109.5600471 388.275200
  11231  11234  11238     1   109.5600471 388.275200
  11231  11243  11246     1   107.2600461 396.643200
  11232  11230  11244     1   109.5600471 388.275200
  11232  11230  11252     1   109.7800468 425.094400
  11233  11231  11234     1   109.5600471 388.275200
  11233  11231  11243     1   110.2600474 425.931200
  11234  11235  11237     1   109.5600471 388.275200
  11234  11242  11245     1   107.2600461 396.643200
  11235  11234  11238     1   109.5600471 388.275200
  11235  11236  11239     1   110.2200475 386.601600
  11235  11241  11247     1   107.2600461 396.643200
  11236  11235  11237     1   109.5600471 388.275200
  11237  11235  11241     1   110.2600474 425.931200
  11238  11234  11242     1   110.2600474 425.931200
  11239  11236  11240     1   109.5800467 425.931200
  11239  11236  11252     1   109.5800467 425.931200
  11244  11250  11251     1   107.2600461 396.643200
  11248  11244  11250     1   110.2600474 425.931200
  11248  11244  11249     1   108.4600466 328.025600
  11249  11244  11250     1   110.2600474 425.931200
  11253  11254  11256     1   109.5600471 388.275200
  11253  11267  11271     1   109.5600471 388.275200
  11253  11267  11272     1   109.5600471 388.275200
  11254  11257  11261     1   109.5600471 388.275200
  11254  11266  11269     1   107.2600461 396.643200
  11254  11253  11255     1   109.5600471 388.275200
  11255  11253  11267     1   109.5600471 388.275200
  11255  11253  11275     1   109.7800468 425.094400
  11256  11254  11257     1   109.5600471 388.275200
  11256  11254  11266     1   110.2600474 425.931200
  11257  11258  11260     1   109.5600471 388.275200
  11257  11265  11268     1   107.2600461 396.643200
  11258  11259  11262     1   110.2200475 386.601600
  11258  11264  11270     1   107.2600461 396.643200
  11258  11257  11261     1   109.5600471 388.275200
  11259  11258  11260     1   109.5600471 388.275200
  11260  11258  11264     1   110.2600474 425.931200
  11261  11257  11265     1   110.2600474 425.931200
  11262  11259  11263     1   109.5800467 425.931200
  11262  11259  11275     1   109.5800467 425.931200
  11267  11273  11274     1   107.2600461 396.643200
  11271  11267  11273     1   110.2600474 425.931200
  11271  11267  11272     1   108.4600466 328.025600
  11272  11267  11273     1   110.2600474 425.931200
  11276  11277  11279     1   109.5600471 388.275200
  11276  11290  11294     1   109.5600471 388.275200
  11276  11290  11295     1   109.5600471 388.275200
  11277  11276  11278     1   109.5600471 388.275200
  11277  11280  11284     1   109.5600471 388.275200
  11277  11289  11292     1   107.2600461 396.643200
  11278  11276  11290     1   109.5600471 388.275200
  11278  11276  11298     1   109.7800468 425.094400
  11279  11277  11280     1   109.5600471 388.275200
  11279  11277  11289     1   110.2600474 425.931200
  11280  11281  11283     1   109.5600471 388.275200
  11280  11288  11291     1   107.2600461 396.643200
  11281  11280  11284     1   109.5600471 388.275200
  11281  11282  11285     1   110.2200475 386.601600
  11281  11287  11293     1   107.2600461 396.643200
  11282  11281  11283     1   109.5600471 388.275200
  11283  11281  11287     1   110.2600474 425.931200
  11284  11280  11288     1   110.2600474 425.931200
  11285  11282  11286     1   109.5800467 425.931200
  11285  11282  11298     1   109.5800467 425.931200
  11290  11296  11297     1   107.2600461 396.643200
  11294  11290  11296     1   110.2600474 425.931200
  11294  11290  11295     1   108.4600466 328.025600
  11295  11290  11296     1   110.2600474 425.931200
  11299  11300  11302     1   109.5600471 388.275200
  11299  11313  11317     1   109.5600471 388.275200
  11299  11313  11318     1   109.5600471 388.275200
  11300  11303  11307     1   109.5600471 388.275200
  11300  11312  11315     1   107.2600461 396.643200
  11300  11299  11301     1   109.5600471 388.275200
  11301  11299  11313     1   109.5600471 388.275200
  11301  11299  11321     1   109.7800468 425.094400
  11302  11300  11303     1   109.5600471 388.275200
  11302  11300  11312     1   110.2600474 425.931200
  11303  11304  11306     1   109.5600471 388.275200
  11303  11311  11314     1   107.2600461 396.643200
  11304  11305  11308     1   110.2200475 386.601600
  11304  11310  11316     1   107.2600461 396.643200
  11304  11303  11307     1   109.5600471 388.275200
  11305  11304  11306     1   109.5600471 388.275200
  11306  11304  11310     1   110.2600474 425.931200
  11307  11303  11311     1   110.2600474 425.931200
  11308  11305  11309     1   109.5800467 425.931200
  11308  11305  11321     1   109.5800467 425.931200
  11313  11319  11320     1   107.2600461 396.643200
  11317  11313  11319     1   110.2600474 425.931200
  11317  11313  11318     1   108.4600466 328.025600
  11318  11313  11319     1   110.2600474 425.931200
  11322  11323  11325     1   109.5600471 388.275200
  11322  11336  11340     1   109.5600471 388.275200
  11322  11336  11341     1   109.5600471 388.275200
  11323  11322  11324     1   109.5600471 388.275200
  11323  11326  11330     1   109.5600471 388.275200
  11323  11335  11338     1   107.2600461 396.643200
  11324  11322  11336     1   109.5600471 388.275200
  11324  11322  11344     1   109.7800468 425.094400
  11325  11323  11326     1   109.5600471 388.275200
  11325  11323  11335     1   110.2600474 425.931200
  11326  11327  11329     1   109.5600471 388.275200
  11326  11334  11337     1   107.2600461 396.643200
  11327  11326  11330     1   109.5600471 388.275200
  11327  11328  11331     1   110.2200475 386.601600
  11327  11333  11339     1   107.2600461 396.643200
  11328  11327  11329     1   109.5600471 388.275200
  11329  11327  11333     1   110.2600474 425.931200
  11330  11326  11334     1   110.2600474 425.931200
  11331  11328  11332     1   109.5800467 425.931200
  11331  11328  11344     1   109.5800467 425.931200
  11336  11342  11343     1   107.2600461 396.643200
  11340  11336  11342     1   110.2600474 425.931200
  11340  11336  11341     1   108.4600466 328.025600
  11341  11336  11342     1   110.2600474 425.931200
  11345  11346  11348     1   109.5600471 388.275200
  11345  11359  11363     1   109.5600471 388.275200
  11345  11359  11364     1   109.5600471 388.275200
  11346  11349  11353     1   109.5600471 388.275200
  11346  11358  11361     1   107.2600461 396.643200
  11346  11345  11347     1   109.5600471 388.275200
  11347  11345  11359     1   109.5600471 388.275200
  11347  11345  11367     1   109.7800468 425.094400
  11348  11346  11349     1   109.5600471 388.275200
  11348  11346  11358     1   110.2600474 425.931200
  11349  11350  11352     1   109.5600471 388.275200
  11349  11357  11360     1   107.2600461 396.643200
  11350  11351  11354     1   110.2200475 386.601600
  11350  11356  11362     1   107.2600461 396.643200
  11350  11349  11353     1   109.5600471 388.275200
  11351  11350  11352     1   109.5600471 388.275200
  11352  11350  11356     1   110.2600474 425.931200
  11353  11349  11357     1   110.2600474 425.931200
  11354  11351  11355     1   109.5800467 425.931200
  11354  11351  11367     1   109.5800467 425.931200
  11359  11365  11366     1   107.2600461 396.643200
  11363  11359  11365     1   110.2600474 425.931200
  11363  11359  11364     1   108.4600466 328.025600
  11364  11359  11365     1   110.2600474 425.931200
  11368  11369  11371     1   109.5600471 388.275200
  11368  11382  11386     1   109.5600471 388.275200
  11368  11382  11387     1   109.5600471 388.275200
  11369  11368  11370     1   109.5600471 388.275200
  11369  11372  11376     1   109.5600471 388.275200
  11369  11381  11384     1   107.2600461 396.643200
  11370  11368  11382     1   109.5600471 388.275200
  11370  11368  11390     1   109.7800468 425.094400
  11371  11369  11372     1   109.5600471 388.275200
  11371  11369  11381     1   110.2600474 425.931200
  11372  11373  11375     1   109.5600471 388.275200
  11372  11380  11383     1   107.2600461 396.643200
  11373  11372  11376     1   109.5600471 388.275200
  11373  11374  11377     1   110.2200475 386.601600
  11373  11379  11385     1   107.2600461 396.643200
  11374  11373  11375     1   109.5600471 388.275200
  11375  11373  11379     1   110.2600474 425.931200
  11376  11372  11380     1   110.2600474 425.931200
  11377  11374  11378     1   109.5800467 425.931200
  11377  11374  11390     1   109.5800467 425.931200
  11382  11388  11389     1   107.2600461 396.643200
  11386  11382  11388     1   110.2600474 425.931200
  11386  11382  11387     1   108.4600466 328.025600
  11387  11382  11388     1   110.2600474 425.931200
  11391  11392  11394     1   109.5600471 388.275200
  11391  11405  11409     1   109.5600471 388.275200
  11391  11405  11410     1   109.5600471 388.275200
  11392  11395  11399     1   109.5600471 388.275200
  11392  11404  11407     1   107.2600461 396.643200
  11392  11391  11393     1   109.5600471 388.275200
  11393  11391  11405     1   109.5600471 388.275200
  11393  11391  11413     1   109.7800468 425.094400
  11394  11392  11395     1   109.5600471 388.275200
  11394  11392  11404     1   110.2600474 425.931200
  11395  11396  11398     1   109.5600471 388.275200
  11395  11403  11406     1   107.2600461 396.643200
  11396  11397  11400     1   110.2200475 386.601600
  11396  11402  11408     1   107.2600461 396.643200
  11396  11395  11399     1   109.5600471 388.275200
  11397  11396  11398     1   109.5600471 388.275200
  11398  11396  11402     1   110.2600474 425.931200
  11399  11395  11403     1   110.2600474 425.931200
  11400  11397  11401     1   109.5800467 425.931200
  11400  11397  11413     1   109.5800467 425.931200
  11405  11411  11412     1   107.2600461 396.643200
  11409  11405  11411     1   110.2600474 425.931200
  11409  11405  11410     1   108.4600466 328.025600
  11410  11405  11411     1   110.2600474 425.931200
  11414  11415  11417     1   109.5600471 388.275200
  11414  11428  11432     1   109.5600471 388.275200
  11414  11428  11433     1   109.5600471 388.275200
  11415  11414  11416     1   109.5600471 388.275200
  11415  11418  11422     1   109.5600471 388.275200
  11415  11427  11430     1   107.2600461 396.643200
  11416  11414  11428     1   109.5600471 388.275200
  11416  11414  11436     1   109.7800468 425.094400
  11417  11415  11418     1   109.5600471 388.275200
  11417  11415  11427     1   110.2600474 425.931200
  11418  11419  11421     1   109.5600471 388.275200
  11418  11426  11429     1   107.2600461 396.643200
  11419  11418  11422     1   109.5600471 388.275200
  11419  11420  11423     1   110.2200475 386.601600
  11419  11425  11431     1   107.2600461 396.643200
  11420  11419  11421     1   109.5600471 388.275200
  11421  11419  11425     1   110.2600474 425.931200
  11422  11418  11426     1   110.2600474 425.931200
  11423  11420  11424     1   109.5800467 425.931200
  11423  11420  11436     1   109.5800467 425.931200
  11428  11434  11435     1   107.2600461 396.643200
  11432  11428  11434     1   110.2600474 425.931200
  11432  11428  11433     1   108.4600466 328.025600
  11433  11428  11434     1   110.2600474 425.931200
  11437  11438  11440     1   109.5600471 388.275200
  11437  11451  11455     1   109.5600471 388.275200
  11437  11451  11456     1   109.5600471 388.275200
  11438  11441  11445     1   109.5600471 388.275200
  11438  11450  11453     1   107.2600461 396.643200
  11438  11437  11439     1   109.5600471 388.275200
  11439  11437  11451     1   109.5600471 388.275200
  11439  11437  11459     1   109.7800468 425.094400
  11440  11438  11441     1   109.5600471 388.275200
  11440  11438  11450     1   110.2600474 425.931200
  11441  11442  11444     1   109.5600471 388.275200
  11441  11449  11452     1   107.2600461 396.643200
  11442  11443  11446     1   110.2200475 386.601600
  11442  11448  11454     1   107.2600461 396.643200
  11442  11441  11445     1   109.5600471 388.275200
  11443  11442  11444     1   109.5600471 388.275200
  11444  11442  11448     1   110.2600474 425.931200
  11445  11441  11449     1   110.2600474 425.931200
  11446  11443  11447     1   109.5800467 425.931200
  11446  11443  11459     1   109.5800467 425.931200
  11451  11457  11458     1   107.2600461 396.643200
  11455  11451  11457     1   110.2600474 425.931200
  11455  11451  11456     1   108.4600466 328.025600
  11456  11451  11457     1   110.2600474 425.931200
  11460  11461  11463     1   109.5600471 388.275200
  11460  11474  11478     1   109.5600471 388.275200
  11460  11474  11479     1   109.5600471 388.275200
  11461  11460  11462     1   109.5600471 388.275200
  11461  11464  11468     1   109.5600471 388.275200
  11461  11473  11476     1   107.2600461 396.643200
  11462  11460  11474     1   109.5600471 388.275200
  11462  11460  11482     1   109.7800468 425.094400
  11463  11461  11464     1   109.5600471 388.275200
  11463  11461  11473     1   110.2600474 425.931200
  11464  11465  11467     1   109.5600471 388.275200
  11464  11472  11475     1   107.2600461 396.643200
  11465  11464  11468     1   109.5600471 388.275200
  11465  11466  11469     1   110.2200475 386.601600
  11465  11471  11477     1   107.2600461 396.643200
  11466  11465  11467     1   109.5600471 388.275200
  11467  11465  11471     1   110.2600474 425.931200
  11468  11464  11472     1   110.2600474 425.931200
  11469  11466  11470     1   109.5800467 425.931200
  11469  11466  11482     1   109.5800467 425.931200
  11474  11480  11481     1   107.2600461 396.643200
  11478  11474  11480     1   110.2600474 425.931200
  11478  11474  11479     1   108.4600466 328.025600
  11479  11474  11480     1   110.2600474 425.931200
  11483  11484  11486     1   109.5600471 388.275200
  11483  11497  11501     1   109.5600471 388.275200
  11483  11497  11502     1   109.5600471 388.275200
  11484  11487  11491     1   109.5600471 388.275200
  11484  11496  11499     1   107.2600461 396.643200
  11484  11483  11485     1   109.5600471 388.275200
  11485  11483  11497     1   109.5600471 388.275200
  11485  11483  11505     1   109.7800468 425.094400
  11486  11484  11487     1   109.5600471 388.275200
  11486  11484  11496     1   110.2600474 425.931200
  11487  11488  11490     1   109.5600471 388.275200
  11487  11495  11498     1   107.2600461 396.643200
  11488  11489  11492     1   110.2200475 386.601600
  11488  11494  11500     1   107.2600461 396.643200
  11488  11487  11491     1   109.5600471 388.275200
  11489  11488  11490     1   109.5600471 388.275200
  11490  11488  11494     1   110.2600474 425.931200
  11491  11487  11495     1   110.2600474 425.931200
  11492  11489  11493     1   109.5800467 425.931200
  11492  11489  11505     1   109.5800467 425.931200
  11497  11503  11504     1   107.2600461 396.643200
  11501  11497  11503     1   110.2600474 425.931200
  11501  11497  11502     1   108.4600466 328.025600
  11502  11497  11503     1   110.2600474 425.931200
  11506  11507  11509     1   109.5600471 388.275200
  11506  11520  11524     1   109.5600471 388.275200
  11506  11520  11525     1   109.5600471 388.275200
  11507  11506  11508     1   109.5600471 388.275200
  11507  11510  11514     1   109.5600471 388.275200
  11507  11519  11522     1   107.2600461 396.643200
  11508  11506  11520     1   109.5600471 388.275200
  11508  11506  11528     1   109.7800468 425.094400
  11509  11507  11510     1   109.5600471 388.275200
  11509  11507  11519     1   110.2600474 425.931200
  11510  11511  11513     1   109.5600471 388.275200
  11510  11518  11521     1   107.2600461 396.643200
  11511  11510  11514     1   109.5600471 388.275200
  11511  11512  11515     1   110.2200475 386.601600
  11511  11517  11523     1   107.2600461 396.643200
  11512  11511  11513     1   109.5600471 388.275200
  11513  11511  11517     1   110.2600474 425.931200
  11514  11510  11518     1   110.2600474 425.931200
  11515  11512  11516     1   109.5800467 425.931200
  11515  11512  11528     1   109.5800467 425.931200
  11520  11526  11527     1   107.2600461 396.643200
  11524  11520  11526     1   110.2600474 425.931200
  11524  11520  11525     1   108.4600466 328.025600
  11525  11520  11526     1   110.2600474 425.931200
  11529  11530  11532     1   109.5600471 388.275200
  11529  11543  11547     1   109.5600471 388.275200
  11529  11543  11548     1   109.5600471 388.275200
  11530  11533  11537     1   109.5600471 388.275200
  11530  11542  11545     1   107.2600461 396.643200
  11530  11529  11531     1   109.5600471 388.275200
  11531  11529  11543     1   109.5600471 388.275200
  11531  11529  11551     1   109.7800468 425.094400
  11532  11530  11533     1   109.5600471 388.275200
  11532  11530  11542     1   110.2600474 425.931200
  11533  11534  11536     1   109.5600471 388.275200
  11533  11541  11544     1   107.2600461 396.643200
  11534  11535  11538     1   110.2200475 386.601600
  11534  11540  11546     1   107.2600461 396.643200
  11534  11533  11537     1   109.5600471 388.275200
  11535  11534  11536     1   109.5600471 388.275200
  11536  11534  11540     1   110.2600474 425.931200
  11537  11533  11541     1   110.2600474 425.931200
  11538  11535  11539     1   109.5800467 425.931200
  11538  11535  11551     1   109.5800467 425.931200
  11543  11549  11550     1   107.2600461 396.643200
  11547  11543  11549     1   110.2600474 425.931200
  11547  11543  11548     1   108.4600466 328.025600
  11548  11543  11549     1   110.2600474 425.931200
  11552  11553  11555     1   109.5600471 388.275200
  11552  11566  11570     1   109.5600471 388.275200
  11552  11566  11571     1   109.5600471 388.275200
  11553  11552  11554     1   109.5600471 388.275200
  11553  11556  11560     1   109.5600471 388.275200
  11553  11565  11568     1   107.2600461 396.643200
  11554  11552  11566     1   109.5600471 388.275200
  11554  11552  11574     1   109.7800468 425.094400
  11555  11553  11556     1   109.5600471 388.275200
  11555  11553  11565     1   110.2600474 425.931200
  11556  11557  11559     1   109.5600471 388.275200
  11556  11564  11567     1   107.2600461 396.643200
  11557  11556  11560     1   109.5600471 388.275200
  11557  11558  11561     1   110.2200475 386.601600
  11557  11563  11569     1   107.2600461 396.643200
  11558  11557  11559     1   109.5600471 388.275200
  11559  11557  11563     1   110.2600474 425.931200
  11560  11556  11564     1   110.2600474 425.931200
  11561  11558  11562     1   109.5800467 425.931200
  11561  11558  11574     1   109.5800467 425.931200
  11566  11572  11573     1   107.2600461 396.643200
  11570  11566  11572     1   110.2600474 425.931200
  11570  11566  11571     1   108.4600466 328.025600
  11571  11566  11572     1   110.2600474 425.931200
  11575  11576  11578     1   109.5600471 388.275200
  11575  11589  11593     1   109.5600471 388.275200
  11575  11589  11594     1   109.5600471 388.275200
  11576  11579  11583     1   109.5600471 388.275200
  11576  11588  11591     1   107.2600461 396.643200
  11576  11575  11577     1   109.5600471 388.275200
  11577  11575  11589     1   109.5600471 388.275200
  11577  11575  11597     1   109.7800468 425.094400
  11578  11576  11579     1   109.5600471 388.275200
  11578  11576  11588     1   110.2600474 425.931200
  11579  11580  11582     1   109.5600471 388.275200
  11579  11587  11590     1   107.2600461 396.643200
  11580  11581  11584     1   110.2200475 386.601600
  11580  11586  11592     1   107.2600461 396.643200
  11580  11579  11583     1   109.5600471 388.275200
  11581  11580  11582     1   109.5600471 388.275200
  11582  11580  11586     1   110.2600474 425.931200
  11583  11579  11587     1   110.2600474 425.931200
  11584  11581  11585     1   109.5800467 425.931200
  11584  11581  11597     1   109.5800467 425.931200
  11589  11595  11596     1   107.2600461 396.643200
  11593  11589  11595     1   110.2600474 425.931200
  11593  11589  11594     1   108.4600466 328.025600
  11594  11589  11595     1   110.2600474 425.931200
  11598  11599  11601     1   109.5600471 388.275200
  11598  11612  11616     1   109.5600471 388.275200
  11598  11612  11617     1   109.5600471 388.275200
  11599  11598  11600     1   109.5600471 388.275200
  11599  11602  11606     1   109.5600471 388.275200
  11599  11611  11614     1   107.2600461 396.643200
  11600  11598  11612     1   109.5600471 388.275200
  11600  11598  11620     1   109.7800468 425.094400
  11601  11599  11602     1   109.5600471 388.275200
  11601  11599  11611     1   110.2600474 425.931200
  11602  11603  11605     1   109.5600471 388.275200
  11602  11610  11613     1   107.2600461 396.643200
  11603  11602  11606     1   109.5600471 388.275200
  11603  11604  11607     1   110.2200475 386.601600
  11603  11609  11615     1   107.2600461 396.643200
  11604  11603  11605     1   109.5600471 388.275200
  11605  11603  11609     1   110.2600474 425.931200
  11606  11602  11610     1   110.2600474 425.931200
  11607  11604  11608     1   109.5800467 425.931200
  11607  11604  11620     1   109.5800467 425.931200
  11612  11618  11619     1   107.2600461 396.643200
  11616  11612  11618     1   110.2600474 425.931200
  11616  11612  11617     1   108.4600466 328.025600
  11617  11612  11618     1   110.2600474 425.931200
  11621  11622  11624     1   109.5600471 388.275200
  11621  11635  11639     1   109.5600471 388.275200
  11621  11635  11640     1   109.5600471 388.275200
  11622  11625  11629     1   109.5600471 388.275200
  11622  11634  11637     1   107.2600461 396.643200
  11622  11621  11623     1   109.5600471 388.275200
  11623  11621  11635     1   109.5600471 388.275200
  11623  11621  11643     1   109.7800468 425.094400
  11624  11622  11625     1   109.5600471 388.275200
  11624  11622  11634     1   110.2600474 425.931200
  11625  11626  11628     1   109.5600471 388.275200
  11625  11633  11636     1   107.2600461 396.643200
  11626  11627  11630     1   110.2200475 386.601600
  11626  11632  11638     1   107.2600461 396.643200
  11626  11625  11629     1   109.5600471 388.275200
  11627  11626  11628     1   109.5600471 388.275200
  11628  11626  11632     1   110.2600474 425.931200
  11629  11625  11633     1   110.2600474 425.931200
  11630  11627  11631     1   109.5800467 425.931200
  11630  11627  11643     1   109.5800467 425.931200
  11635  11641  11642     1   107.2600461 396.643200
  11639  11635  11641     1   110.2600474 425.931200
  11639  11635  11640     1   108.4600466 328.025600
  11640  11635  11641     1   110.2600474 425.931200
  11644  11645  11647     1   109.5600471 388.275200
  11644  11658  11662     1   109.5600471 388.275200
  11644  11658  11663     1   109.5600471 388.275200
  11645  11644  11646     1   109.5600471 388.275200
  11645  11648  11652     1   109.5600471 388.275200
  11645  11657  11660     1   107.2600461 396.643200
  11646  11644  11658     1   109.5600471 388.275200
  11646  11644  11666     1   109.7800468 425.094400
  11647  11645  11648     1   109.5600471 388.275200
  11647  11645  11657     1   110.2600474 425.931200
  11648  11649  11651     1   109.5600471 388.275200
  11648  11656  11659     1   107.2600461 396.643200
  11649  11648  11652     1   109.5600471 388.275200
  11649  11650  11653     1   110.2200475 386.601600
  11649  11655  11661     1   107.2600461 396.643200
  11650  11649  11651     1   109.5600471 388.275200
  11651  11649  11655     1   110.2600474 425.931200
  11652  11648  11656     1   110.2600474 425.931200
  11653  11650  11654     1   109.5800467 425.931200
  11653  11650  11666     1   109.5800467 425.931200
  11658  11664  11665     1   107.2600461 396.643200
  11662  11658  11664     1   110.2600474 425.931200
  11662  11658  11663     1   108.4600466 328.025600
  11663  11658  11664     1   110.2600474 425.931200
  11667  11668  11670     1   109.5600471 388.275200
  11667  11681  11685     1   109.5600471 388.275200
  11667  11681  11686     1   109.5600471 388.275200
  11668  11671  11675     1   109.5600471 388.275200
  11668  11680  11683     1   107.2600461 396.643200
  11668  11667  11669     1   109.5600471 388.275200
  11669  11667  11681     1   109.5600471 388.275200
  11669  11667  11689     1   109.7800468 425.094400
  11670  11668  11671     1   109.5600471 388.275200
  11670  11668  11680     1   110.2600474 425.931200
  11671  11672  11674     1   109.5600471 388.275200
  11671  11679  11682     1   107.2600461 396.643200
  11672  11673  11676     1   110.2200475 386.601600
  11672  11678  11684     1   107.2600461 396.643200
  11672  11671  11675     1   109.5600471 388.275200
  11673  11672  11674     1   109.5600471 388.275200
  11674  11672  11678     1   110.2600474 425.931200
  11675  11671  11679     1   110.2600474 425.931200
  11676  11673  11677     1   109.5800467 425.931200
  11676  11673  11689     1   109.5800467 425.931200
  11681  11687  11688     1   107.2600461 396.643200
  11685  11681  11687     1   110.2600474 425.931200
  11685  11681  11686     1   108.4600466 328.025600
  11686  11681  11687     1   110.2600474 425.931200
  11690  11691  11693     1   109.5600471 388.275200
  11690  11704  11708     1   109.5600471 388.275200
  11690  11704  11709     1   109.5600471 388.275200
  11691  11690  11692     1   109.5600471 388.275200
  11691  11694  11698     1   109.5600471 388.275200
  11691  11703  11706     1   107.2600461 396.643200
  11692  11690  11704     1   109.5600471 388.275200
  11692  11690  11712     1   109.7800468 425.094400
  11693  11691  11694     1   109.5600471 388.275200
  11693  11691  11703     1   110.2600474 425.931200
  11694  11695  11697     1   109.5600471 388.275200
  11694  11702  11705     1   107.2600461 396.643200
  11695  11694  11698     1   109.5600471 388.275200
  11695  11696  11699     1   110.2200475 386.601600
  11695  11701  11707     1   107.2600461 396.643200
  11696  11695  11697     1   109.5600471 388.275200
  11697  11695  11701     1   110.2600474 425.931200
  11698  11694  11702     1   110.2600474 425.931200
  11699  11696  11700     1   109.5800467 425.931200
  11699  11696  11712     1   109.5800467 425.931200
  11704  11710  11711     1   107.2600461 396.643200
  11708  11704  11710     1   110.2600474 425.931200
  11708  11704  11709     1   108.4600466 328.025600
  11709  11704  11710     1   110.2600474 425.931200
  11713  11714  11716     1   109.5600471 388.275200
  11713  11727  11731     1   109.5600471 388.275200
  11713  11727  11732     1   109.5600471 388.275200
  11714  11717  11721     1   109.5600471 388.275200
  11714  11726  11729     1   107.2600461 396.643200
  11714  11713  11715     1   109.5600471 388.275200
  11715  11713  11727     1   109.5600471 388.275200
  11715  11713  11735     1   109.7800468 425.094400
  11716  11714  11717     1   109.5600471 388.275200
  11716  11714  11726     1   110.2600474 425.931200
  11717  11718  11720     1   109.5600471 388.275200
  11717  11725  11728     1   107.2600461 396.643200
  11718  11719  11722     1   110.2200475 386.601600
  11718  11724  11730     1   107.2600461 396.643200
  11718  11717  11721     1   109.5600471 388.275200
  11719  11718  11720     1   109.5600471 388.275200
  11720  11718  11724     1   110.2600474 425.931200
  11721  11717  11725     1   110.2600474 425.931200
  11722  11719  11723     1   109.5800467 425.931200
  11722  11719  11735     1   109.5800467 425.931200
  11727  11733  11734     1   107.2600461 396.643200
  11731  11727  11733     1   110.2600474 425.931200
  11731  11727  11732     1   108.4600466 328.025600
  11732  11727  11733     1   110.2600474 425.931200
  11736  11737  11739     1   109.5600471 388.275200
  11736  11750  11754     1   109.5600471 388.275200
  11736  11750  11755     1   109.5600471 388.275200
  11737  11736  11738     1   109.5600471 388.275200
  11737  11740  11744     1   109.5600471 388.275200
  11737  11749  11752     1   107.2600461 396.643200
  11738  11736  11750     1   109.5600471 388.275200
  11738  11736  11758     1   109.7800468 425.094400
  11739  11737  11740     1   109.5600471 388.275200
  11739  11737  11749     1   110.2600474 425.931200
  11740  11741  11743     1   109.5600471 388.275200
  11740  11748  11751     1   107.2600461 396.643200
  11741  11740  11744     1   109.5600471 388.275200
  11741  11742  11745     1   110.2200475 386.601600
  11741  11747  11753     1   107.2600461 396.643200
  11742  11741  11743     1   109.5600471 388.275200
  11743  11741  11747     1   110.2600474 425.931200
  11744  11740  11748     1   110.2600474 425.931200
  11745  11742  11746     1   109.5800467 425.931200
  11745  11742  11758     1   109.5800467 425.931200
  11750  11756  11757     1   107.2600461 396.643200
  11754  11750  11756     1   110.2600474 425.931200
  11754  11750  11755     1   108.4600466 328.025600
  11755  11750  11756     1   110.2600474 425.931200
  11759  11760  11762     1   109.5600471 388.275200
  11759  11773  11777     1   109.5600471 388.275200
  11759  11773  11778     1   109.5600471 388.275200
  11760  11763  11767     1   109.5600471 388.275200
  11760  11772  11775     1   107.2600461 396.643200
  11760  11759  11761     1   109.5600471 388.275200
  11761  11759  11773     1   109.5600471 388.275200
  11761  11759  11781     1   109.7800468 425.094400
  11762  11760  11763     1   109.5600471 388.275200
  11762  11760  11772     1   110.2600474 425.931200
  11763  11764  11766     1   109.5600471 388.275200
  11763  11771  11774     1   107.2600461 396.643200
  11764  11765  11768     1   110.2200475 386.601600
  11764  11770  11776     1   107.2600461 396.643200
  11764  11763  11767     1   109.5600471 388.275200
  11765  11764  11766     1   109.5600471 388.275200
  11766  11764  11770     1   110.2600474 425.931200
  11767  11763  11771     1   110.2600474 425.931200
  11768  11765  11769     1   109.5800467 425.931200
  11768  11765  11781     1   109.5800467 425.931200
  11773  11779  11780     1   107.2600461 396.643200
  11777  11773  11779     1   110.2600474 425.931200
  11777  11773  11778     1   108.4600466 328.025600
  11778  11773  11779     1   110.2600474 425.931200
  11782  11783  11785     1   109.5600471 388.275200
  11782  11796  11800     1   109.5600471 388.275200
  11782  11796  11801     1   109.5600471 388.275200
  11783  11782  11784     1   109.5600471 388.275200
  11783  11786  11790     1   109.5600471 388.275200
  11783  11795  11798     1   107.2600461 396.643200
  11784  11782  11796     1   109.5600471 388.275200
  11784  11782  11804     1   109.7800468 425.094400
  11785  11783  11786     1   109.5600471 388.275200
  11785  11783  11795     1   110.2600474 425.931200
  11786  11787  11789     1   109.5600471 388.275200
  11786  11794  11797     1   107.2600461 396.643200
  11787  11786  11790     1   109.5600471 388.275200
  11787  11788  11791     1   110.2200475 386.601600
  11787  11793  11799     1   107.2600461 396.643200
  11788  11787  11789     1   109.5600471 388.275200
  11789  11787  11793     1   110.2600474 425.931200
  11790  11786  11794     1   110.2600474 425.931200
  11791  11788  11792     1   109.5800467 425.931200
  11791  11788  11804     1   109.5800467 425.931200
  11796  11802  11803     1   107.2600461 396.643200
  11800  11796  11802     1   110.2600474 425.931200
  11800  11796  11801     1   108.4600466 328.025600
  11801  11796  11802     1   110.2600474 425.931200
  11805  11806  11808     1   109.5600471 388.275200
  11805  11819  11823     1   109.5600471 388.275200
  11805  11819  11824     1   109.5600471 388.275200
  11806  11809  11813     1   109.5600471 388.275200
  11806  11818  11821     1   107.2600461 396.643200
  11806  11805  11807     1   109.5600471 388.275200
  11807  11805  11819     1   109.5600471 388.275200
  11807  11805  11827     1   109.7800468 425.094400
  11808  11806  11809     1   109.5600471 388.275200
  11808  11806  11818     1   110.2600474 425.931200
  11809  11810  11812     1   109.5600471 388.275200
  11809  11817  11820     1   107.2600461 396.643200
  11810  11811  11814     1   110.2200475 386.601600
  11810  11816  11822     1   107.2600461 396.643200
  11810  11809  11813     1   109.5600471 388.275200
  11811  11810  11812     1   109.5600471 388.275200
  11812  11810  11816     1   110.2600474 425.931200
  11813  11809  11817     1   110.2600474 425.931200
  11814  11811  11815     1   109.5800467 425.931200
  11814  11811  11827     1   109.5800467 425.931200
  11819  11825  11826     1   107.2600461 396.643200
  11823  11819  11825     1   110.2600474 425.931200
  11823  11819  11824     1   108.4600466 328.025600
  11824  11819  11825     1   110.2600474 425.931200
  11828  11829  11831     1   109.5600471 388.275200
  11828  11842  11846     1   109.5600471 388.275200
  11828  11842  11847     1   109.5600471 388.275200
  11829  11828  11830     1   109.5600471 388.275200
  11829  11832  11836     1   109.5600471 388.275200
  11829  11841  11844     1   107.2600461 396.643200
  11830  11828  11842     1   109.5600471 388.275200
  11830  11828  11850     1   109.7800468 425.094400
  11831  11829  11832     1   109.5600471 388.275200
  11831  11829  11841     1   110.2600474 425.931200
  11832  11833  11835     1   109.5600471 388.275200
  11832  11840  11843     1   107.2600461 396.643200
  11833  11832  11836     1   109.5600471 388.275200
  11833  11834  11837     1   110.2200475 386.601600
  11833  11839  11845     1   107.2600461 396.643200
  11834  11833  11835     1   109.5600471 388.275200
  11835  11833  11839     1   110.2600474 425.931200
  11836  11832  11840     1   110.2600474 425.931200
  11837  11834  11838     1   109.5800467 425.931200
  11837  11834  11850     1   109.5800467 425.931200
  11842  11848  11849     1   107.2600461 396.643200
  11846  11842  11848     1   110.2600474 425.931200
  11846  11842  11847     1   108.4600466 328.025600
  11847  11842  11848     1   110.2600474 425.931200
  11851  11852  11854     1   109.5600471 388.275200
  11851  11865  11869     1   109.5600471 388.275200
  11851  11865  11870     1   109.5600471 388.275200
  11852  11855  11859     1   109.5600471 388.275200
  11852  11864  11867     1   107.2600461 396.643200
  11852  11851  11853     1   109.5600471 388.275200
  11853  11851  11865     1   109.5600471 388.275200
  11853  11851  11873     1   109.7800468 425.094400
  11854  11852  11855     1   109.5600471 388.275200
  11854  11852  11864     1   110.2600474 425.931200
  11855  11856  11858     1   109.5600471 388.275200
  11855  11863  11866     1   107.2600461 396.643200
  11856  11857  11860     1   110.2200475 386.601600
  11856  11862  11868     1   107.2600461 396.643200
  11856  11855  11859     1   109.5600471 388.275200
  11857  11856  11858     1   109.5600471 388.275200
  11858  11856  11862     1   110.2600474 425.931200
  11859  11855  11863     1   110.2600474 425.931200
  11860  11857  11861     1   109.5800467 425.931200
  11860  11857  11873     1   109.5800467 425.931200
  11865  11871  11872     1   107.2600461 396.643200
  11869  11865  11871     1   110.2600474 425.931200
  11869  11865  11870     1   108.4600466 328.025600
  11870  11865  11871     1   110.2600474 425.931200
  11874  11875  11877     1   109.5600471 388.275200
  11874  11888  11892     1   109.5600471 388.275200
  11874  11888  11893     1   109.5600471 388.275200
  11875  11874  11876     1   109.5600471 388.275200
  11875  11878  11882     1   109.5600471 388.275200
  11875  11887  11890     1   107.2600461 396.643200
  11876  11874  11888     1   109.5600471 388.275200
  11876  11874  11896     1   109.7800468 425.094400
  11877  11875  11878     1   109.5600471 388.275200
  11877  11875  11887     1   110.2600474 425.931200
  11878  11879  11881     1   109.5600471 388.275200
  11878  11886  11889     1   107.2600461 396.643200
  11879  11878  11882     1   109.5600471 388.275200
  11879  11880  11883     1   110.2200475 386.601600
  11879  11885  11891     1   107.2600461 396.643200
  11880  11879  11881     1   109.5600471 388.275200
  11881  11879  11885     1   110.2600474 425.931200
  11882  11878  11886     1   110.2600474 425.931200
  11883  11880  11884     1   109.5800467 425.931200
  11883  11880  11896     1   109.5800467 425.931200
  11888  11894  11895     1   107.2600461 396.643200
  11892  11888  11894     1   110.2600474 425.931200
  11892  11888  11893     1   108.4600466 328.025600
  11893  11888  11894     1   110.2600474 425.931200
  11897  11898  11900     1   109.5600471 388.275200
  11897  11911  11915     1   109.5600471 388.275200
  11897  11911  11916     1   109.5600471 388.275200
  11898  11901  11905     1   109.5600471 388.275200
  11898  11910  11913     1   107.2600461 396.643200
  11898  11897  11899     1   109.5600471 388.275200
  11899  11897  11911     1   109.5600471 388.275200
  11899  11897  11919     1   109.7800468 425.094400
  11900  11898  11901     1   109.5600471 388.275200
  11900  11898  11910     1   110.2600474 425.931200
  11901  11902  11904     1   109.5600471 388.275200
  11901  11909  11912     1   107.2600461 396.643200
  11902  11903  11906     1   110.2200475 386.601600
  11902  11908  11914     1   107.2600461 396.643200
  11902  11901  11905     1   109.5600471 388.275200
  11903  11902  11904     1   109.5600471 388.275200
  11904  11902  11908     1   110.2600474 425.931200
  11905  11901  11909     1   110.2600474 425.931200
  11906  11903  11907     1   109.5800467 425.931200
  11906  11903  11919     1   109.5800467 425.931200
  11911  11917  11918     1   107.2600461 396.643200
  11915  11911  11917     1   110.2600474 425.931200
  11915  11911  11916     1   108.4600466 328.025600
  11916  11911  11917     1   110.2600474 425.931200
  11920  11921  11923     1   109.5600471 388.275200
  11920  11934  11938     1   109.5600471 388.275200
  11920  11934  11939     1   109.5600471 388.275200
  11921  11920  11922     1   109.5600471 388.275200
  11921  11924  11928     1   109.5600471 388.275200
  11921  11933  11936     1   107.2600461 396.643200
  11922  11920  11934     1   109.5600471 388.275200
  11922  11920  11942     1   109.7800468 425.094400
  11923  11921  11924     1   109.5600471 388.275200
  11923  11921  11933     1   110.2600474 425.931200
  11924  11925  11927     1   109.5600471 388.275200
  11924  11932  11935     1   107.2600461 396.643200
  11925  11924  11928     1   109.5600471 388.275200
  11925  11926  11929     1   110.2200475 386.601600
  11925  11931  11937     1   107.2600461 396.643200
  11926  11925  11927     1   109.5600471 388.275200
  11927  11925  11931     1   110.2600474 425.931200
  11928  11924  11932     1   110.2600474 425.931200
  11929  11926  11930     1   109.5800467 425.931200
  11929  11926  11942     1   109.5800467 425.931200
  11934  11940  11941     1   107.2600461 396.643200
  11938  11934  11940     1   110.2600474 425.931200
  11938  11934  11939     1   108.4600466 328.025600
  11939  11934  11940     1   110.2600474 425.931200
  11943  11944  11946     1   109.5600471 388.275200
  11943  11957  11961     1   109.5600471 388.275200
  11943  11957  11962     1   109.5600471 388.275200
  11944  11947  11951     1   109.5600471 388.275200
  11944  11956  11959     1   107.2600461 396.643200
  11944  11943  11945     1   109.5600471 388.275200
  11945  11943  11957     1   109.5600471 388.275200
  11945  11943  11965     1   109.7800468 425.094400
  11946  11944  11947     1   109.5600471 388.275200
  11946  11944  11956     1   110.2600474 425.931200
  11947  11948  11950     1   109.5600471 388.275200
  11947  11955  11958     1   107.2600461 396.643200
  11948  11949  11952     1   110.2200475 386.601600
  11948  11954  11960     1   107.2600461 396.643200
  11948  11947  11951     1   109.5600471 388.275200
  11949  11948  11950     1   109.5600471 388.275200
  11950  11948  11954     1   110.2600474 425.931200
  11951  11947  11955     1   110.2600474 425.931200
  11952  11949  11953     1   109.5800467 425.931200
  11952  11949  11965     1   109.5800467 425.931200
  11957  11963  11964     1   107.2600461 396.643200
  11961  11957  11963     1   110.2600474 425.931200
  11961  11957  11962     1   108.4600466 328.025600
  11962  11957  11963     1   110.2600474 425.931200
  11966  11967  11969     1   109.5600471 388.275200
  11966  11980  11984     1   109.5600471 388.275200
  11966  11980  11985     1   109.5600471 388.275200
  11967  11966  11968     1   109.5600471 388.275200
  11967  11970  11974     1   109.5600471 388.275200
  11967  11979  11982     1   107.2600461 396.643200
  11968  11966  11980     1   109.5600471 388.275200
  11968  11966  11988     1   109.7800468 425.094400
  11969  11967  11970     1   109.5600471 388.275200
  11969  11967  11979     1   110.2600474 425.931200
  11970  11971  11973     1   109.5600471 388.275200
  11970  11978  11981     1   107.2600461 396.643200
  11971  11970  11974     1   109.5600471 388.275200
  11971  11972  11975     1   110.2200475 386.601600
  11971  11977  11983     1   107.2600461 396.643200
  11972  11971  11973     1   109.5600471 388.275200
  11973  11971  11977     1   110.2600474 425.931200
  11974  11970  11978     1   110.2600474 425.931200
  11975  11972  11976     1   109.5800467 425.931200
  11975  11972  11988     1   109.5800467 425.931200
  11980  11986  11987     1   107.2600461 396.643200
  11984  11980  11986     1   110.2600474 425.931200
  11984  11980  11985     1   108.4600466 328.025600
  11985  11980  11986     1   110.2600474 425.931200
  11989  11990  11992     1   109.5600471 388.275200
  11989  12003  12007     1   109.5600471 388.275200
  11989  12003  12008     1   109.5600471 388.275200
  11990  11993  11997     1   109.5600471 388.275200
  11990  12002  12005     1   107.2600461 396.643200
  11990  11989  11991     1   109.5600471 388.275200
  11991  11989  12003     1   109.5600471 388.275200
  11991  11989  12011     1   109.7800468 425.094400
  11992  11990  11993     1   109.5600471 388.275200
  11992  11990  12002     1   110.2600474 425.931200
  11993  11994  11996     1   109.5600471 388.275200
  11993  12001  12004     1   107.2600461 396.643200
  11994  11995  11998     1   110.2200475 386.601600
  11994  12000  12006     1   107.2600461 396.643200
  11994  11993  11997     1   109.5600471 388.275200
  11995  11994  11996     1   109.5600471 388.275200
  11996  11994  12000     1   110.2600474 425.931200
  11997  11993  12001     1   110.2600474 425.931200
  11998  11995  11999     1   109.5800467 425.931200
  11998  11995  12011     1   109.5800467 425.931200
  12003  12009  12010     1   107.2600461 396.643200
  12007  12003  12009     1   110.2600474 425.931200
  12007  12003  12008     1   108.4600466 328.025600
  12008  12003  12009     1   110.2600474 425.931200
  12012  12013  12015     1   109.5600471 388.275200
  12012  12026  12030     1   109.5600471 388.275200
  12012  12026  12031     1   109.5600471 388.275200
  12013  12012  12014     1   109.5600471 388.275200
  12013  12016  12020     1   109.5600471 388.275200
  12013  12025  12028     1   107.2600461 396.643200
  12014  12012  12026     1   109.5600471 388.275200
  12014  12012  12034     1   109.7800468 425.094400
  12015  12013  12016     1   109.5600471 388.275200
  12015  12013  12025     1   110.2600474 425.931200
  12016  12017  12019     1   109.5600471 388.275200
  12016  12024  12027     1   107.2600461 396.643200
  12017  12016  12020     1   109.5600471 388.275200
  12017  12018  12021     1   110.2200475 386.601600
  12017  12023  12029     1   107.2600461 396.643200
  12018  12017  12019     1   109.5600471 388.275200
  12019  12017  12023     1   110.2600474 425.931200
  12020  12016  12024     1   110.2600474 425.931200
  12021  12018  12022     1   109.5800467 425.931200
  12021  12018  12034     1   109.5800467 425.931200
  12026  12032  12033     1   107.2600461 396.643200
  12030  12026  12032     1   110.2600474 425.931200
  12030  12026  12031     1   108.4600466 328.025600
  12031  12026  12032     1   110.2600474 425.931200
  12035  12036  12038     1   109.5600471 388.275200
  12035  12049  12053     1   109.5600471 388.275200
  12035  12049  12054     1   109.5600471 388.275200
  12036  12039  12043     1   109.5600471 388.275200
  12036  12048  12051     1   107.2600461 396.643200
  12036  12035  12037     1   109.5600471 388.275200
  12037  12035  12049     1   109.5600471 388.275200
  12037  12035  12057     1   109.7800468 425.094400
  12038  12036  12039     1   109.5600471 388.275200
  12038  12036  12048     1   110.2600474 425.931200
  12039  12040  12042     1   109.5600471 388.275200
  12039  12047  12050     1   107.2600461 396.643200
  12040  12041  12044     1   110.2200475 386.601600
  12040  12046  12052     1   107.2600461 396.643200
  12040  12039  12043     1   109.5600471 388.275200
  12041  12040  12042     1   109.5600471 388.275200
  12042  12040  12046     1   110.2600474 425.931200
  12043  12039  12047     1   110.2600474 425.931200
  12044  12041  12045     1   109.5800467 425.931200
  12044  12041  12057     1   109.5800467 425.931200
  12049  12055  12056     1   107.2600461 396.643200
  12053  12049  12055     1   110.2600474 425.931200
  12053  12049  12054     1   108.4600466 328.025600
  12054  12049  12055     1   110.2600474 425.931200
  12058  12059  12061     1   109.5600471 388.275200
  12058  12072  12076     1   109.5600471 388.275200
  12058  12072  12077     1   109.5600471 388.275200
  12059  12058  12060     1   109.5600471 388.275200
  12059  12062  12066     1   109.5600471 388.275200
  12059  12071  12074     1   107.2600461 396.643200
  12060  12058  12072     1   109.5600471 388.275200
  12060  12058  12080     1   109.7800468 425.094400
  12061  12059  12062     1   109.5600471 388.275200
  12061  12059  12071     1   110.2600474 425.931200
  12062  12063  12065     1   109.5600471 388.275200
  12062  12070  12073     1   107.2600461 396.643200
  12063  12062  12066     1   109.5600471 388.275200
  12063  12064  12067     1   110.2200475 386.601600
  12063  12069  12075     1   107.2600461 396.643200
  12064  12063  12065     1   109.5600471 388.275200
  12065  12063  12069     1   110.2600474 425.931200
  12066  12062  12070     1   110.2600474 425.931200
  12067  12064  12068     1   109.5800467 425.931200
  12067  12064  12080     1   109.5800467 425.931200
  12072  12078  12079     1   107.2600461 396.643200
  12076  12072  12078     1   110.2600474 425.931200
  12076  12072  12077     1   108.4600466 328.025600
  12077  12072  12078     1   110.2600474 425.931200
  12081  12082  12084     1   109.5600471 388.275200
  12081  12095  12099     1   109.5600471 388.275200
  12081  12095  12100     1   109.5600471 388.275200
  12082  12085  12089     1   109.5600471 388.275200
  12082  12094  12097     1   107.2600461 396.643200
  12082  12081  12083     1   109.5600471 388.275200
  12083  12081  12095     1   109.5600471 388.275200
  12083  12081  12103     1   109.7800468 425.094400
  12084  12082  12085     1   109.5600471 388.275200
  12084  12082  12094     1   110.2600474 425.931200
  12085  12086  12088     1   109.5600471 388.275200
  12085  12093  12096     1   107.2600461 396.643200
  12086  12087  12090     1   110.2200475 386.601600
  12086  12092  12098     1   107.2600461 396.643200
  12086  12085  12089     1   109.5600471 388.275200
  12087  12086  12088     1   109.5600471 388.275200
  12088  12086  12092     1   110.2600474 425.931200
  12089  12085  12093     1   110.2600474 425.931200
  12090  12087  12091     1   109.5800467 425.931200
  12090  12087  12103     1   109.5800467 425.931200
  12095  12101  12102     1   107.2600461 396.643200
  12099  12095  12101     1   110.2600474 425.931200
  12099  12095  12100     1   108.4600466 328.025600
  12100  12095  12101     1   110.2600474 425.931200
  12104  12105  12107     1   109.5600471 388.275200
  12104  12118  12122     1   109.5600471 388.275200
  12104  12118  12123     1   109.5600471 388.275200
  12105  12104  12106     1   109.5600471 388.275200
  12105  12108  12112     1   109.5600471 388.275200
  12105  12117  12120     1   107.2600461 396.643200
  12106  12104  12118     1   109.5600471 388.275200
  12106  12104  12126     1   109.7800468 425.094400
  12107  12105  12108     1   109.5600471 388.275200
  12107  12105  12117     1   110.2600474 425.931200
  12108  12109  12111     1   109.5600471 388.275200
  12108  12116  12119     1   107.2600461 396.643200
  12109  12108  12112     1   109.5600471 388.275200
  12109  12110  12113     1   110.2200475 386.601600
  12109  12115  12121     1   107.2600461 396.643200
  12110  12109  12111     1   109.5600471 388.275200
  12111  12109  12115     1   110.2600474 425.931200
  12112  12108  12116     1   110.2600474 425.931200
  12113  12110  12114     1   109.5800467 425.931200
  12113  12110  12126     1   109.5800467 425.931200
  12118  12124  12125     1   107.2600461 396.643200
  12122  12118  12124     1   110.2600474 425.931200
  12122  12118  12123     1   108.4600466 328.025600
  12123  12118  12124     1   110.2600474 425.931200
  12127  12128  12130     1   109.5600471 388.275200
  12127  12141  12145     1   109.5600471 388.275200
  12127  12141  12146     1   109.5600471 388.275200
  12128  12131  12135     1   109.5600471 388.275200
  12128  12140  12143     1   107.2600461 396.643200
  12128  12127  12129     1   109.5600471 388.275200
  12129  12127  12141     1   109.5600471 388.275200
  12129  12127  12149     1   109.7800468 425.094400
  12130  12128  12131     1   109.5600471 388.275200
  12130  12128  12140     1   110.2600474 425.931200
  12131  12132  12134     1   109.5600471 388.275200
  12131  12139  12142     1   107.2600461 396.643200
  12132  12133  12136     1   110.2200475 386.601600
  12132  12138  12144     1   107.2600461 396.643200
  12132  12131  12135     1   109.5600471 388.275200
  12133  12132  12134     1   109.5600471 388.275200
  12134  12132  12138     1   110.2600474 425.931200
  12135  12131  12139     1   110.2600474 425.931200
  12136  12133  12137     1   109.5800467 425.931200
  12136  12133  12149     1   109.5800467 425.931200
  12141  12147  12148     1   107.2600461 396.643200
  12145  12141  12147     1   110.2600474 425.931200
  12145  12141  12146     1   108.4600466 328.025600
  12146  12141  12147     1   110.2600474 425.931200
  12150  12151  12153     1   109.5600471 388.275200
  12150  12164  12168     1   109.5600471 388.275200
  12150  12164  12169     1   109.5600471 388.275200
  12151  12150  12152     1   109.5600471 388.275200
  12151  12154  12158     1   109.5600471 388.275200
  12151  12163  12166     1   107.2600461 396.643200
  12152  12150  12164     1   109.5600471 388.275200
  12152  12150  12172     1   109.7800468 425.094400
  12153  12151  12154     1   109.5600471 388.275200
  12153  12151  12163     1   110.2600474 425.931200
  12154  12155  12157     1   109.5600471 388.275200
  12154  12162  12165     1   107.2600461 396.643200
  12155  12154  12158     1   109.5600471 388.275200
  12155  12156  12159     1   110.2200475 386.601600
  12155  12161  12167     1   107.2600461 396.643200
  12156  12155  12157     1   109.5600471 388.275200
  12157  12155  12161     1   110.2600474 425.931200
  12158  12154  12162     1   110.2600474 425.931200
  12159  12156  12160     1   109.5800467 425.931200
  12159  12156  12172     1   109.5800467 425.931200
  12164  12170  12171     1   107.2600461 396.643200
  12168  12164  12170     1   110.2600474 425.931200
  12168  12164  12169     1   108.4600466 328.025600
  12169  12164  12170     1   110.2600474 425.931200
  12173  12174  12176     1   109.5600471 388.275200
  12173  12187  12191     1   109.5600471 388.275200
  12173  12187  12192     1   109.5600471 388.275200
  12174  12177  12181     1   109.5600471 388.275200
  12174  12186  12189     1   107.2600461 396.643200
  12174  12173  12175     1   109.5600471 388.275200
  12175  12173  12187     1   109.5600471 388.275200
  12175  12173  12195     1   109.7800468 425.094400
  12176  12174  12177     1   109.5600471 388.275200
  12176  12174  12186     1   110.2600474 425.931200
  12177  12178  12180     1   109.5600471 388.275200
  12177  12185  12188     1   107.2600461 396.643200
  12178  12179  12182     1   110.2200475 386.601600
  12178  12184  12190     1   107.2600461 396.643200
  12178  12177  12181     1   109.5600471 388.275200
  12179  12178  12180     1   109.5600471 388.275200
  12180  12178  12184     1   110.2600474 425.931200
  12181  12177  12185     1   110.2600474 425.931200
  12182  12179  12183     1   109.5800467 425.931200
  12182  12179  12195     1   109.5800467 425.931200
  12187  12193  12194     1   107.2600461 396.643200
  12191  12187  12193     1   110.2600474 425.931200
  12191  12187  12192     1   108.4600466 328.025600
  12192  12187  12193     1   110.2600474 425.931200
  12196  12197  12199     1   109.5600471 388.275200
  12196  12210  12214     1   109.5600471 388.275200
  12196  12210  12215     1   109.5600471 388.275200
  12197  12196  12198     1   109.5600471 388.275200
  12197  12200  12204     1   109.5600471 388.275200
  12197  12209  12212     1   107.2600461 396.643200
  12198  12196  12210     1   109.5600471 388.275200
  12198  12196  12218     1   109.7800468 425.094400
  12199  12197  12200     1   109.5600471 388.275200
  12199  12197  12209     1   110.2600474 425.931200
  12200  12201  12203     1   109.5600471 388.275200
  12200  12208  12211     1   107.2600461 396.643200
  12201  12200  12204     1   109.5600471 388.275200
  12201  12202  12205     1   110.2200475 386.601600
  12201  12207  12213     1   107.2600461 396.643200
  12202  12201  12203     1   109.5600471 388.275200
  12203  12201  12207     1   110.2600474 425.931200
  12204  12200  12208     1   110.2600474 425.931200
  12205  12202  12206     1   109.5800467 425.931200
  12205  12202  12218     1   109.5800467 425.931200
  12210  12216  12217     1   107.2600461 396.643200
  12214  12210  12216     1   110.2600474 425.931200
  12214  12210  12215     1   108.4600466 328.025600
  12215  12210  12216     1   110.2600474 425.931200
  12219  12220  12222     1   109.5600471 388.275200
  12219  12233  12237     1   109.5600471 388.275200
  12219  12233  12238     1   109.5600471 388.275200
  12220  12223  12227     1   109.5600471 388.275200
  12220  12232  12235     1   107.2600461 396.643200
  12220  12219  12221     1   109.5600471 388.275200
  12221  12219  12233     1   109.5600471 388.275200
  12221  12219  12241     1   109.7800468 425.094400
  12222  12220  12223     1   109.5600471 388.275200
  12222  12220  12232     1   110.2600474 425.931200
  12223  12224  12226     1   109.5600471 388.275200
  12223  12231  12234     1   107.2600461 396.643200
  12224  12225  12228     1   110.2200475 386.601600
  12224  12230  12236     1   107.2600461 396.643200
  12224  12223  12227     1   109.5600471 388.275200
  12225  12224  12226     1   109.5600471 388.275200
  12226  12224  12230     1   110.2600474 425.931200
  12227  12223  12231     1   110.2600474 425.931200
  12228  12225  12229     1   109.5800467 425.931200
  12228  12225  12241     1   109.5800467 425.931200
  12233  12239  12240     1   107.2600461 396.643200
  12237  12233  12239     1   110.2600474 425.931200
  12237  12233  12238     1   108.4600466 328.025600
  12238  12233  12239     1   110.2600474 425.931200
  12242  12243  12245     1   109.5600471 388.275200
  12242  12256  12260     1   109.5600471 388.275200
  12242  12256  12261     1   109.5600471 388.275200
  12243  12242  12244     1   109.5600471 388.275200
  12243  12246  12250     1   109.5600471 388.275200
  12243  12255  12258     1   107.2600461 396.643200
  12244  12242  12256     1   109.5600471 388.275200
  12244  12242  12264     1   109.7800468 425.094400
  12245  12243  12246     1   109.5600471 388.275200
  12245  12243  12255     1   110.2600474 425.931200
  12246  12247  12249     1   109.5600471 388.275200
  12246  12254  12257     1   107.2600461 396.643200
  12247  12246  12250     1   109.5600471 388.275200
  12247  12248  12251     1   110.2200475 386.601600
  12247  12253  12259     1   107.2600461 396.643200
  12248  12247  12249     1   109.5600471 388.275200
  12249  12247  12253     1   110.2600474 425.931200
  12250  12246  12254     1   110.2600474 425.931200
  12251  12248  12252     1   109.5800467 425.931200
  12251  12248  12264     1   109.5800467 425.931200
  12256  12262  12263     1   107.2600461 396.643200
  12260  12256  12262     1   110.2600474 425.931200
  12260  12256  12261     1   108.4600466 328.025600
  12261  12256  12262     1   110.2600474 425.931200
  12265  12266  12268     1   109.5600471 388.275200
  12265  12279  12283     1   109.5600471 388.275200
  12265  12279  12284     1   109.5600471 388.275200
  12266  12269  12273     1   109.5600471 388.275200
  12266  12278  12281     1   107.2600461 396.643200
  12266  12265  12267     1   109.5600471 388.275200
  12267  12265  12279     1   109.5600471 388.275200
  12267  12265  12287     1   109.7800468 425.094400
  12268  12266  12269     1   109.5600471 388.275200
  12268  12266  12278     1   110.2600474 425.931200
  12269  12270  12272     1   109.5600471 388.275200
  12269  12277  12280     1   107.2600461 396.643200
  12270  12271  12274     1   110.2200475 386.601600
  12270  12276  12282     1   107.2600461 396.643200
  12270  12269  12273     1   109.5600471 388.275200
  12271  12270  12272     1   109.5600471 388.275200
  12272  12270  12276     1   110.2600474 425.931200
  12273  12269  12277     1   110.2600474 425.931200
  12274  12271  12275     1   109.5800467 425.931200
  12274  12271  12287     1   109.5800467 425.931200
  12279  12285  12286     1   107.2600461 396.643200
  12283  12279  12285     1   110.2600474 425.931200
  12283  12279  12284     1   108.4600466 328.025600
  12284  12279  12285     1   110.2600474 425.931200
  12288  12289  12291     1   109.5600471 388.275200
  12288  12302  12306     1   109.5600471 388.275200
  12288  12302  12307     1   109.5600471 388.275200
  12289  12288  12290     1   109.5600471 388.275200
  12289  12292  12296     1   109.5600471 388.275200
  12289  12301  12304     1   107.2600461 396.643200
  12290  12288  12302     1   109.5600471 388.275200
  12290  12288  12310     1   109.7800468 425.094400
  12291  12289  12292     1   109.5600471 388.275200
  12291  12289  12301     1   110.2600474 425.931200
  12292  12293  12295     1   109.5600471 388.275200
  12292  12300  12303     1   107.2600461 396.643200
  12293  12292  12296     1   109.5600471 388.275200
  12293  12294  12297     1   110.2200475 386.601600
  12293  12299  12305     1   107.2600461 396.643200
  12294  12293  12295     1   109.5600471 388.275200
  12295  12293  12299     1   110.2600474 425.931200
  12296  12292  12300     1   110.2600474 425.931200
  12297  12294  12298     1   109.5800467 425.931200
  12297  12294  12310     1   109.5800467 425.931200
  12302  12308  12309     1   107.2600461 396.643200
  12306  12302  12308     1   110.2600474 425.931200
  12306  12302  12307     1   108.4600466 328.025600
  12307  12302  12308     1   110.2600474 425.931200
  12311  12312  12314     1   109.5600471 388.275200
  12311  12325  12329     1   109.5600471 388.275200
  12311  12325  12330     1   109.5600471 388.275200
  12312  12315  12319     1   109.5600471 388.275200
  12312  12324  12327     1   107.2600461 396.643200
  12312  12311  12313     1   109.5600471 388.275200
  12313  12311  12325     1   109.5600471 388.275200
  12313  12311  12333     1   109.7800468 425.094400
  12314  12312  12315     1   109.5600471 388.275200
  12314  12312  12324     1   110.2600474 425.931200
  12315  12316  12318     1   109.5600471 388.275200
  12315  12323  12326     1   107.2600461 396.643200
  12316  12317  12320     1   110.2200475 386.601600
  12316  12322  12328     1   107.2600461 396.643200
  12316  12315  12319     1   109.5600471 388.275200
  12317  12316  12318     1   109.5600471 388.275200
  12318  12316  12322     1   110.2600474 425.931200
  12319  12315  12323     1   110.2600474 425.931200
  12320  12317  12321     1   109.5800467 425.931200
  12320  12317  12333     1   109.5800467 425.931200
  12325  12331  12332     1   107.2600461 396.643200
  12329  12325  12331     1   110.2600474 425.931200
  12329  12325  12330     1   108.4600466 328.025600
  12330  12325  12331     1   110.2600474 425.931200
  12334  12335  12337     1   109.5600471 388.275200
  12334  12348  12352     1   109.5600471 388.275200
  12334  12348  12353     1   109.5600471 388.275200
  12335  12334  12336     1   109.5600471 388.275200
  12335  12338  12342     1   109.5600471 388.275200
  12335  12347  12350     1   107.2600461 396.643200
  12336  12334  12348     1   109.5600471 388.275200
  12336  12334  12356     1   109.7800468 425.094400
  12337  12335  12338     1   109.5600471 388.275200
  12337  12335  12347     1   110.2600474 425.931200
  12338  12339  12341     1   109.5600471 388.275200
  12338  12346  12349     1   107.2600461 396.643200
  12339  12338  12342     1   109.5600471 388.275200
  12339  12340  12343     1   110.2200475 386.601600
  12339  12345  12351     1   107.2600461 396.643200
  12340  12339  12341     1   109.5600471 388.275200
  12341  12339  12345     1   110.2600474 425.931200
  12342  12338  12346     1   110.2600474 425.931200
  12343  12340  12344     1   109.5800467 425.931200
  12343  12340  12356     1   109.5800467 425.931200
  12348  12354  12355     1   107.2600461 396.643200
  12352  12348  12354     1   110.2600474 425.931200
  12352  12348  12353     1   108.4600466 328.025600
  12353  12348  12354     1   110.2600474 425.931200
  12357  12358  12360     1   109.5600471 388.275200
  12357  12371  12375     1   109.5600471 388.275200
  12357  12371  12376     1   109.5600471 388.275200
  12358  12361  12365     1   109.5600471 388.275200
  12358  12370  12373     1   107.2600461 396.643200
  12358  12357  12359     1   109.5600471 388.275200
  12359  12357  12371     1   109.5600471 388.275200
  12359  12357  12379     1   109.7800468 425.094400
  12360  12358  12361     1   109.5600471 388.275200
  12360  12358  12370     1   110.2600474 425.931200
  12361  12362  12364     1   109.5600471 388.275200
  12361  12369  12372     1   107.2600461 396.643200
  12362  12363  12366     1   110.2200475 386.601600
  12362  12368  12374     1   107.2600461 396.643200
  12362  12361  12365     1   109.5600471 388.275200
  12363  12362  12364     1   109.5600471 388.275200
  12364  12362  12368     1   110.2600474 425.931200
  12365  12361  12369     1   110.2600474 425.931200
  12366  12363  12367     1   109.5800467 425.931200
  12366  12363  12379     1   109.5800467 425.931200
  12371  12377  12378     1   107.2600461 396.643200
  12375  12371  12377     1   110.2600474 425.931200
  12375  12371  12376     1   108.4600466 328.025600
  12376  12371  12377     1   110.2600474 425.931200
  12380  12381  12383     1   109.5600471 388.275200
  12380  12394  12398     1   109.5600471 388.275200
  12380  12394  12399     1   109.5600471 388.275200
  12381  12380  12382     1   109.5600471 388.275200
  12381  12384  12388     1   109.5600471 388.275200
  12381  12393  12396     1   107.2600461 396.643200
  12382  12380  12394     1   109.5600471 388.275200
  12382  12380  12402     1   109.7800468 425.094400
  12383  12381  12384     1   109.5600471 388.275200
  12383  12381  12393     1   110.2600474 425.931200
  12384  12385  12387     1   109.5600471 388.275200
  12384  12392  12395     1   107.2600461 396.643200
  12385  12384  12388     1   109.5600471 388.275200
  12385  12386  12389     1   110.2200475 386.601600
  12385  12391  12397     1   107.2600461 396.643200
  12386  12385  12387     1   109.5600471 388.275200
  12387  12385  12391     1   110.2600474 425.931200
  12388  12384  12392     1   110.2600474 425.931200
  12389  12386  12390     1   109.5800467 425.931200
  12389  12386  12402     1   109.5800467 425.931200
  12394  12400  12401     1   107.2600461 396.643200
  12398  12394  12400     1   110.2600474 425.931200
  12398  12394  12399     1   108.4600466 328.025600
  12399  12394  12400     1   110.2600474 425.931200
  12403  12404  12406     1   109.5600471 388.275200
  12403  12417  12421     1   109.5600471 388.275200
  12403  12417  12422     1   109.5600471 388.275200
  12404  12407  12411     1   109.5600471 388.275200
  12404  12416  12419     1   107.2600461 396.643200
  12404  12403  12405     1   109.5600471 388.275200
  12405  12403  12417     1   109.5600471 388.275200
  12405  12403  12425     1   109.7800468 425.094400
  12406  12404  12407     1   109.5600471 388.275200
  12406  12404  12416     1   110.2600474 425.931200
  12407  12408  12410     1   109.5600471 388.275200
  12407  12415  12418     1   107.2600461 396.643200
  12408  12409  12412     1   110.2200475 386.601600
  12408  12414  12420     1   107.2600461 396.643200
  12408  12407  12411     1   109.5600471 388.275200
  12409  12408  12410     1   109.5600471 388.275200
  12410  12408  12414     1   110.2600474 425.931200
  12411  12407  12415     1   110.2600474 425.931200
  12412  12409  12413     1   109.5800467 425.931200
  12412  12409  12425     1   109.5800467 425.931200
  12417  12423  12424     1   107.2600461 396.643200
  12421  12417  12423     1   110.2600474 425.931200
  12421  12417  12422     1   108.4600466 328.025600
  12422  12417  12423     1   110.2600474 425.931200
  12426  12427  12429     1   109.5600471 388.275200
  12426  12440  12444     1   109.5600471 388.275200
  12426  12440  12445     1   109.5600471 388.275200
  12427  12426  12428     1   109.5600471 388.275200
  12427  12430  12434     1   109.5600471 388.275200
  12427  12439  12442     1   107.2600461 396.643200
  12428  12426  12440     1   109.5600471 388.275200
  12428  12426  12448     1   109.7800468 425.094400
  12429  12427  12430     1   109.5600471 388.275200
  12429  12427  12439     1   110.2600474 425.931200
  12430  12431  12433     1   109.5600471 388.275200
  12430  12438  12441     1   107.2600461 396.643200
  12431  12430  12434     1   109.5600471 388.275200
  12431  12432  12435     1   110.2200475 386.601600
  12431  12437  12443     1   107.2600461 396.643200
  12432  12431  12433     1   109.5600471 388.275200
  12433  12431  12437     1   110.2600474 425.931200
  12434  12430  12438     1   110.2600474 425.931200
  12435  12432  12436     1   109.5800467 425.931200
  12435  12432  12448     1   109.5800467 425.931200
  12440  12446  12447     1   107.2600461 396.643200
  12444  12440  12446     1   110.2600474 425.931200
  12444  12440  12445     1   108.4600466 328.025600
  12445  12440  12446     1   110.2600474 425.931200
  12449  12450  12452     1   109.5600471 388.275200
  12449  12463  12467     1   109.5600471 388.275200
  12449  12463  12468     1   109.5600471 388.275200
  12450  12453  12457     1   109.5600471 388.275200
  12450  12462  12465     1   107.2600461 396.643200
  12450  12449  12451     1   109.5600471 388.275200
  12451  12449  12463     1   109.5600471 388.275200
  12451  12449  12471     1   109.7800468 425.094400
  12452  12450  12453     1   109.5600471 388.275200
  12452  12450  12462     1   110.2600474 425.931200
  12453  12454  12456     1   109.5600471 388.275200
  12453  12461  12464     1   107.2600461 396.643200
  12454  12455  12458     1   110.2200475 386.601600
  12454  12460  12466     1   107.2600461 396.643200
  12454  12453  12457     1   109.5600471 388.275200
  12455  12454  12456     1   109.5600471 388.275200
  12456  12454  12460     1   110.2600474 425.931200
  12457  12453  12461     1   110.2600474 425.931200
  12458  12455  12459     1   109.5800467 425.931200
  12458  12455  12471     1   109.5800467 425.931200
  12463  12469  12470     1   107.2600461 396.643200
  12467  12463  12469     1   110.2600474 425.931200
  12467  12463  12468     1   108.4600466 328.025600
  12468  12463  12469     1   110.2600474 425.931200
  12472  12473  12475     1   109.5600471 388.275200
  12472  12486  12490     1   109.5600471 388.275200
  12472  12486  12491     1   109.5600471 388.275200
  12473  12472  12474     1   109.5600471 388.275200
  12473  12476  12480     1   109.5600471 388.275200
  12473  12485  12488     1   107.2600461 396.643200
  12474  12472  12486     1   109.5600471 388.275200
  12474  12472  12494     1   109.7800468 425.094400
  12475  12473  12476     1   109.5600471 388.275200
  12475  12473  12485     1   110.2600474 425.931200
  12476  12477  12479     1   109.5600471 388.275200
  12476  12484  12487     1   107.2600461 396.643200
  12477  12476  12480     1   109.5600471 388.275200
  12477  12478  12481     1   110.2200475 386.601600
  12477  12483  12489     1   107.2600461 396.643200
  12478  12477  12479     1   109.5600471 388.275200
  12479  12477  12483     1   110.2600474 425.931200
  12480  12476  12484     1   110.2600474 425.931200
  12481  12478  12482     1   109.5800467 425.931200
  12481  12478  12494     1   109.5800467 425.931200
  12486  12492  12493     1   107.2600461 396.643200
  12490  12486  12492     1   110.2600474 425.931200
  12490  12486  12491     1   108.4600466 328.025600
  12491  12486  12492     1   110.2600474 425.931200
  12495  12496  12498     1   109.5600471 388.275200
  12495  12509  12513     1   109.5600471 388.275200
  12495  12509  12514     1   109.5600471 388.275200
  12496  12499  12503     1   109.5600471 388.275200
  12496  12508  12511     1   107.2600461 396.643200
  12496  12495  12497     1   109.5600471 388.275200
  12497  12495  12509     1   109.5600471 388.275200
  12497  12495  12517     1   109.7800468 425.094400
  12498  12496  12499     1   109.5600471 388.275200
  12498  12496  12508     1   110.2600474 425.931200
  12499  12500  12502     1   109.5600471 388.275200
  12499  12507  12510     1   107.2600461 396.643200
  12500  12501  12504     1   110.2200475 386.601600
  12500  12506  12512     1   107.2600461 396.643200
  12500  12499  12503     1   109.5600471 388.275200
  12501  12500  12502     1   109.5600471 388.275200
  12502  12500  12506     1   110.2600474 425.931200
  12503  12499  12507     1   110.2600474 425.931200
  12504  12501  12505     1   109.5800467 425.931200
  12504  12501  12517     1   109.5800467 425.931200
  12509  12515  12516     1   107.2600461 396.643200
  12513  12509  12515     1   110.2600474 425.931200
  12513  12509  12514     1   108.4600466 328.025600
  12514  12509  12515     1   110.2600474 425.931200
  12518  12519  12521     1   109.5600471 388.275200
  12518  12532  12536     1   109.5600471 388.275200
  12518  12532  12537     1   109.5600471 388.275200
  12519  12518  12520     1   109.5600471 388.275200
  12519  12522  12526     1   109.5600471 388.275200
  12519  12531  12534     1   107.2600461 396.643200
  12520  12518  12532     1   109.5600471 388.275200
  12520  12518  12540     1   109.7800468 425.094400
  12521  12519  12522     1   109.5600471 388.275200
  12521  12519  12531     1   110.2600474 425.931200
  12522  12523  12525     1   109.5600471 388.275200
  12522  12530  12533     1   107.2600461 396.643200
  12523  12522  12526     1   109.5600471 388.275200
  12523  12524  12527     1   110.2200475 386.601600
  12523  12529  12535     1   107.2600461 396.643200
  12524  12523  12525     1   109.5600471 388.275200
  12525  12523  12529     1   110.2600474 425.931200
  12526  12522  12530     1   110.2600474 425.931200
  12527  12524  12528     1   109.5800467 425.931200
  12527  12524  12540     1   109.5800467 425.931200
  12532  12538  12539     1   107.2600461 396.643200
  12536  12532  12538     1   110.2600474 425.931200
  12536  12532  12537     1   108.4600466 328.025600
  12537  12532  12538     1   110.2600474 425.931200
  12541  12542  12544     1   109.5600471 388.275200
  12541  12555  12559     1   109.5600471 388.275200
  12541  12555  12560     1   109.5600471 388.275200
  12542  12545  12549     1   109.5600471 388.275200
  12542  12554  12557     1   107.2600461 396.643200
  12542  12541  12543     1   109.5600471 388.275200
  12543  12541  12555     1   109.5600471 388.275200
  12543  12541  12563     1   109.7800468 425.094400
  12544  12542  12545     1   109.5600471 388.275200
  12544  12542  12554     1   110.2600474 425.931200
  12545  12546  12548     1   109.5600471 388.275200
  12545  12553  12556     1   107.2600461 396.643200
  12546  12547  12550     1   110.2200475 386.601600
  12546  12552  12558     1   107.2600461 396.643200
  12546  12545  12549     1   109.5600471 388.275200
  12547  12546  12548     1   109.5600471 388.275200
  12548  12546  12552     1   110.2600474 425.931200
  12549  12545  12553     1   110.2600474 425.931200
  12550  12547  12551     1   109.5800467 425.931200
  12550  12547  12563     1   109.5800467 425.931200
  12555  12561  12562     1   107.2600461 396.643200
  12559  12555  12561     1   110.2600474 425.931200
  12559  12555  12560     1   108.4600466 328.025600
  12560  12555  12561     1   110.2600474 425.931200
  12564  12565  12567     1   109.5600471 388.275200
  12564  12578  12582     1   109.5600471 388.275200
  12564  12578  12583     1   109.5600471 388.275200
  12565  12564  12566     1   109.5600471 388.275200
  12565  12568  12572     1   109.5600471 388.275200
  12565  12577  12580     1   107.2600461 396.643200
  12566  12564  12578     1   109.5600471 388.275200
  12566  12564  12586     1   109.7800468 425.094400
  12567  12565  12568     1   109.5600471 388.275200
  12567  12565  12577     1   110.2600474 425.931200
  12568  12569  12571     1   109.5600471 388.275200
  12568  12576  12579     1   107.2600461 396.643200
  12569  12568  12572     1   109.5600471 388.275200
  12569  12570  12573     1   110.2200475 386.601600
  12569  12575  12581     1   107.2600461 396.643200
  12570  12569  12571     1   109.5600471 388.275200
  12571  12569  12575     1   110.2600474 425.931200
  12572  12568  12576     1   110.2600474 425.931200
  12573  12570  12574     1   109.5800467 425.931200
  12573  12570  12586     1   109.5800467 425.931200
  12578  12584  12585     1   107.2600461 396.643200
  12582  12578  12584     1   110.2600474 425.931200
  12582  12578  12583     1   108.4600466 328.025600
  12583  12578  12584     1   110.2600474 425.931200
  12587  12588  12590     1   109.5600471 388.275200
  12587  12601  12605     1   109.5600471 388.275200
  12587  12601  12606     1   109.5600471 388.275200
  12588  12591  12595     1   109.5600471 388.275200
  12588  12600  12603     1   107.2600461 396.643200
  12588  12587  12589     1   109.5600471 388.275200
  12589  12587  12601     1   109.5600471 388.275200
  12589  12587  12609     1   109.7800468 425.094400
  12590  12588  12591     1   109.5600471 388.275200
  12590  12588  12600     1   110.2600474 425.931200
  12591  12592  12594     1   109.5600471 388.275200
  12591  12599  12602     1   107.2600461 396.643200
  12592  12593  12596     1   110.2200475 386.601600
  12592  12598  12604     1   107.2600461 396.643200
  12592  12591  12595     1   109.5600471 388.275200
  12593  12592  12594     1   109.5600471 388.275200
  12594  12592  12598     1   110.2600474 425.931200
  12595  12591  12599     1   110.2600474 425.931200
  12596  12593  12597     1   109.5800467 425.931200
  12596  12593  12609     1   109.5800467 425.931200
  12601  12607  12608     1   107.2600461 396.643200
  12605  12601  12607     1   110.2600474 425.931200
  12605  12601  12606     1   108.4600466 328.025600
  12606  12601  12607     1   110.2600474 425.931200
  12610  12611  12613     1   109.5600471 388.275200
  12610  12624  12628     1   109.5600471 388.275200
  12610  12624  12629     1   109.5600471 388.275200
  12611  12610  12612     1   109.5600471 388.275200
  12611  12614  12618     1   109.5600471 388.275200
  12611  12623  12626     1   107.2600461 396.643200
  12612  12610  12624     1   109.5600471 388.275200
  12612  12610  12632     1   109.7800468 425.094400
  12613  12611  12614     1   109.5600471 388.275200
  12613  12611  12623     1   110.2600474 425.931200
  12614  12615  12617     1   109.5600471 388.275200
  12614  12622  12625     1   107.2600461 396.643200
  12615  12614  12618     1   109.5600471 388.275200
  12615  12616  12619     1   110.2200475 386.601600
  12615  12621  12627     1   107.2600461 396.643200
  12616  12615  12617     1   109.5600471 388.275200
  12617  12615  12621     1   110.2600474 425.931200
  12618  12614  12622     1   110.2600474 425.931200
  12619  12616  12620     1   109.5800467 425.931200
  12619  12616  12632     1   109.5800467 425.931200
  12624  12630  12631     1   107.2600461 396.643200
  12628  12624  12630     1   110.2600474 425.931200
  12628  12624  12629     1   108.4600466 328.025600
  12629  12624  12630     1   110.2600474 425.931200
  12633  12634  12636     1   109.5600471 388.275200
  12633  12647  12651     1   109.5600471 388.275200
  12633  12647  12652     1   109.5600471 388.275200
  12634  12637  12641     1   109.5600471 388.275200
  12634  12646  12649     1   107.2600461 396.643200
  12634  12633  12635     1   109.5600471 388.275200
  12635  12633  12647     1   109.5600471 388.275200
  12635  12633  12655     1   109.7800468 425.094400
  12636  12634  12637     1   109.5600471 388.275200
  12636  12634  12646     1   110.2600474 425.931200
  12637  12638  12640     1   109.5600471 388.275200
  12637  12645  12648     1   107.2600461 396.643200
  12638  12639  12642     1   110.2200475 386.601600
  12638  12644  12650     1   107.2600461 396.643200
  12638  12637  12641     1   109.5600471 388.275200
  12639  12638  12640     1   109.5600471 388.275200
  12640  12638  12644     1   110.2600474 425.931200
  12641  12637  12645     1   110.2600474 425.931200
  12642  12639  12643     1   109.5800467 425.931200
  12642  12639  12655     1   109.5800467 425.931200
  12647  12653  12654     1   107.2600461 396.643200
  12651  12647  12653     1   110.2600474 425.931200
  12651  12647  12652     1   108.4600466 328.025600
  12652  12647  12653     1   110.2600474 425.931200
  12656  12657  12659     1   109.5600471 388.275200
  12656  12670  12674     1   109.5600471 388.275200
  12656  12670  12675     1   109.5600471 388.275200
  12657  12656  12658     1   109.5600471 388.275200
  12657  12660  12664     1   109.5600471 388.275200
  12657  12669  12672     1   107.2600461 396.643200
  12658  12656  12670     1   109.5600471 388.275200
  12658  12656  12678     1   109.7800468 425.094400
  12659  12657  12660     1   109.5600471 388.275200
  12659  12657  12669     1   110.2600474 425.931200
  12660  12661  12663     1   109.5600471 388.275200
  12660  12668  12671     1   107.2600461 396.643200
  12661  12660  12664     1   109.5600471 388.275200
  12661  12662  12665     1   110.2200475 386.601600
  12661  12667  12673     1   107.2600461 396.643200
  12662  12661  12663     1   109.5600471 388.275200
  12663  12661  12667     1   110.2600474 425.931200
  12664  12660  12668     1   110.2600474 425.931200
  12665  12662  12666     1   109.5800467 425.931200
  12665  12662  12678     1   109.5800467 425.931200
  12670  12676  12677     1   107.2600461 396.643200
  12674  12670  12676     1   110.2600474 425.931200
  12674  12670  12675     1   108.4600466 328.025600
  12675  12670  12676     1   110.2600474 425.931200
  12679  12680  12682     1   109.5600471 388.275200
  12679  12693  12697     1   109.5600471 388.275200
  12679  12693  12698     1   109.5600471 388.275200
  12680  12683  12687     1   109.5600471 388.275200
  12680  12692  12695     1   107.2600461 396.643200
  12680  12679  12681     1   109.5600471 388.275200
  12681  12679  12693     1   109.5600471 388.275200
  12681  12679  12701     1   109.7800468 425.094400
  12682  12680  12683     1   109.5600471 388.275200
  12682  12680  12692     1   110.2600474 425.931200
  12683  12684  12686     1   109.5600471 388.275200
  12683  12691  12694     1   107.2600461 396.643200
  12684  12685  12688     1   110.2200475 386.601600
  12684  12690  12696     1   107.2600461 396.643200
  12684  12683  12687     1   109.5600471 388.275200
  12685  12684  12686     1   109.5600471 388.275200
  12686  12684  12690     1   110.2600474 425.931200
  12687  12683  12691     1   110.2600474 425.931200
  12688  12685  12689     1   109.5800467 425.931200
  12688  12685  12701     1   109.5800467 425.931200
  12693  12699  12700     1   107.2600461 396.643200
  12697  12693  12699     1   110.2600474 425.931200
  12697  12693  12698     1   108.4600466 328.025600
  12698  12693  12699     1   110.2600474 425.931200
  12702  12703  12705     1   109.5600471 388.275200
  12702  12716  12720     1   109.5600471 388.275200
  12702  12716  12721     1   109.5600471 388.275200
  12703  12702  12704     1   109.5600471 388.275200
  12703  12706  12710     1   109.5600471 388.275200
  12703  12715  12718     1   107.2600461 396.643200
  12704  12702  12716     1   109.5600471 388.275200
  12704  12702  12724     1   109.7800468 425.094400
  12705  12703  12706     1   109.5600471 388.275200
  12705  12703  12715     1   110.2600474 425.931200
  12706  12707  12709     1   109.5600471 388.275200
  12706  12714  12717     1   107.2600461 396.643200
  12707  12706  12710     1   109.5600471 388.275200
  12707  12708  12711     1   110.2200475 386.601600
  12707  12713  12719     1   107.2600461 396.643200
  12708  12707  12709     1   109.5600471 388.275200
  12709  12707  12713     1   110.2600474 425.931200
  12710  12706  12714     1   110.2600474 425.931200
  12711  12708  12712     1   109.5800467 425.931200
  12711  12708  12724     1   109.5800467 425.931200
  12716  12722  12723     1   107.2600461 396.643200
  12720  12716  12722     1   110.2600474 425.931200
  12720  12716  12721     1   108.4600466 328.025600
  12721  12716  12722     1   110.2600474 425.931200
  12725  12726  12728     1   109.5600471 388.275200
  12725  12739  12743     1   109.5600471 388.275200
  12725  12739  12744     1   109.5600471 388.275200
  12726  12729  12733     1   109.5600471 388.275200
  12726  12738  12741     1   107.2600461 396.643200
  12726  12725  12727     1   109.5600471 388.275200
  12727  12725  12739     1   109.5600471 388.275200
  12727  12725  12747     1   109.7800468 425.094400
  12728  12726  12729     1   109.5600471 388.275200
  12728  12726  12738     1   110.2600474 425.931200
  12729  12730  12732     1   109.5600471 388.275200
  12729  12737  12740     1   107.2600461 396.643200
  12730  12731  12734     1   110.2200475 386.601600
  12730  12736  12742     1   107.2600461 396.643200
  12730  12729  12733     1   109.5600471 388.275200
  12731  12730  12732     1   109.5600471 388.275200
  12732  12730  12736     1   110.2600474 425.931200
  12733  12729  12737     1   110.2600474 425.931200
  12734  12731  12735     1   109.5800467 425.931200
  12734  12731  12747     1   109.5800467 425.931200
  12739  12745  12746     1   107.2600461 396.643200
  12743  12739  12745     1   110.2600474 425.931200
  12743  12739  12744     1   108.4600466 328.025600
  12744  12739  12745     1   110.2600474 425.931200
  12748  12749  12751     1   109.5600471 388.275200
  12748  12762  12766     1   109.5600471 388.275200
  12748  12762  12767     1   109.5600471 388.275200
  12749  12748  12750     1   109.5600471 388.275200
  12749  12752  12756     1   109.5600471 388.275200
  12749  12761  12764     1   107.2600461 396.643200
  12750  12748  12762     1   109.5600471 388.275200
  12750  12748  12770     1   109.7800468 425.094400
  12751  12749  12752     1   109.5600471 388.275200
  12751  12749  12761     1   110.2600474 425.931200
  12752  12753  12755     1   109.5600471 388.275200
  12752  12760  12763     1   107.2600461 396.643200
  12753  12752  12756     1   109.5600471 388.275200
  12753  12754  12757     1   110.2200475 386.601600
  12753  12759  12765     1   107.2600461 396.643200
  12754  12753  12755     1   109.5600471 388.275200
  12755  12753  12759     1   110.2600474 425.931200
  12756  12752  12760     1   110.2600474 425.931200
  12757  12754  12758     1   109.5800467 425.931200
  12757  12754  12770     1   109.5800467 425.931200
  12762  12768  12769     1   107.2600461 396.643200
  12766  12762  12768     1   110.2600474 425.931200
  12766  12762  12767     1   108.4600466 328.025600
  12767  12762  12768     1   110.2600474 425.931200
  12771  12772  12774     1   109.5600471 388.275200
  12771  12785  12789     1   109.5600471 388.275200
  12771  12785  12790     1   109.5600471 388.275200
  12772  12775  12779     1   109.5600471 388.275200
  12772  12784  12787     1   107.2600461 396.643200
  12772  12771  12773     1   109.5600471 388.275200
  12773  12771  12785     1   109.5600471 388.275200
  12773  12771  12793     1   109.7800468 425.094400
  12774  12772  12775     1   109.5600471 388.275200
  12774  12772  12784     1   110.2600474 425.931200
  12775  12776  12778     1   109.5600471 388.275200
  12775  12783  12786     1   107.2600461 396.643200
  12776  12777  12780     1   110.2200475 386.601600
  12776  12782  12788     1   107.2600461 396.643200
  12776  12775  12779     1   109.5600471 388.275200
  12777  12776  12778     1   109.5600471 388.275200
  12778  12776  12782     1   110.2600474 425.931200
  12779  12775  12783     1   110.2600474 425.931200
  12780  12777  12781     1   109.5800467 425.931200
  12780  12777  12793     1   109.5800467 425.931200
  12785  12791  12792     1   107.2600461 396.643200
  12789  12785  12791     1   110.2600474 425.931200
  12789  12785  12790     1   108.4600466 328.025600
  12790  12785  12791     1   110.2600474 425.931200
  12794  12795  12797     1   109.5600471 388.275200
  12794  12808  12812     1   109.5600471 388.275200
  12794  12808  12813     1   109.5600471 388.275200
  12795  12794  12796     1   109.5600471 388.275200
  12795  12798  12802     1   109.5600471 388.275200
  12795  12807  12810     1   107.2600461 396.643200
  12796  12794  12808     1   109.5600471 388.275200
  12796  12794  12816     1   109.7800468 425.094400
  12797  12795  12798     1   109.5600471 388.275200
  12797  12795  12807     1   110.2600474 425.931200
  12798  12799  12801     1   109.5600471 388.275200
  12798  12806  12809     1   107.2600461 396.643200
  12799  12798  12802     1   109.5600471 388.275200
  12799  12800  12803     1   110.2200475 386.601600
  12799  12805  12811     1   107.2600461 396.643200
  12800  12799  12801     1   109.5600471 388.275200
  12801  12799  12805     1   110.2600474 425.931200
  12802  12798  12806     1   110.2600474 425.931200
  12803  12800  12804     1   109.5800467 425.931200
  12803  12800  12816     1   109.5800467 425.931200
  12808  12814  12815     1   107.2600461 396.643200
  12812  12808  12814     1   110.2600474 425.931200
  12812  12808  12813     1   108.4600466 328.025600
  12813  12808  12814     1   110.2600474 425.931200
  12817  12818  12820     1   109.5600471 388.275200
  12817  12831  12835     1   109.5600471 388.275200
  12817  12831  12836     1   109.5600471 388.275200
  12818  12821  12825     1   109.5600471 388.275200
  12818  12830  12833     1   107.2600461 396.643200
  12818  12817  12819     1   109.5600471 388.275200
  12819  12817  12831     1   109.5600471 388.275200
  12819  12817  12839     1   109.7800468 425.094400
  12820  12818  12821     1   109.5600471 388.275200
  12820  12818  12830     1   110.2600474 425.931200
  12821  12822  12824     1   109.5600471 388.275200
  12821  12829  12832     1   107.2600461 396.643200
  12822  12823  12826     1   110.2200475 386.601600
  12822  12828  12834     1   107.2600461 396.643200
  12822  12821  12825     1   109.5600471 388.275200
  12823  12822  12824     1   109.5600471 388.275200
  12824  12822  12828     1   110.2600474 425.931200
  12825  12821  12829     1   110.2600474 425.931200
  12826  12823  12827     1   109.5800467 425.931200
  12826  12823  12839     1   109.5800467 425.931200
  12831  12837  12838     1   107.2600461 396.643200
  12835  12831  12837     1   110.2600474 425.931200
  12835  12831  12836     1   108.4600466 328.025600
  12836  12831  12837     1   110.2600474 425.931200
  12840  12841  12843     1   109.5600471 388.275200
  12840  12854  12858     1   109.5600471 388.275200
  12840  12854  12859     1   109.5600471 388.275200
  12841  12840  12842     1   109.5600471 388.275200
  12841  12844  12848     1   109.5600471 388.275200
  12841  12853  12856     1   107.2600461 396.643200
  12842  12840  12854     1   109.5600471 388.275200
  12842  12840  12862     1   109.7800468 425.094400
  12843  12841  12844     1   109.5600471 388.275200
  12843  12841  12853     1   110.2600474 425.931200
  12844  12845  12847     1   109.5600471 388.275200
  12844  12852  12855     1   107.2600461 396.643200
  12845  12844  12848     1   109.5600471 388.275200
  12845  12846  12849     1   110.2200475 386.601600
  12845  12851  12857     1   107.2600461 396.643200
  12846  12845  12847     1   109.5600471 388.275200
  12847  12845  12851     1   110.2600474 425.931200
  12848  12844  12852     1   110.2600474 425.931200
  12849  12846  12850     1   109.5800467 425.931200
  12849  12846  12862     1   109.5800467 425.931200
  12854  12860  12861     1   107.2600461 396.643200
  12858  12854  12860     1   110.2600474 425.931200
  12858  12854  12859     1   108.4600466 328.025600
  12859  12854  12860     1   110.2600474 425.931200
  12863  12864  12866     1   109.5600471 388.275200
  12863  12877  12881     1   109.5600471 388.275200
  12863  12877  12882     1   109.5600471 388.275200
  12864  12867  12871     1   109.5600471 388.275200
  12864  12876  12879     1   107.2600461 396.643200
  12864  12863  12865     1   109.5600471 388.275200
  12865  12863  12877     1   109.5600471 388.275200
  12865  12863  12885     1   109.7800468 425.094400
  12866  12864  12867     1   109.5600471 388.275200
  12866  12864  12876     1   110.2600474 425.931200
  12867  12868  12870     1   109.5600471 388.275200
  12867  12875  12878     1   107.2600461 396.643200
  12868  12869  12872     1   110.2200475 386.601600
  12868  12874  12880     1   107.2600461 396.643200
  12868  12867  12871     1   109.5600471 388.275200
  12869  12868  12870     1   109.5600471 388.275200
  12870  12868  12874     1   110.2600474 425.931200
  12871  12867  12875     1   110.2600474 425.931200
  12872  12869  12873     1   109.5800467 425.931200
  12872  12869  12885     1   109.5800467 425.931200
  12877  12883  12884     1   107.2600461 396.643200
  12881  12877  12883     1   110.2600474 425.931200
  12881  12877  12882     1   108.4600466 328.025600
  12882  12877  12883     1   110.2600474 425.931200
  12886  12887  12889     1   109.5600471 388.275200
  12886  12900  12904     1   109.5600471 388.275200
  12886  12900  12905     1   109.5600471 388.275200
  12887  12886  12888     1   109.5600471 388.275200
  12887  12890  12894     1   109.5600471 388.275200
  12887  12899  12902     1   107.2600461 396.643200
  12888  12886  12900     1   109.5600471 388.275200
  12888  12886  12908     1   109.7800468 425.094400
  12889  12887  12890     1   109.5600471 388.275200
  12889  12887  12899     1   110.2600474 425.931200
  12890  12891  12893     1   109.5600471 388.275200
  12890  12898  12901     1   107.2600461 396.643200
  12891  12890  12894     1   109.5600471 388.275200
  12891  12892  12895     1   110.2200475 386.601600
  12891  12897  12903     1   107.2600461 396.643200
  12892  12891  12893     1   109.5600471 388.275200
  12893  12891  12897     1   110.2600474 425.931200
  12894  12890  12898     1   110.2600474 425.931200
  12895  12892  12896     1   109.5800467 425.931200
  12895  12892  12908     1   109.5800467 425.931200
  12900  12906  12907     1   107.2600461 396.643200
  12904  12900  12906     1   110.2600474 425.931200
  12904  12900  12905     1   108.4600466 328.025600
  12905  12900  12906     1   110.2600474 425.931200
  12909  12910  12912     1   109.5600471 388.275200
  12909  12923  12927     1   109.5600471 388.275200
  12909  12923  12928     1   109.5600471 388.275200
  12910  12913  12917     1   109.5600471 388.275200
  12910  12922  12925     1   107.2600461 396.643200
  12910  12909  12911     1   109.5600471 388.275200
  12911  12909  12923     1   109.5600471 388.275200
  12911  12909  12931     1   109.7800468 425.094400
  12912  12910  12913     1   109.5600471 388.275200
  12912  12910  12922     1   110.2600474 425.931200
  12913  12914  12916     1   109.5600471 388.275200
  12913  12921  12924     1   107.2600461 396.643200
  12914  12915  12918     1   110.2200475 386.601600
  12914  12920  12926     1   107.2600461 396.643200
  12914  12913  12917     1   109.5600471 388.275200
  12915  12914  12916     1   109.5600471 388.275200
  12916  12914  12920     1   110.2600474 425.931200
  12917  12913  12921     1   110.2600474 425.931200
  12918  12915  12919     1   109.5800467 425.931200
  12918  12915  12931     1   109.5800467 425.931200
  12923  12929  12930     1   107.2600461 396.643200
  12927  12923  12929     1   110.2600474 425.931200
  12927  12923  12928     1   108.4600466 328.025600
  12928  12923  12929     1   110.2600474 425.931200
  12932  12933  12935     1   109.5600471 388.275200
  12932  12946  12950     1   109.5600471 388.275200
  12932  12946  12951     1   109.5600471 388.275200
  12933  12932  12934     1   109.5600471 388.275200
  12933  12936  12940     1   109.5600471 388.275200
  12933  12945  12948     1   107.2600461 396.643200
  12934  12932  12946     1   109.5600471 388.275200
  12934  12932  12954     1   109.7800468 425.094400
  12935  12933  12936     1   109.5600471 388.275200
  12935  12933  12945     1   110.2600474 425.931200
  12936  12937  12939     1   109.5600471 388.275200
  12936  12944  12947     1   107.2600461 396.643200
  12937  12936  12940     1   109.5600471 388.275200
  12937  12938  12941     1   110.2200475 386.601600
  12937  12943  12949     1   107.2600461 396.643200
  12938  12937  12939     1   109.5600471 388.275200
  12939  12937  12943     1   110.2600474 425.931200
  12940  12936  12944     1   110.2600474 425.931200
  12941  12938  12942     1   109.5800467 425.931200
  12941  12938  12954     1   109.5800467 425.931200
  12946  12952  12953     1   107.2600461 396.643200
  12950  12946  12952     1   110.2600474 425.931200
  12950  12946  12951     1   108.4600466 328.025600
  12951  12946  12952     1   110.2600474 425.931200
  12955  12956  12958     1   109.5600471 388.275200
  12955  12969  12973     1   109.5600471 388.275200
  12955  12969  12974     1   109.5600471 388.275200
  12956  12959  12963     1   109.5600471 388.275200
  12956  12968  12971     1   107.2600461 396.643200
  12956  12955  12957     1   109.5600471 388.275200
  12957  12955  12969     1   109.5600471 388.275200
  12957  12955  12977     1   109.7800468 425.094400
  12958  12956  12959     1   109.5600471 388.275200
  12958  12956  12968     1   110.2600474 425.931200
  12959  12960  12962     1   109.5600471 388.275200
  12959  12967  12970     1   107.2600461 396.643200
  12960  12961  12964     1   110.2200475 386.601600
  12960  12966  12972     1   107.2600461 396.643200
  12960  12959  12963     1   109.5600471 388.275200
  12961  12960  12962     1   109.5600471 388.275200
  12962  12960  12966     1   110.2600474 425.931200
  12963  12959  12967     1   110.2600474 425.931200
  12964  12961  12965     1   109.5800467 425.931200
  12964  12961  12977     1   109.5800467 425.931200
  12969  12975  12976     1   107.2600461 396.643200
  12973  12969  12975     1   110.2600474 425.931200
  12973  12969  12974     1   108.4600466 328.025600
  12974  12969  12975     1   110.2600474 425.931200
  12978  12979  12981     1   109.5600471 388.275200
  12978  12992  12996     1   109.5600471 388.275200
  12978  12992  12997     1   109.5600471 388.275200
  12979  12978  12980     1   109.5600471 388.275200
  12979  12982  12986     1   109.5600471 388.275200
  12979  12991  12994     1   107.2600461 396.643200
  12980  12978  12992     1   109.5600471 388.275200
  12980  12978  13000     1   109.7800468 425.094400
  12981  12979  12982     1   109.5600471 388.275200
  12981  12979  12991     1   110.2600474 425.931200
  12982  12983  12985     1   109.5600471 388.275200
  12982  12990  12993     1   107.2600461 396.643200
  12983  12982  12986     1   109.5600471 388.275200
  12983  12984  12987     1   110.2200475 386.601600
  12983  12989  12995     1   107.2600461 396.643200
  12984  12983  12985     1   109.5600471 388.275200
  12985  12983  12989     1   110.2600474 425.931200
  12986  12982  12990     1   110.2600474 425.931200
  12987  12984  12988     1   109.5800467 425.931200
  12987  12984  13000     1   109.5800467 425.931200
  12992  12998  12999     1   107.2600461 396.643200
  12996  12992  12998     1   110.2600474 425.931200
  12996  12992  12997     1   108.4600466 328.025600
  12997  12992  12998     1   110.2600474 425.931200
  13001  13002  13004     1   109.5600471 388.275200
  13001  13015  13019     1   109.5600471 388.275200
  13001  13015  13020     1   109.5600471 388.275200
  13002  13005  13009     1   109.5600471 388.275200
  13002  13014  13017     1   107.2600461 396.643200
  13002  13001  13003     1   109.5600471 388.275200
  13003  13001  13015     1   109.5600471 388.275200
  13003  13001  13023     1   109.7800468 425.094400
  13004  13002  13005     1   109.5600471 388.275200
  13004  13002  13014     1   110.2600474 425.931200
  13005  13006  13008     1   109.5600471 388.275200
  13005  13013  13016     1   107.2600461 396.643200
  13006  13007  13010     1   110.2200475 386.601600
  13006  13012  13018     1   107.2600461 396.643200
  13006  13005  13009     1   109.5600471 388.275200
  13007  13006  13008     1   109.5600471 388.275200
  13008  13006  13012     1   110.2600474 425.931200
  13009  13005  13013     1   110.2600474 425.931200
  13010  13007  13011     1   109.5800467 425.931200
  13010  13007  13023     1   109.5800467 425.931200
  13015  13021  13022     1   107.2600461 396.643200
  13019  13015  13021     1   110.2600474 425.931200
  13019  13015  13020     1   108.4600466 328.025600
  13020  13015  13021     1   110.2600474 425.931200
  13024  13025  13027     1   109.5600471 388.275200
  13024  13038  13042     1   109.5600471 388.275200
  13024  13038  13043     1   109.5600471 388.275200
  13025  13024  13026     1   109.5600471 388.275200
  13025  13028  13032     1   109.5600471 388.275200
  13025  13037  13040     1   107.2600461 396.643200
  13026  13024  13038     1   109.5600471 388.275200
  13026  13024  13046     1   109.7800468 425.094400
  13027  13025  13028     1   109.5600471 388.275200
  13027  13025  13037     1   110.2600474 425.931200
  13028  13029  13031     1   109.5600471 388.275200
  13028  13036  13039     1   107.2600461 396.643200
  13029  13028  13032     1   109.5600471 388.275200
  13029  13030  13033     1   110.2200475 386.601600
  13029  13035  13041     1   107.2600461 396.643200
  13030  13029  13031     1   109.5600471 388.275200
  13031  13029  13035     1   110.2600474 425.931200
  13032  13028  13036     1   110.2600474 425.931200
  13033  13030  13034     1   109.5800467 425.931200
  13033  13030  13046     1   109.5800467 425.931200
  13038  13044  13045     1   107.2600461 396.643200
  13042  13038  13044     1   110.2600474 425.931200
  13042  13038  13043     1   108.4600466 328.025600
  13043  13038  13044     1   110.2600474 425.931200
  13047  13048  13050     1   109.5600471 388.275200
  13047  13061  13065     1   109.5600471 388.275200
  13047  13061  13066     1   109.5600471 388.275200
  13048  13051  13055     1   109.5600471 388.275200
  13048  13060  13063     1   107.2600461 396.643200
  13048  13047  13049     1   109.5600471 388.275200
  13049  13047  13061     1   109.5600471 388.275200
  13049  13047  13069     1   109.7800468 425.094400
  13050  13048  13051     1   109.5600471 388.275200
  13050  13048  13060     1   110.2600474 425.931200
  13051  13052  13054     1   109.5600471 388.275200
  13051  13059  13062     1   107.2600461 396.643200
  13052  13053  13056     1   110.2200475 386.601600
  13052  13058  13064     1   107.2600461 396.643200
  13052  13051  13055     1   109.5600471 388.275200
  13053  13052  13054     1   109.5600471 388.275200
  13054  13052  13058     1   110.2600474 425.931200
  13055  13051  13059     1   110.2600474 425.931200
  13056  13053  13057     1   109.5800467 425.931200
  13056  13053  13069     1   109.5800467 425.931200
  13061  13067  13068     1   107.2600461 396.643200
  13065  13061  13067     1   110.2600474 425.931200
  13065  13061  13066     1   108.4600466 328.025600
  13066  13061  13067     1   110.2600474 425.931200
  13070  13071  13073     1   109.5600471 388.275200
  13070  13084  13088     1   109.5600471 388.275200
  13070  13084  13089     1   109.5600471 388.275200
  13071  13070  13072     1   109.5600471 388.275200
  13071  13074  13078     1   109.5600471 388.275200
  13071  13083  13086     1   107.2600461 396.643200
  13072  13070  13084     1   109.5600471 388.275200
  13072  13070  13092     1   109.7800468 425.094400
  13073  13071  13074     1   109.5600471 388.275200
  13073  13071  13083     1   110.2600474 425.931200
  13074  13075  13077     1   109.5600471 388.275200
  13074  13082  13085     1   107.2600461 396.643200
  13075  13074  13078     1   109.5600471 388.275200
  13075  13076  13079     1   110.2200475 386.601600
  13075  13081  13087     1   107.2600461 396.643200
  13076  13075  13077     1   109.5600471 388.275200
  13077  13075  13081     1   110.2600474 425.931200
  13078  13074  13082     1   110.2600474 425.931200
  13079  13076  13080     1   109.5800467 425.931200
  13079  13076  13092     1   109.5800467 425.931200
  13084  13090  13091     1   107.2600461 396.643200
  13088  13084  13090     1   110.2600474 425.931200
  13088  13084  13089     1   108.4600466 328.025600
  13089  13084  13090     1   110.2600474 425.931200
  13093  13094  13096     1   109.5600471 388.275200
  13093  13107  13111     1   109.5600471 388.275200
  13093  13107  13112     1   109.5600471 388.275200
  13094  13097  13101     1   109.5600471 388.275200
  13094  13106  13109     1   107.2600461 396.643200
  13094  13093  13095     1   109.5600471 388.275200
  13095  13093  13107     1   109.5600471 388.275200
  13095  13093  13115     1   109.7800468 425.094400
  13096  13094  13097     1   109.5600471 388.275200
  13096  13094  13106     1   110.2600474 425.931200
  13097  13098  13100     1   109.5600471 388.275200
  13097  13105  13108     1   107.2600461 396.643200
  13098  13099  13102     1   110.2200475 386.601600
  13098  13104  13110     1   107.2600461 396.643200
  13098  13097  13101     1   109.5600471 388.275200
  13099  13098  13100     1   109.5600471 388.275200
  13100  13098  13104     1   110.2600474 425.931200
  13101  13097  13105     1   110.2600474 425.931200
  13102  13099  13103     1   109.5800467 425.931200
  13102  13099  13115     1   109.5800467 425.931200
  13107  13113  13114     1   107.2600461 396.643200
  13111  13107  13113     1   110.2600474 425.931200
  13111  13107  13112     1   108.4600466 328.025600
  13112  13107  13113     1   110.2600474 425.931200
  13116  13117  13119     1   109.5600471 388.275200
  13116  13130  13134     1   109.5600471 388.275200
  13116  13130  13135     1   109.5600471 388.275200
  13117  13116  13118     1   109.5600471 388.275200
  13117  13120  13124     1   109.5600471 388.275200
  13117  13129  13132     1   107.2600461 396.643200
  13118  13116  13130     1   109.5600471 388.275200
  13118  13116  13138     1   109.7800468 425.094400
  13119  13117  13120     1   109.5600471 388.275200
  13119  13117  13129     1   110.2600474 425.931200
  13120  13121  13123     1   109.5600471 388.275200
  13120  13128  13131     1   107.2600461 396.643200
  13121  13120  13124     1   109.5600471 388.275200
  13121  13122  13125     1   110.2200475 386.601600
  13121  13127  13133     1   107.2600461 396.643200
  13122  13121  13123     1   109.5600471 388.275200
  13123  13121  13127     1   110.2600474 425.931200
  13124  13120  13128     1   110.2600474 425.931200
  13125  13122  13126     1   109.5800467 425.931200
  13125  13122  13138     1   109.5800467 425.931200
  13130  13136  13137     1   107.2600461 396.643200
  13134  13130  13136     1   110.2600474 425.931200
  13134  13130  13135     1   108.4600466 328.025600
  13135  13130  13136     1   110.2600474 425.931200
  13139  13140  13142     1   109.5600471 388.275200
  13139  13153  13157     1   109.5600471 388.275200
  13139  13153  13158     1   109.5600471 388.275200
  13140  13143  13147     1   109.5600471 388.275200
  13140  13152  13155     1   107.2600461 396.643200
  13140  13139  13141     1   109.5600471 388.275200
  13141  13139  13153     1   109.5600471 388.275200
  13141  13139  13161     1   109.7800468 425.094400
  13142  13140  13143     1   109.5600471 388.275200
  13142  13140  13152     1   110.2600474 425.931200
  13143  13144  13146     1   109.5600471 388.275200
  13143  13151  13154     1   107.2600461 396.643200
  13144  13145  13148     1   110.2200475 386.601600
  13144  13150  13156     1   107.2600461 396.643200
  13144  13143  13147     1   109.5600471 388.275200
  13145  13144  13146     1   109.5600471 388.275200
  13146  13144  13150     1   110.2600474 425.931200
  13147  13143  13151     1   110.2600474 425.931200
  13148  13145  13149     1   109.5800467 425.931200
  13148  13145  13161     1   109.5800467 425.931200
  13153  13159  13160     1   107.2600461 396.643200
  13157  13153  13159     1   110.2600474 425.931200
  13157  13153  13158     1   108.4600466 328.025600
  13158  13153  13159     1   110.2600474 425.931200
  13162  13163  13165     1   109.5600471 388.275200
  13162  13176  13180     1   109.5600471 388.275200
  13162  13176  13181     1   109.5600471 388.275200
  13163  13162  13164     1   109.5600471 388.275200
  13163  13166  13170     1   109.5600471 388.275200
  13163  13175  13178     1   107.2600461 396.643200
  13164  13162  13176     1   109.5600471 388.275200
  13164  13162  13184     1   109.7800468 425.094400
  13165  13163  13166     1   109.5600471 388.275200
  13165  13163  13175     1   110.2600474 425.931200
  13166  13167  13169     1   109.5600471 388.275200
  13166  13174  13177     1   107.2600461 396.643200
  13167  13166  13170     1   109.5600471 388.275200
  13167  13168  13171     1   110.2200475 386.601600
  13167  13173  13179     1   107.2600461 396.643200
  13168  13167  13169     1   109.5600471 388.275200
  13169  13167  13173     1   110.2600474 425.931200
  13170  13166  13174     1   110.2600474 425.931200
  13171  13168  13172     1   109.5800467 425.931200
  13171  13168  13184     1   109.5800467 425.931200
  13176  13182  13183     1   107.2600461 396.643200
  13180  13176  13182     1   110.2600474 425.931200
  13180  13176  13181     1   108.4600466 328.025600
  13181  13176  13182     1   110.2600474 425.931200
  13185  13186  13188     1   109.5600471 388.275200
  13185  13199  13203     1   109.5600471 388.275200
  13185  13199  13204     1   109.5600471 388.275200
  13186  13189  13193     1   109.5600471 388.275200
  13186  13198  13201     1   107.2600461 396.643200
  13186  13185  13187     1   109.5600471 388.275200
  13187  13185  13199     1   109.5600471 388.275200
  13187  13185  13207     1   109.7800468 425.094400
  13188  13186  13189     1   109.5600471 388.275200
  13188  13186  13198     1   110.2600474 425.931200
  13189  13190  13192     1   109.5600471 388.275200
  13189  13197  13200     1   107.2600461 396.643200
  13190  13191  13194     1   110.2200475 386.601600
  13190  13196  13202     1   107.2600461 396.643200
  13190  13189  13193     1   109.5600471 388.275200
  13191  13190  13192     1   109.5600471 388.275200
  13192  13190  13196     1   110.2600474 425.931200
  13193  13189  13197     1   110.2600474 425.931200
  13194  13191  13195     1   109.5800467 425.931200
  13194  13191  13207     1   109.5800467 425.931200
  13199  13205  13206     1   107.2600461 396.643200
  13203  13199  13205     1   110.2600474 425.931200
  13203  13199  13204     1   108.4600466 328.025600
  13204  13199  13205     1   110.2600474 425.931200
  13208  13209  13211     1   109.5600471 388.275200
  13208  13222  13226     1   109.5600471 388.275200
  13208  13222  13227     1   109.5600471 388.275200
  13209  13208  13210     1   109.5600471 388.275200
  13209  13212  13216     1   109.5600471 388.275200
  13209  13221  13224     1   107.2600461 396.643200
  13210  13208  13222     1   109.5600471 388.275200
  13210  13208  13230     1   109.7800468 425.094400
  13211  13209  13212     1   109.5600471 388.275200
  13211  13209  13221     1   110.2600474 425.931200
  13212  13213  13215     1   109.5600471 388.275200
  13212  13220  13223     1   107.2600461 396.643200
  13213  13212  13216     1   109.5600471 388.275200
  13213  13214  13217     1   110.2200475 386.601600
  13213  13219  13225     1   107.2600461 396.643200
  13214  13213  13215     1   109.5600471 388.275200
  13215  13213  13219     1   110.2600474 425.931200
  13216  13212  13220     1   110.2600474 425.931200
  13217  13214  13218     1   109.5800467 425.931200
  13217  13214  13230     1   109.5800467 425.931200
  13222  13228  13229     1   107.2600461 396.643200
  13226  13222  13228     1   110.2600474 425.931200
  13226  13222  13227     1   108.4600466 328.025600
  13227  13222  13228     1   110.2600474 425.931200
  13231  13232  13234     1   109.5600471 388.275200
  13231  13245  13249     1   109.5600471 388.275200
  13231  13245  13250     1   109.5600471 388.275200
  13232  13235  13239     1   109.5600471 388.275200
  13232  13244  13247     1   107.2600461 396.643200
  13232  13231  13233     1   109.5600471 388.275200
  13233  13231  13245     1   109.5600471 388.275200
  13233  13231  13253     1   109.7800468 425.094400
  13234  13232  13235     1   109.5600471 388.275200
  13234  13232  13244     1   110.2600474 425.931200
  13235  13236  13238     1   109.5600471 388.275200
  13235  13243  13246     1   107.2600461 396.643200
  13236  13237  13240     1   110.2200475 386.601600
  13236  13242  13248     1   107.2600461 396.643200
  13236  13235  13239     1   109.5600471 388.275200
  13237  13236  13238     1   109.5600471 388.275200
  13238  13236  13242     1   110.2600474 425.931200
  13239  13235  13243     1   110.2600474 425.931200
  13240  13237  13241     1   109.5800467 425.931200
  13240  13237  13253     1   109.5800467 425.931200
  13245  13251  13252     1   107.2600461 396.643200
  13249  13245  13251     1   110.2600474 425.931200
  13249  13245  13250     1   108.4600466 328.025600
  13250  13245  13251     1   110.2600474 425.931200

[ dihedrals ]
;    ai     aj     ak     al funct         c0         c1         c2         c3         c4         c5
      1      2      8     14     1  0.0000000  0.6508444  3
      1      5     11     17     1  0.0000000  0.6508444  3
      2      1      5     11     1  180.0000771  0.4184000  2
      2      1      5     11     1  0.0000000  1.6024720  3
      2      8     14     20     1  0.0000000  0.6508444  3
      5      1      2      8     1  180.0000771  0.4184000  2
      5      1      2      8     1  0.0000000  1.6024720  3
      5     11     17     21     1  0.0000000  0.6508444  3
      8     14     20     28     1  180.0000771  2.0083200  2
      8     14     20     28     1  0.0000000  1.2552000  3
      8     14     20     31     1  180.0000771  2.0083200  2
      8     14     20     31     1  0.0000000  1.2552000  3
     11     17     21     22     1  180.0000771  2.0083200  2
     11     17     21     22     1  0.0000000  1.2552000  3
     11     17     21     25     1  180.0000771  2.0083200  2
     11     17     21     25     1  0.0000000  1.2552000  3
     14     20     28     40     1  180.0000771  2.0083200  2
     14     20     28     40     1  0.0000000  1.2552000  3
     14     20     31     43     1  180.0000771  2.0083200  2
     14     20     31     43     1  0.0000000  1.2552000  3
     17     21     22     34     1  180.0000771  2.0083200  2
     17     21     22     34     1  0.0000000  1.2552000  3
     17     21     25     37     1  180.0000771  2.0083200  2
     17     21     25     37     1  0.0000000  1.2552000  3
     20     28     40     49     1  0.0000000  0.6508444  3
     20     31     43     46     1  0.0000000  0.6508444  3
     21     22     34     55     1  0.0000000  0.6508444  3
     21     25     37     52     1  0.0000000  0.6508444  3
     22     21     25     37     1  180.0000771  2.0083200  2
     22     21     25     37     1  0.0000000  1.2552000  3
     22     34     55    173     1  0.0000000  0.6508444  3
     25     21     22     34     1  180.0000771  2.0083200  2
     25     21     22     34     1  0.0000000  1.2552000  3
     25     37     52    144     1  0.0000000  0.6508444  3
     28     20     31     43     1  180.0000771  2.0083200  2
     28     20     31     43     1  0.0000000  1.2552000  3
     28     40     49    115     1  0.0000000  0.6508444  3
     31     20     28     40     1  180.0000771  2.0083200  2
     31     20     28     40     1  0.0000000  1.2552000  3
     31     43     46     86     1  0.0000000  0.6508444  3
     34     55    173    164     1  180.0000771  0.4184000  2
     34     55    173    164     1  0.0000000  1.6024720  3
     37     52    144    135     1  180.0000771  0.4184000  2
     37     52    144    135     1  0.0000000  1.6024720  3
     40     49    115    106     1  180.0000771  0.4184000  2
     40     49    115    106     1  0.0000000  1.6024720  3
     43     46     86     77     1  180.0000771  0.4184000  2
     43     46     86     77     1  0.0000000  1.6024720  3
     46     86     77     68     1  180.0000771  0.4184000  2
     46     86     77     68     1  0.0000000  1.6024720  3
     49    115    106     97     1  180.0000771  0.4184000  2
     49    115    106     97     1  0.0000000  1.6024720  3
     52    144    135    126     1  180.0000771  0.4184000  2
     52    144    135    126     1  0.0000000  1.6024720  3
     55    173    164    155     1  180.0000771  0.4184000  2
     55    173    164    155     1  0.0000000  1.6024720  3
     58     59     71     83     1  0.0000000  0.6508444  3
     58     62     74     80     1  0.0000000  0.6508444  3
     58     65     68     77     1  0.0000000  0.6508444  3
     59     58     62     74     1  180.0000771  2.0083200  2
     59     58     62     74     1  0.0000000  1.2552000  3
     59     58     65     68     1  180.0000771  2.0083200  2
     59     58     65     68     1  0.0000000  1.2552000  3
     59     71     83    231     1  0.0000000  0.6508444  3
     62     58     59     71     1  180.0000771  2.0083200  2
     62     58     59     71     1  0.0000000  1.2552000  3
     62     58     65     68     1  180.0000771  2.0083200  2
     62     58     65     68     1  0.0000000  1.2552000  3
     62     74     80    202     1  0.0000000  0.6508444  3
     65     58     59     71     1  180.0000771  2.0083200  2
     65     58     59     71     1  0.0000000  1.2552000  3
     65     58     62     74     1  180.0000771  2.0083200  2
     65     58     62     74     1  0.0000000  1.2552000  3
     65     68     77     86     1  0.0000000  0.6508444  3
     71     83    231    222     1  180.0000771  0.4184000  2
     71     83    231    222     1  0.0000000  1.6024720  3
     74     80    202    193     1  180.0000771  0.4184000  2
     74     80    202    193     1  0.0000000  1.6024720  3
     80    202    193    184     1  180.0000771  0.4184000  2
     80    202    193    184     1  0.0000000  1.6024720  3
     83    231    222    213     1  180.0000771  0.4184000  2
     83    231    222    213     1  0.0000000  1.6024720  3
     87     88    100    112     1  0.0000000  0.6508444  3
     87     91    103    109     1  0.0000000  0.6508444  3
     87     94     97    106     1  0.0000000  0.6508444  3
     88     87     91    103     1  180.0000771  2.0083200  2
     88     87     91    103     1  0.0000000  1.2552000  3
     88     87     94     97     1  180.0000771  2.0083200  2
     88     87     94     97     1  0.0000000  1.2552000  3
     88    100    112    289     1  0.0000000  0.6508444  3
     91     87     88    100     1  180.0000771  2.0083200  2
     91     87     88    100     1  0.0000000  1.2552000  3
     91     87     94     97     1  180.0000771  2.0083200  2
     91     87     94     97     1  0.0000000  1.2552000  3
     91    103    109    260     1  0.0000000  0.6508444  3
     94     87     88    100     1  180.0000771  2.0083200  2
     94     87     88    100     1  0.0000000  1.2552000  3
     94     87     91    103     1  180.0000771  2.0083200  2
     94     87     91    103     1  0.0000000  1.2552000  3
     94     97    106    115     1  0.0000000  0.6508444  3
    100    112    289    280     1  180.0000771  0.4184000  2
    100    112    289    280     1  0.0000000  1.6024720  3
    103    109    260    251     1  180.0000771  0.4184000  2
    103    109    260    251     1  0.0000000  1.6024720  3
    109    260    251    242     1  180.0000771  0.4184000  2
    109    260    251    242     1  0.0000000  1.6024720  3
    112    289    280    271     1  180.0000771  0.4184000  2
    112    289    280    271     1  0.0000000  1.6024720  3
    116    117    129    141     1  0.0000000  0.6508444  3
    116    120    132    138     1  0.0000000  0.6508444  3
    116    123    126    135     1  0.0000000  0.6508444  3
    117    116    120    132     1  180.0000771  2.0083200  2
    117    116    120    132     1  0.0000000  1.2552000  3
    117    116    123    126     1  180.0000771  2.0083200  2
    117    116    123    126     1  0.0000000  1.2552000  3
    117    129    141    347     1  0.0000000  0.6508444  3
    120    116    117    129     1  180.0000771  2.0083200  2
    120    116    117    129     1  0.0000000  1.2552000  3
    120    116    123    126     1  180.0000771  2.0083200  2
    120    116    123    126     1  0.0000000  1.2552000  3
    120    132    138    318     1  0.0000000  0.6508444  3
    123    116    117    129     1  180.0000771  2.0083200  2
    123    116    117    129     1  0.0000000  1.2552000  3
    123    116    120    132     1  180.0000771  2.0083200  2
    123    116    120    132     1  0.0000000  1.2552000  3
    123    126    135    144     1  0.0000000  0.6508444  3
    129    141    347    338     1  180.0000771  0.4184000  2
    129    141    347    338     1  0.0000000  1.6024720  3
    132    138    318    309     1  180.0000771  0.4184000  2
    132    138    318    309     1  0.0000000  1.6024720  3
    138    318    309    300     1  180.0000771  0.4184000  2
    138    318    309    300     1  0.0000000  1.6024720  3
    141    347    338    329     1  180.0000771  0.4184000  2
    141    347    338    329     1  0.0000000  1.6024720  3
    145    146    158    170     1  0.0000000  0.6508444  3
    145    149    161    167     1  0.0000000  0.6508444  3
    145    152    155    164     1  0.0000000  0.6508444  3
    146    145    149    161     1  180.0000771  2.0083200  2
    146    145    149    161     1  0.0000000  1.2552000  3
    146    145    152    155     1  180.0000771  2.0083200  2
    146    145    152    155     1  0.0000000  1.2552000  3
    146    158    170    405     1  0.0000000  0.6508444  3
    149    145    146    158     1  180.0000771  2.0083200  2
    149    145    146    158     1  0.0000000  1.2552000  3
    149    145    152    155     1  180.0000771  2.0083200  2
    149    145    152    155     1  0.0000000  1.2552000  3
    149    161    167    376     1  0.0000000  0.6508444  3
    152    145    146    158     1  180.0000771  2.0083200  2
    152    145    146    158     1  0.0000000  1.2552000  3
    152    145    149    161     1  180.0000771  2.0083200  2
    152    145    149    161     1  0.0000000  1.2552000  3
    152    155    164    173     1  0.0000000  0.6508444  3
    158    170    405    396     1  180.0000771  0.4184000  2
    158    170    405    396     1  0.0000000  1.6024720  3
    161    167    376    367     1  180.0000771  0.4184000  2
    161    167    376    367     1  0.0000000  1.6024720  3
    167    376    367    358     1  180.0000771  0.4184000  2
    167    376    367    358     1  0.0000000  1.6024720  3
    170    405    396    387     1  180.0000771  0.4184000  2
    170    405    396    387     1  0.0000000  1.6024720  3
    174    175    187    199     1  0.0000000  0.6508444  3
    174    178    190    196     1  0.0000000  0.6508444  3
    174    181    184    193     1  0.0000000  0.6508444  3
    175    174    178    190     1  180.0000771  2.0083200  2
    175    174    178    190     1  0.0000000  1.2552000  3
    175    174    181    184     1  180.0000771  2.0083200  2
    175    174    181    184     1  0.0000000  1.2552000  3
    175    187    199    463     1  0.0000000  0.6508444  3
    178    174    175    187     1  180.0000771  2.0083200  2
    178    174    175    187     1  0.0000000  1.2552000  3
    178    174    181    184     1  180.0000771  2.0083200  2
    178    174    181    184     1  0.0000000  1.2552000  3
    178    190    196    434     1  0.0000000  0.6508444  3
    181    174    175    187     1  180.0000771  2.0083200  2
    181    174    175    187     1  0.0000000  1.2552000  3
    181    174    178    190     1  180.0000771  2.0083200  2
    181    174    178    190     1  0.0000000  1.2552000  3
    181    184    193    202     1  0.0000000  0.6508444  3
    187    199    463    454     1  180.0000771  0.4184000  2
    187    199    463    454     1  0.0000000  1.6024720  3
    190    196    434    425     1  180.0000771  0.4184000  2
    190    196    434    425     1  0.0000000  1.6024720  3
    196    434    425    416     1  180.0000771  0.4184000  2
    196    434    425    416     1  0.0000000  1.6024720  3
    199    463    454    445     1  180.0000771  0.4184000  2
    199    463    454    445     1  0.0000000  1.6024720  3
    203    204    216    228     1  0.0000000  0.6508444  3
    203    207    219    225     1  0.0000000  0.6508444  3
    203    210    213    222     1  0.0000000  0.6508444  3
    204    203    207    219     1  180.0000771  2.0083200  2
    204    203    207    219     1  0.0000000  1.2552000  3
    204    203    210    213     1  180.0000771  2.0083200  2
    204    203    210    213     1  0.0000000  1.2552000  3
    204    216    228    521     1  0.0000000  0.6508444  3
    207    203    204    216     1  180.0000771  2.0083200  2
    207    203    204    216     1  0.0000000  1.2552000  3
    207    203    210    213     1  180.0000771  2.0083200  2
    207    203    210    213     1  0.0000000  1.2552000  3
    207    219    225    492     1  0.0000000  0.6508444  3
    210    203    204    216     1  180.0000771  2.0083200  2
    210    203    204    216     1  0.0000000  1.2552000  3
    210    203    207    219     1  180.0000771  2.0083200  2
    210    203    207    219     1  0.0000000  1.2552000  3
    210    213    222    231     1  0.0000000  0.6508444  3
    216    228    521    512     1  180.0000771  0.4184000  2
    216    228    521    512     1  0.0000000  1.6024720  3
    219    225    492    483     1  180.0000771  0.4184000  2
    219    225    492    483     1  0.0000000  1.6024720  3
    225    492    483    474     1  180.0000771  0.4184000  2
    225    492    483    474     1  0.0000000  1.6024720  3
    228    521    512    503     1  180.0000771  0.4184000  2
    228    521    512    503     1  0.0000000  1.6024720  3
    232    233    245    257     1  0.0000000  0.6508444  3
    232    236    248    254     1  0.0000000  0.6508444  3
    232    239    242    251     1  0.0000000  0.6508444  3
    233    232    236    248     1  180.0000771  2.0083200  2
    233    232    236    248     1  0.0000000  1.2552000  3
    233    232    239    242     1  180.0000771  2.0083200  2
    233    232    239    242     1  0.0000000  1.2552000  3
    233    245    257    579     1  0.0000000  0.6508444  3
    236    232    233    245     1  180.0000771  2.0083200  2
    236    232    233    245     1  0.0000000  1.2552000  3
    236    232    239    242     1  180.0000771  2.0083200  2
    236    232    239    242     1  0.0000000  1.2552000  3
    236    248    254    550     1  0.0000000  0.6508444  3
    239    232    233    245     1  180.0000771  2.0083200  2
    239    232    233    245     1  0.0000000  1.2552000  3
    239    232    236    248     1  180.0000771  2.0083200  2
    239    232    236    248     1  0.0000000  1.2552000  3
    239    242    251    260     1  0.0000000  0.6508444  3
    245    257    579    570     1  180.0000771  0.4184000  2
    245    257    579    570     1  0.0000000  1.6024720  3
    248    254    550    541     1  180.0000771  0.4184000  2
    248    254    550    541     1  0.0000000  1.6024720  3
    254    550    541    532     1  180.0000771  0.4184000  2
    254    550    541    532     1  0.0000000  1.6024720  3
    257    579    570    561     1  180.0000771  0.4184000  2
    257    579    570    561     1  0.0000000  1.6024720  3
    261    262    274    286     1  0.0000000  0.6508444  3
    261    265    277    283     1  0.0000000  0.6508444  3
    261    268    271    280     1  0.0000000  0.6508444  3
    262    261    265    277     1  180.0000771  2.0083200  2
    262    261    265    277     1  0.0000000  1.2552000  3
    262    261    268    271     1  180.0000771  2.0083200  2
    262    261    268    271     1  0.0000000  1.2552000  3
    262    274    286    637     1  0.0000000  0.6508444  3
    265    261    262    274     1  180.0000771  2.0083200  2
    265    261    262    274     1  0.0000000  1.2552000  3
    265    261    268    271     1  180.0000771  2.0083200  2
    265    261    268    271     1  0.0000000  1.2552000  3
    265    277    283    608     1  0.0000000  0.6508444  3
    268    261    262    274     1  180.0000771  2.0083200  2
    268    261    262    274     1  0.0000000  1.2552000  3
    268    261    265    277     1  180.0000771  2.0083200  2
    268    261    265    277     1  0.0000000  1.2552000  3
    268    271    280    289     1  0.0000000  0.6508444  3
    274    286    637    628     1  180.0000771  0.4184000  2
    274    286    637    628     1  0.0000000  1.6024720  3
    277    283    608    599     1  180.0000771  0.4184000  2
    277    283    608    599     1  0.0000000  1.6024720  3
    283    608    599    590     1  180.0000771  0.4184000  2
    283    608    599    590     1  0.0000000  1.6024720  3
    286    637    628    619     1  180.0000771  0.4184000  2
    286    637    628    619     1  0.0000000  1.6024720  3
    290    291    303    315     1  0.0000000  0.6508444  3
    290    294    306    312     1  0.0000000  0.6508444  3
    290    297    300    309     1  0.0000000  0.6508444  3
    291    290    294    306     1  180.0000771  2.0083200  2
    291    290    294    306     1  0.0000000  1.2552000  3
    291    290    297    300     1  180.0000771  2.0083200  2
    291    290    297    300     1  0.0000000  1.2552000  3
    291    303    315    695     1  0.0000000  0.6508444  3
    294    290    291    303     1  180.0000771  2.0083200  2
    294    290    291    303     1  0.0000000  1.2552000  3
    294    290    297    300     1  180.0000771  2.0083200  2
    294    290    297    300     1  0.0000000  1.2552000  3
    294    306    312    666     1  0.0000000  0.6508444  3
    297    290    291    303     1  180.0000771  2.0083200  2
    297    290    291    303     1  0.0000000  1.2552000  3
    297    290    294    306     1  180.0000771  2.0083200  2
    297    290    294    306     1  0.0000000  1.2552000  3
    297    300    309    318     1  0.0000000  0.6508444  3
    303    315    695    686     1  180.0000771  0.4184000  2
    303    315    695    686     1  0.0000000  1.6024720  3
    306    312    666    657     1  180.0000771  0.4184000  2
    306    312    666    657     1  0.0000000  1.6024720  3
    312    666    657    648     1  180.0000771  0.4184000  2
    312    666    657    648     1  0.0000000  1.6024720  3
    315    695    686    677     1  180.0000771  0.4184000  2
    315    695    686    677     1  0.0000000  1.6024720  3
    319    320    332    344     1  0.0000000  0.6508444  3
    319    323    335    341     1  0.0000000  0.6508444  3
    319    326    329    338     1  0.0000000  0.6508444  3
    320    319    323    335     1  180.0000771  2.0083200  2
    320    319    323    335     1  0.0000000  1.2552000  3
    320    319    326    329     1  180.0000771  2.0083200  2
    320    319    326    329     1  0.0000000  1.2552000  3
    320    332    344    753     1  0.0000000  0.6508444  3
    323    319    320    332     1  180.0000771  2.0083200  2
    323    319    320    332     1  0.0000000  1.2552000  3
    323    319    326    329     1  180.0000771  2.0083200  2
    323    319    326    329     1  0.0000000  1.2552000  3
    323    335    341    724     1  0.0000000  0.6508444  3
    326    319    320    332     1  180.0000771  2.0083200  2
    326    319    320    332     1  0.0000000  1.2552000  3
    326    319    323    335     1  180.0000771  2.0083200  2
    326    319    323    335     1  0.0000000  1.2552000  3
    326    329    338    347     1  0.0000000  0.6508444  3
    332    344    753    744     1  180.0000771  0.4184000  2
    332    344    753    744     1  0.0000000  1.6024720  3
    335    341    724    715     1  180.0000771  0.4184000  2
    335    341    724    715     1  0.0000000  1.6024720  3
    341    724    715    706     1  180.0000771  0.4184000  2
    341    724    715    706     1  0.0000000  1.6024720  3
    344    753    744    735     1  180.0000771  0.4184000  2
    344    753    744    735     1  0.0000000  1.6024720  3
    348    349    361    373     1  0.0000000  0.6508444  3
    348    352    364    370     1  0.0000000  0.6508444  3
    348    355    358    367     1  0.0000000  0.6508444  3
    349    348    352    364     1  180.0000771  2.0083200  2
    349    348    352    364     1  0.0000000  1.2552000  3
    349    348    355    358     1  180.0000771  2.0083200  2
    349    348    355    358     1  0.0000000  1.2552000  3
    349    361    373    811     1  0.0000000  0.6508444  3
    352    348    349    361     1  180.0000771  2.0083200  2
    352    348    349    361     1  0.0000000  1.2552000  3
    352    348    355    358     1  180.0000771  2.0083200  2
    352    348    355    358     1  0.0000000  1.2552000  3
    352    364    370    782     1  0.0000000  0.6508444  3
    355    348    349    361     1  180.0000771  2.0083200  2
    355    348    349    361     1  0.0000000  1.2552000  3
    355    348    352    364     1  180.0000771  2.0083200  2
    355    348    352    364     1  0.0000000  1.2552000  3
    355    358    367    376     1  0.0000000  0.6508444  3
    361    373    811    802     1  180.0000771  0.4184000  2
    361    373    811    802     1  0.0000000  1.6024720  3
    364    370    782    773     1  180.0000771  0.4184000  2
    364    370    782    773     1  0.0000000  1.6024720  3
    370    782    773    764     1  180.0000771  0.4184000  2
    370    782    773    764     1  0.0000000  1.6024720  3
    373    811    802    793     1  180.0000771  0.4184000  2
    373    811    802    793     1  0.0000000  1.6024720  3
    377    378    390    402     1  0.0000000  0.6508444  3
    377    381    393    399     1  0.0000000  0.6508444  3
    377    384    387    396     1  0.0000000  0.6508444  3
    378    377    381    393     1  180.0000771  2.0083200  2
    378    377    381    393     1  0.0000000  1.2552000  3
    378    377    384    387     1  180.0000771  2.0083200  2
    378    377    384    387     1  0.0000000  1.2552000  3
    378    390    402    869     1  0.0000000  0.6508444  3
    381    377    378    390     1  180.0000771  2.0083200  2
    381    377    378    390     1  0.0000000  1.2552000  3
    381    377    384    387     1  180.0000771  2.0083200  2
    381    377    384    387     1  0.0000000  1.2552000  3
    381    393    399    840     1  0.0000000  0.6508444  3
    384    377    378    390     1  180.0000771  2.0083200  2
    384    377    378    390     1  0.0000000  1.2552000  3
    384    377    381    393     1  180.0000771  2.0083200  2
    384    377    381    393     1  0.0000000  1.2552000  3
    384    387    396    405     1  0.0000000  0.6508444  3
    390    402    869    860     1  180.0000771  0.4184000  2
    390    402    869    860     1  0.0000000  1.6024720  3
    393    399    840    831     1  180.0000771  0.4184000  2
    393    399    840    831     1  0.0000000  1.6024720  3
    399    840    831    822     1  180.0000771  0.4184000  2
    399    840    831    822     1  0.0000000  1.6024720  3
    402    869    860    851     1  180.0000771  0.4184000  2
    402    869    860    851     1  0.0000000  1.6024720  3
    406    407    419    431     1  0.0000000  0.6508444  3
    406    410    422    428     1  0.0000000  0.6508444  3
    406    413    416    425     1  0.0000000  0.6508444  3
    407    406    410    422     1  180.0000771  2.0083200  2
    407    406    410    422     1  0.0000000  1.2552000  3
    407    406    413    416     1  180.0000771  2.0083200  2
    407    406    413    416     1  0.0000000  1.2552000  3
    407    419    431    927     1  0.0000000  0.6508444  3
    410    406    407    419     1  180.0000771  2.0083200  2
    410    406    407    419     1  0.0000000  1.2552000  3
    410    406    413    416     1  180.0000771  2.0083200  2
    410    406    413    416     1  0.0000000  1.2552000  3
    410    422    428    898     1  0.0000000  0.6508444  3
    413    406    407    419     1  180.0000771  2.0083200  2
    413    406    407    419     1  0.0000000  1.2552000  3
    413    406    410    422     1  180.0000771  2.0083200  2
    413    406    410    422     1  0.0000000  1.2552000  3
    413    416    425    434     1  0.0000000  0.6508444  3
    419    431    927    918     1  180.0000771  0.4184000  2
    419    431    927    918     1  0.0000000  1.6024720  3
    422    428    898    889     1  180.0000771  0.4184000  2
    422    428    898    889     1  0.0000000  1.6024720  3
    428    898    889    880     1  180.0000771  0.4184000  2
    428    898    889    880     1  0.0000000  1.6024720  3
    431    927    918    909     1  180.0000771  0.4184000  2
    431    927    918    909     1  0.0000000  1.6024720  3
    435    436    448    460     1  0.0000000  0.6508444  3
    435    439    451    457     1  0.0000000  0.6508444  3
    435    442    445    454     1  0.0000000  0.6508444  3
    436    435    439    451     1  180.0000771  2.0083200  2
    436    435    439    451     1  0.0000000  1.2552000  3
    436    435    442    445     1  180.0000771  2.0083200  2
    436    435    442    445     1  0.0000000  1.2552000  3
    436    448    460    985     1  0.0000000  0.6508444  3
    439    435    436    448     1  180.0000771  2.0083200  2
    439    435    436    448     1  0.0000000  1.2552000  3
    439    435    442    445     1  180.0000771  2.0083200  2
    439    435    442    445     1  0.0000000  1.2552000  3
    439    451    457    956     1  0.0000000  0.6508444  3
    442    435    436    448     1  180.0000771  2.0083200  2
    442    435    436    448     1  0.0000000  1.2552000  3
    442    435    439    451     1  180.0000771  2.0083200  2
    442    435    439    451     1  0.0000000  1.2552000  3
    442    445    454    463     1  0.0000000  0.6508444  3
    448    460    985    976     1  180.0000771  0.4184000  2
    448    460    985    976     1  0.0000000  1.6024720  3
    451    457    956    947     1  180.0000771  0.4184000  2
    451    457    956    947     1  0.0000000  1.6024720  3
    457    956    947    938     1  180.0000771  0.4184000  2
    457    956    947    938     1  0.0000000  1.6024720  3
    460    985    976    967     1  180.0000771  0.4184000  2
    460    985    976    967     1  0.0000000  1.6024720  3
    464    465    477    489     1  0.0000000  0.6508444  3
    464    468    480    486     1  0.0000000  0.6508444  3
    464    471    474    483     1  0.0000000  0.6508444  3
    465    464    468    480     1  180.0000771  2.0083200  2
    465    464    468    480     1  0.0000000  1.2552000  3
    465    464    471    474     1  180.0000771  2.0083200  2
    465    464    471    474     1  0.0000000  1.2552000  3
    465    477    489   1043     1  0.0000000  0.6508444  3
    468    464    465    477     1  180.0000771  2.0083200  2
    468    464    465    477     1  0.0000000  1.2552000  3
    468    464    471    474     1  180.0000771  2.0083200  2
    468    464    471    474     1  0.0000000  1.2552000  3
    468    480    486   1014     1  0.0000000  0.6508444  3
    471    464    465    477     1  180.0000771  2.0083200  2
    471    464    465    477     1  0.0000000  1.2552000  3
    471    464    468    480     1  180.0000771  2.0083200  2
    471    464    468    480     1  0.0000000  1.2552000  3
    471    474    483    492     1  0.0000000  0.6508444  3
    477    489   1043   1034     1  180.0000771  0.4184000  2
    477    489   1043   1034     1  0.0000000  1.6024720  3
    480    486   1014   1005     1  180.0000771  0.4184000  2
    480    486   1014   1005     1  0.0000000  1.6024720  3
    486   1014   1005    996     1  180.0000771  0.4184000  2
    486   1014   1005    996     1  0.0000000  1.6024720  3
    489   1043   1034   1025     1  180.0000771  0.4184000  2
    489   1043   1034   1025     1  0.0000000  1.6024720  3
    493    494    506    518     1  0.0000000  0.6508444  3
    493    497    509    515     1  0.0000000  0.6508444  3
    493    500    503    512     1  0.0000000  0.6508444  3
    494    493    497    509     1  180.0000771  2.0083200  2
    494    493    497    509     1  0.0000000  1.2552000  3
    494    493    500    503     1  180.0000771  2.0083200  2
    494    493    500    503     1  0.0000000  1.2552000  3
    494    506    518   1101     1  0.0000000  0.6508444  3
    497    493    494    506     1  180.0000771  2.0083200  2
    497    493    494    506     1  0.0000000  1.2552000  3
    497    493    500    503     1  180.0000771  2.0083200  2
    497    493    500    503     1  0.0000000  1.2552000  3
    497    509    515   1072     1  0.0000000  0.6508444  3
    500    493    494    506     1  180.0000771  2.0083200  2
    500    493    494    506     1  0.0000000  1.2552000  3
    500    493    497    509     1  180.0000771  2.0083200  2
    500    493    497    509     1  0.0000000  1.2552000  3
    500    503    512    521     1  0.0000000  0.6508444  3
    506    518   1101   1092     1  180.0000771  0.4184000  2
    506    518   1101   1092     1  0.0000000  1.6024720  3
    509    515   1072   1063     1  180.0000771  0.4184000  2
    509    515   1072   1063     1  0.0000000  1.6024720  3
    515   1072   1063   1054     1  180.0000771  0.4184000  2
    515   1072   1063   1054     1  0.0000000  1.6024720  3
    518   1101   1092   1083     1  180.0000771  0.4184000  2
    518   1101   1092   1083     1  0.0000000  1.6024720  3
    522    523    535    547     1  0.0000000  0.6508444  3
    522    526    538    544     1  0.0000000  0.6508444  3
    522    529    532    541     1  0.0000000  0.6508444  3
    523    522    526    538     1  180.0000771  2.0083200  2
    523    522    526    538     1  0.0000000  1.2552000  3
    523    522    529    532     1  180.0000771  2.0083200  2
    523    522    529    532     1  0.0000000  1.2552000  3
    523    535    547   1159     1  0.0000000  0.6508444  3
    526    522    523    535     1  180.0000771  2.0083200  2
    526    522    523    535     1  0.0000000  1.2552000  3
    526    522    529    532     1  180.0000771  2.0083200  2
    526    522    529    532     1  0.0000000  1.2552000  3
    526    538    544   1130     1  0.0000000  0.6508444  3
    529    522    523    535     1  180.0000771  2.0083200  2
    529    522    523    535     1  0.0000000  1.2552000  3
    529    522    526    538     1  180.0000771  2.0083200  2
    529    522    526    538     1  0.0000000  1.2552000  3
    529    532    541    550     1  0.0000000  0.6508444  3
    535    547   1159   1150     1  180.0000771  0.4184000  2
    535    547   1159   1150     1  0.0000000  1.6024720  3
    538    544   1130   1121     1  180.0000771  0.4184000  2
    538    544   1130   1121     1  0.0000000  1.6024720  3
    544   1130   1121   1112     1  180.0000771  0.4184000  2
    544   1130   1121   1112     1  0.0000000  1.6024720  3
    547   1159   1150   1141     1  180.0000771  0.4184000  2
    547   1159   1150   1141     1  0.0000000  1.6024720  3
    551    552    564    576     1  0.0000000  0.6508444  3
    551    555    567    573     1  0.0000000  0.6508444  3
    551    558    561    570     1  0.0000000  0.6508444  3
    552    551    555    567     1  180.0000771  2.0083200  2
    552    551    555    567     1  0.0000000  1.2552000  3
    552    551    558    561     1  180.0000771  2.0083200  2
    552    551    558    561     1  0.0000000  1.2552000  3
    552    564    576   1217     1  0.0000000  0.6508444  3
    555    551    552    564     1  180.0000771  2.0083200  2
    555    551    552    564     1  0.0000000  1.2552000  3
    555    551    558    561     1  180.0000771  2.0083200  2
    555    551    558    561     1  0.0000000  1.2552000  3
    555    567    573   1188     1  0.0000000  0.6508444  3
    558    551    552    564     1  180.0000771  2.0083200  2
    558    551    552    564     1  0.0000000  1.2552000  3
    558    551    555    567     1  180.0000771  2.0083200  2
    558    551    555    567     1  0.0000000  1.2552000  3
    558    561    570    579     1  0.0000000  0.6508444  3
    564    576   1217   1208     1  180.0000771  0.4184000  2
    564    576   1217   1208     1  0.0000000  1.6024720  3
    567    573   1188   1179     1  180.0000771  0.4184000  2
    567    573   1188   1179     1  0.0000000  1.6024720  3
    573   1188   1179   1170     1  180.0000771  0.4184000  2
    573   1188   1179   1170     1  0.0000000  1.6024720  3
    576   1217   1208   1199     1  180.0000771  0.4184000  2
    576   1217   1208   1199     1  0.0000000  1.6024720  3
    580    581    593    605     1  0.0000000  0.6508444  3
    580    584    596    602     1  0.0000000  0.6508444  3
    580    587    590    599     1  0.0000000  0.6508444  3
    581    580    584    596     1  180.0000771  2.0083200  2
    581    580    584    596     1  0.0000000  1.2552000  3
    581    580    587    590     1  180.0000771  2.0083200  2
    581    580    587    590     1  0.0000000  1.2552000  3
    581    593    605   1275     1  0.0000000  0.6508444  3
    584    580    581    593     1  180.0000771  2.0083200  2
    584    580    581    593     1  0.0000000  1.2552000  3
    584    580    587    590     1  180.0000771  2.0083200  2
    584    580    587    590     1  0.0000000  1.2552000  3
    584    596    602   1246     1  0.0000000  0.6508444  3
    587    580    581    593     1  180.0000771  2.0083200  2
    587    580    581    593     1  0.0000000  1.2552000  3
    587    580    584    596     1  180.0000771  2.0083200  2
    587    580    584    596     1  0.0000000  1.2552000  3
    587    590    599    608     1  0.0000000  0.6508444  3
    593    605   1275   1266     1  180.0000771  0.4184000  2
    593    605   1275   1266     1  0.0000000  1.6024720  3
    596    602   1246   1237     1  180.0000771  0.4184000  2
    596    602   1246   1237     1  0.0000000  1.6024720  3
    602   1246   1237   1228     1  180.0000771  0.4184000  2
    602   1246   1237   1228     1  0.0000000  1.6024720  3
    605   1275   1266   1257     1  180.0000771  0.4184000  2
    605   1275   1266   1257     1  0.0000000  1.6024720  3
    609    610    622    634     1  0.0000000  0.6508444  3
    609    613    625    631     1  0.0000000  0.6508444  3
    609    616    619    628     1  0.0000000  0.6508444  3
    610    609    613    625     1  180.0000771  2.0083200  2
    610    609    613    625     1  0.0000000  1.2552000  3
    610    609    616    619     1  180.0000771  2.0083200  2
    610    609    616    619     1  0.0000000  1.2552000  3
    610    622    634   1333     1  0.0000000  0.6508444  3
    613    609    610    622     1  180.0000771  2.0083200  2
    613    609    610    622     1  0.0000000  1.2552000  3
    613    609    616    619     1  180.0000771  2.0083200  2
    613    609    616    619     1  0.0000000  1.2552000  3
    613    625    631   1304     1  0.0000000  0.6508444  3
    616    609    610    622     1  180.0000771  2.0083200  2
    616    609    610    622     1  0.0000000  1.2552000  3
    616    609    613    625     1  180.0000771  2.0083200  2
    616    609    613    625     1  0.0000000  1.2552000  3
    616    619    628    637     1  0.0000000  0.6508444  3
    622    634   1333   1324     1  180.0000771  0.4184000  2
    622    634   1333   1324     1  0.0000000  1.6024720  3
    625    631   1304   1295     1  180.0000771  0.4184000  2
    625    631   1304   1295     1  0.0000000  1.6024720  3
    631   1304   1295   1286     1  180.0000771  0.4184000  2
    631   1304   1295   1286     1  0.0000000  1.6024720  3
    634   1333   1324   1315     1  180.0000771  0.4184000  2
    634   1333   1324   1315     1  0.0000000  1.6024720  3
    638    639    651    663     1  0.0000000  0.6508444  3
    638    642    654    660     1  0.0000000  0.6508444  3
    638    645    648    657     1  0.0000000  0.6508444  3
    639    638    642    654     1  180.0000771  2.0083200  2
    639    638    642    654     1  0.0000000  1.2552000  3
    639    638    645    648     1  180.0000771  2.0083200  2
    639    638    645    648     1  0.0000000  1.2552000  3
    639    651    663   1391     1  0.0000000  0.6508444  3
    642    638    639    651     1  180.0000771  2.0083200  2
    642    638    639    651     1  0.0000000  1.2552000  3
    642    638    645    648     1  180.0000771  2.0083200  2
    642    638    645    648     1  0.0000000  1.2552000  3
    642    654    660   1362     1  0.0000000  0.6508444  3
    645    638    639    651     1  180.0000771  2.0083200  2
    645    638    639    651     1  0.0000000  1.2552000  3
    645    638    642    654     1  180.0000771  2.0083200  2
    645    638    642    654     1  0.0000000  1.2552000  3
    645    648    657    666     1  0.0000000  0.6508444  3
    651    663   1391   1382     1  180.0000771  0.4184000  2
    651    663   1391   1382     1  0.0000000  1.6024720  3
    654    660   1362   1353     1  180.0000771  0.4184000  2
    654    660   1362   1353     1  0.0000000  1.6024720  3
    660   1362   1353   1344     1  180.0000771  0.4184000  2
    660   1362   1353   1344     1  0.0000000  1.6024720  3
    663   1391   1382   1373     1  180.0000771  0.4184000  2
    663   1391   1382   1373     1  0.0000000  1.6024720  3
    667    668    680    692     1  0.0000000  0.6508444  3
    667    671    683    689     1  0.0000000  0.6508444  3
    667    674    677    686     1  0.0000000  0.6508444  3
    668    667    671    683     1  180.0000771  2.0083200  2
    668    667    671    683     1  0.0000000  1.2552000  3
    668    667    674    677     1  180.0000771  2.0083200  2
    668    667    674    677     1  0.0000000  1.2552000  3
    668    680    692   1449     1  0.0000000  0.6508444  3
    671    667    668    680     1  180.0000771  2.0083200  2
    671    667    668    680     1  0.0000000  1.2552000  3
    671    667    674    677     1  180.0000771  2.0083200  2
    671    667    674    677     1  0.0000000  1.2552000  3
    671    683    689   1420     1  0.0000000  0.6508444  3
    674    667    668    680     1  180.0000771  2.0083200  2
    674    667    668    680     1  0.0000000  1.2552000  3
    674    667    671    683     1  180.0000771  2.0083200  2
    674    667    671    683     1  0.0000000  1.2552000  3
    674    677    686    695     1  0.0000000  0.6508444  3
    680    692   1449   1440     1  180.0000771  0.4184000  2
    680    692   1449   1440     1  0.0000000  1.6024720  3
    683    689   1420   1411     1  180.0000771  0.4184000  2
    683    689   1420   1411     1  0.0000000  1.6024720  3
    689   1420   1411   1402     1  180.0000771  0.4184000  2
    689   1420   1411   1402     1  0.0000000  1.6024720  3
    692   1449   1440   1431     1  180.0000771  0.4184000  2
    692   1449   1440   1431     1  0.0000000  1.6024720  3
    696    697    709    721     1  0.0000000  0.6508444  3
    696    700    712    718     1  0.0000000  0.6508444  3
    696    703    706    715     1  0.0000000  0.6508444  3
    697    696    700    712     1  180.0000771  2.0083200  2
    697    696    700    712     1  0.0000000  1.2552000  3
    697    696    703    706     1  180.0000771  2.0083200  2
    697    696    703    706     1  0.0000000  1.2552000  3
    697    709    721   1507     1  0.0000000  0.6508444  3
    700    696    697    709     1  180.0000771  2.0083200  2
    700    696    697    709     1  0.0000000  1.2552000  3
    700    696    703    706     1  180.0000771  2.0083200  2
    700    696    703    706     1  0.0000000  1.2552000  3
    700    712    718   1478     1  0.0000000  0.6508444  3
    703    696    697    709     1  180.0000771  2.0083200  2
    703    696    697    709     1  0.0000000  1.2552000  3
    703    696    700    712     1  180.0000771  2.0083200  2
    703    696    700    712     1  0.0000000  1.2552000  3
    703    706    715    724     1  0.0000000  0.6508444  3
    709    721   1507   1498     1  180.0000771  0.4184000  2
    709    721   1507   1498     1  0.0000000  1.6024720  3
    712    718   1478   1469     1  180.0000771  0.4184000  2
    712    718   1478   1469     1  0.0000000  1.6024720  3
    718   1478   1469   1460     1  180.0000771  0.4184000  2
    718   1478   1469   1460     1  0.0000000  1.6024720  3
    721   1507   1498   1489     1  180.0000771  0.4184000  2
    721   1507   1498   1489     1  0.0000000  1.6024720  3
    725    726    738    750     1  0.0000000  0.6508444  3
    725    729    741    747     1  0.0000000  0.6508444  3
    725    732    735    744     1  0.0000000  0.6508444  3
    726    725    729    741     1  180.0000771  2.0083200  2
    726    725    729    741     1  0.0000000  1.2552000  3
    726    725    732    735     1  180.0000771  2.0083200  2
    726    725    732    735     1  0.0000000  1.2552000  3
    726    738    750   1565     1  0.0000000  0.6508444  3
    729    725    726    738     1  180.0000771  2.0083200  2
    729    725    726    738     1  0.0000000  1.2552000  3
    729    725    732    735     1  180.0000771  2.0083200  2
    729    725    732    735     1  0.0000000  1.2552000  3
    729    741    747   1536     1  0.0000000  0.6508444  3
    732    725    726    738     1  180.0000771  2.0083200  2
    732    725    726    738     1  0.0000000  1.2552000  3
    732    725    729    741     1  180.0000771  2.0083200  2
    732    725    729    741     1  0.0000000  1.2552000  3
    732    735    744    753     1  0.0000000  0.6508444  3
    738    750   1565   1556     1  180.0000771  0.4184000  2
    738    750   1565   1556     1  0.0000000  1.6024720  3
    741    747   1536   1527     1  180.0000771  0.4184000  2
    741    747   1536   1527     1  0.0000000  1.6024720  3
    747   1536   1527   1518     1  180.0000771  0.4184000  2
    747   1536   1527   1518     1  0.0000000  1.6024720  3
    750   1565   1556   1547     1  180.0000771  0.4184000  2
    750   1565   1556   1547     1  0.0000000  1.6024720  3
    754    755    767    779     1  0.0000000  0.6508444  3
    754    758    770    776     1  0.0000000  0.6508444  3
    754    761    764    773     1  0.0000000  0.6508444  3
    755    754    758    770     1  180.0000771  2.0083200  2
    755    754    758    770     1  0.0000000  1.2552000  3
    755    754    761    764     1  180.0000771  2.0083200  2
    755    754    761    764     1  0.0000000  1.2552000  3
    755    767    779   1623     1  0.0000000  0.6508444  3
    758    754    755    767     1  180.0000771  2.0083200  2
    758    754    755    767     1  0.0000000  1.2552000  3
    758    754    761    764     1  180.0000771  2.0083200  2
    758    754    761    764     1  0.0000000  1.2552000  3
    758    770    776   1594     1  0.0000000  0.6508444  3
    761    754    755    767     1  180.0000771  2.0083200  2
    761    754    755    767     1  0.0000000  1.2552000  3
    761    754    758    770     1  180.0000771  2.0083200  2
    761    754    758    770     1  0.0000000  1.2552000  3
    761    764    773    782     1  0.0000000  0.6508444  3
    767    779   1623   1614     1  180.0000771  0.4184000  2
    767    779   1623   1614     1  0.0000000  1.6024720  3
    770    776   1594   1585     1  180.0000771  0.4184000  2
    770    776   1594   1585     1  0.0000000  1.6024720  3
    776   1594   1585   1576     1  180.0000771  0.4184000  2
    776   1594   1585   1576     1  0.0000000  1.6024720  3
    779   1623   1614   1605     1  180.0000771  0.4184000  2
    779   1623   1614   1605     1  0.0000000  1.6024720  3
    783    784    796    808     1  0.0000000  0.6508444  3
    783    787    799    805     1  0.0000000  0.6508444  3
    783    790    793    802     1  0.0000000  0.6508444  3
    784    783    787    799     1  180.0000771  2.0083200  2
    784    783    787    799     1  0.0000000  1.2552000  3
    784    783    790    793     1  180.0000771  2.0083200  2
    784    783    790    793     1  0.0000000  1.2552000  3
    784    796    808   1681     1  0.0000000  0.6508444  3
    787    783    784    796     1  180.0000771  2.0083200  2
    787    783    784    796     1  0.0000000  1.2552000  3
    787    783    790    793     1  180.0000771  2.0083200  2
    787    783    790    793     1  0.0000000  1.2552000  3
    787    799    805   1652     1  0.0000000  0.6508444  3
    790    783    784    796     1  180.0000771  2.0083200  2
    790    783    784    796     1  0.0000000  1.2552000  3
    790    783    787    799     1  180.0000771  2.0083200  2
    790    783    787    799     1  0.0000000  1.2552000  3
    790    793    802    811     1  0.0000000  0.6508444  3
    796    808   1681   1672     1  180.0000771  0.4184000  2
    796    808   1681   1672     1  0.0000000  1.6024720  3
    799    805   1652   1643     1  180.0000771  0.4184000  2
    799    805   1652   1643     1  0.0000000  1.6024720  3
    805   1652   1643   1634     1  180.0000771  0.4184000  2
    805   1652   1643   1634     1  0.0000000  1.6024720  3
    808   1681   1672   1663     1  180.0000771  0.4184000  2
    808   1681   1672   1663     1  0.0000000  1.6024720  3
    812    813    825    837     1  0.0000000  0.6508444  3
    812    816    828    834     1  0.0000000  0.6508444  3
    812    819    822    831     1  0.0000000  0.6508444  3
    813    812    816    828     1  180.0000771  2.0083200  2
    813    812    816    828     1  0.0000000  1.2552000  3
    813    812    819    822     1  180.0000771  2.0083200  2
    813    812    819    822     1  0.0000000  1.2552000  3
    813    825    837   1739     1  0.0000000  0.6508444  3
    816    812    813    825     1  180.0000771  2.0083200  2
    816    812    813    825     1  0.0000000  1.2552000  3
    816    812    819    822     1  180.0000771  2.0083200  2
    816    812    819    822     1  0.0000000  1.2552000  3
    816    828    834   1710     1  0.0000000  0.6508444  3
    819    812    813    825     1  180.0000771  2.0083200  2
    819    812    813    825     1  0.0000000  1.2552000  3
    819    812    816    828     1  180.0000771  2.0083200  2
    819    812    816    828     1  0.0000000  1.2552000  3
    819    822    831    840     1  0.0000000  0.6508444  3
    825    837   1739   1730     1  180.0000771  0.4184000  2
    825    837   1739   1730     1  0.0000000  1.6024720  3
    828    834   1710   1701     1  180.0000771  0.4184000  2
    828    834   1710   1701     1  0.0000000  1.6024720  3
    834   1710   1701   1692     1  180.0000771  0.4184000  2
    834   1710   1701   1692     1  0.0000000  1.6024720  3
    837   1739   1730   1721     1  180.0000771  0.4184000  2
    837   1739   1730   1721     1  0.0000000  1.6024720  3
    841    842    854    866     1  0.0000000  0.6508444  3
    841    845    857    863     1  0.0000000  0.6508444  3
    841    848    851    860     1  0.0000000  0.6508444  3
    842    841    845    857     1  180.0000771  2.0083200  2
    842    841    845    857     1  0.0000000  1.2552000  3
    842    841    848    851     1  180.0000771  2.0083200  2
    842    841    848    851     1  0.0000000  1.2552000  3
    842    854    866   1797     1  0.0000000  0.6508444  3
    845    841    842    854     1  180.0000771  2.0083200  2
    845    841    842    854     1  0.0000000  1.2552000  3
    845    841    848    851     1  180.0000771  2.0083200  2
    845    841    848    851     1  0.0000000  1.2552000  3
    845    857    863   1768     1  0.0000000  0.6508444  3
    848    841    842    854     1  180.0000771  2.0083200  2
    848    841    842    854     1  0.0000000  1.2552000  3
    848    841    845    857     1  180.0000771  2.0083200  2
    848    841    845    857     1  0.0000000  1.2552000  3
    848    851    860    869     1  0.0000000  0.6508444  3
    854    866   1797   1788     1  180.0000771  0.4184000  2
    854    866   1797   1788     1  0.0000000  1.6024720  3
    857    863   1768   1759     1  180.0000771  0.4184000  2
    857    863   1768   1759     1  0.0000000  1.6024720  3
    863   1768   1759   1750     1  180.0000771  0.4184000  2
    863   1768   1759   1750     1  0.0000000  1.6024720  3
    866   1797   1788   1779     1  180.0000771  0.4184000  2
    866   1797   1788   1779     1  0.0000000  1.6024720  3
    870    871    883    895     1  0.0000000  0.6508444  3
    870    874    886    892     1  0.0000000  0.6508444  3
    870    877    880    889     1  0.0000000  0.6508444  3
    871    870    874    886     1  180.0000771  2.0083200  2
    871    870    874    886     1  0.0000000  1.2552000  3
    871    870    877    880     1  180.0000771  2.0083200  2
    871    870    877    880     1  0.0000000  1.2552000  3
    871    883    895   1855     1  0.0000000  0.6508444  3
    874    870    871    883     1  180.0000771  2.0083200  2
    874    870    871    883     1  0.0000000  1.2552000  3
    874    870    877    880     1  180.0000771  2.0083200  2
    874    870    877    880     1  0.0000000  1.2552000  3
    874    886    892   1826     1  0.0000000  0.6508444  3
    877    870    871    883     1  180.0000771  2.0083200  2
    877    870    871    883     1  0.0000000  1.2552000  3
    877    870    874    886     1  180.0000771  2.0083200  2
    877    870    874    886     1  0.0000000  1.2552000  3
    877    880    889    898     1  0.0000000  0.6508444  3
    883    895   1855   1846     1  180.0000771  0.4184000  2
    883    895   1855   1846     1  0.0000000  1.6024720  3
    886    892   1826   1817     1  180.0000771  0.4184000  2
    886    892   1826   1817     1  0.0000000  1.6024720  3
    892   1826   1817   1808     1  180.0000771  0.4184000  2
    892   1826   1817   1808     1  0.0000000  1.6024720  3
    895   1855   1846   1837     1  180.0000771  0.4184000  2
    895   1855   1846   1837     1  0.0000000  1.6024720  3
    899    900    912    924     1  0.0000000  0.6508444  3
    899    903    915    921     1  0.0000000  0.6508444  3
    899    906    909    918     1  0.0000000  0.6508444  3
    900    899    903    915     1  180.0000771  2.0083200  2
    900    899    903    915     1  0.0000000  1.2552000  3
    900    899    906    909     1  180.0000771  2.0083200  2
    900    899    906    909     1  0.0000000  1.2552000  3
    900    912    924   1913     1  0.0000000  0.6508444  3
    903    899    900    912     1  180.0000771  2.0083200  2
    903    899    900    912     1  0.0000000  1.2552000  3
    903    899    906    909     1  180.0000771  2.0083200  2
    903    899    906    909     1  0.0000000  1.2552000  3
    903    915    921   1884     1  0.0000000  0.6508444  3
    906    899    900    912     1  180.0000771  2.0083200  2
    906    899    900    912     1  0.0000000  1.2552000  3
    906    899    903    915     1  180.0000771  2.0083200  2
    906    899    903    915     1  0.0000000  1.2552000  3
    906    909    918    927     1  0.0000000  0.6508444  3
    912    924   1913   1904     1  180.0000771  0.4184000  2
    912    924   1913   1904     1  0.0000000  1.6024720  3
    915    921   1884   1875     1  180.0000771  0.4184000  2
    915    921   1884   1875     1  0.0000000  1.6024720  3
    921   1884   1875   1866     1  180.0000771  0.4184000  2
    921   1884   1875   1866     1  0.0000000  1.6024720  3
    924   1913   1904   1895     1  180.0000771  0.4184000  2
    924   1913   1904   1895     1  0.0000000  1.6024720  3
    928    929    941    953     1  0.0000000  0.6508444  3
    928    932    944    950     1  0.0000000  0.6508444  3
    928    935    938    947     1  0.0000000  0.6508444  3
    929    928    932    944     1  180.0000771  2.0083200  2
    929    928    932    944     1  0.0000000  1.2552000  3
    929    928    935    938     1  180.0000771  2.0083200  2
    929    928    935    938     1  0.0000000  1.2552000  3
    929    941    953   1971     1  0.0000000  0.6508444  3
    932    928    929    941     1  180.0000771  2.0083200  2
    932    928    929    941     1  0.0000000  1.2552000  3
    932    928    935    938     1  180.0000771  2.0083200  2
    932    928    935    938     1  0.0000000  1.2552000  3
    932    944    950   1942     1  0.0000000  0.6508444  3
    935    928    929    941     1  180.0000771  2.0083200  2
    935    928    929    941     1  0.0000000  1.2552000  3
    935    928    932    944     1  180.0000771  2.0083200  2
    935    928    932    944     1  0.0000000  1.2552000  3
    935    938    947    956     1  0.0000000  0.6508444  3
    941    953   1971   1962     1  180.0000771  0.4184000  2
    941    953   1971   1962     1  0.0000000  1.6024720  3
    944    950   1942   1933     1  180.0000771  0.4184000  2
    944    950   1942   1933     1  0.0000000  1.6024720  3
    950   1942   1933   1924     1  180.0000771  0.4184000  2
    950   1942   1933   1924     1  0.0000000  1.6024720  3
    953   1971   1962   1953     1  180.0000771  0.4184000  2
    953   1971   1962   1953     1  0.0000000  1.6024720  3
    957    958    970    982     1  0.0000000  0.6508444  3
    957    961    973    979     1  0.0000000  0.6508444  3
    957    964    967    976     1  0.0000000  0.6508444  3
    958    957    961    973     1  180.0000771  2.0083200  2
    958    957    961    973     1  0.0000000  1.2552000  3
    958    957    964    967     1  180.0000771  2.0083200  2
    958    957    964    967     1  0.0000000  1.2552000  3
    958    970    982   2029     1  0.0000000  0.6508444  3
    961    957    958    970     1  180.0000771  2.0083200  2
    961    957    958    970     1  0.0000000  1.2552000  3
    961    957    964    967     1  180.0000771  2.0083200  2
    961    957    964    967     1  0.0000000  1.2552000  3
    961    973    979   2000     1  0.0000000  0.6508444  3
    964    957    958    970     1  180.0000771  2.0083200  2
    964    957    958    970     1  0.0000000  1.2552000  3
    964    957    961    973     1  180.0000771  2.0083200  2
    964    957    961    973     1  0.0000000  1.2552000  3
    964    967    976    985     1  0.0000000  0.6508444  3
    970    982   2029   2020     1  180.0000771  0.4184000  2
    970    982   2029   2020     1  0.0000000  1.6024720  3
    973    979   2000   1991     1  180.0000771  0.4184000  2
    973    979   2000   1991     1  0.0000000  1.6024720  3
    979   2000   1991   1982     1  180.0000771  0.4184000  2
    979   2000   1991   1982     1  0.0000000  1.6024720  3
    982   2029   2020   2011     1  180.0000771  0.4184000  2
    982   2029   2020   2011     1  0.0000000  1.6024720  3
    986    987    999   1011     1  0.0000000  0.6508444  3
    986    990   1002   1008     1  0.0000000  0.6508444  3
    986    993    996   1005     1  0.0000000  0.6508444  3
    987    986    990   1002     1  180.0000771  2.0083200  2
    987    986    990   1002     1  0.0000000  1.2552000  3
    987    986    993    996     1  180.0000771  2.0083200  2
    987    986    993    996     1  0.0000000  1.2552000  3
    987    999   1011   2087     1  0.0000000  0.6508444  3
    990    986    987    999     1  180.0000771  2.0083200  2
    990    986    987    999     1  0.0000000  1.2552000  3
    990    986    993    996     1  180.0000771  2.0083200  2
    990    986    993    996     1  0.0000000  1.2552000  3
    990   1002   1008   2058     1  0.0000000  0.6508444  3
    993    986    987    999     1  180.0000771  2.0083200  2
    993    986    987    999     1  0.0000000  1.2552000  3
    993    986    990   1002     1  180.0000771  2.0083200  2
    993    986    990   1002     1  0.0000000  1.2552000  3
    993    996   1005   1014     1  0.0000000  0.6508444  3
    999   1011   2087   2078     1  180.0000771  0.4184000  2
    999   1011   2087   2078     1  0.0000000  1.6024720  3
   1002   1008   2058   2049     1  180.0000771  0.4184000  2
   1002   1008   2058   2049     1  0.0000000  1.6024720  3
   1008   2058   2049   2040     1  180.0000771  0.4184000  2
   1008   2058   2049   2040     1  0.0000000  1.6024720  3
   1011   2087   2078   2069     1  180.0000771  0.4184000  2
   1011   2087   2078   2069     1  0.0000000  1.6024720  3
   1015   1016   1028   1040     1  0.0000000  0.6508444  3
   1015   1019   1031   1037     1  0.0000000  0.6508444  3
   1015   1022   1025   1034     1  0.0000000  0.6508444  3
   1016   1015   1019   1031     1  180.0000771  2.0083200  2
   1016   1015   1019   1031     1  0.0000000  1.2552000  3
   1016   1015   1022   1025     1  180.0000771  2.0083200  2
   1016   1015   1022   1025     1  0.0000000  1.2552000  3
   1016   1028   1040   2145     1  0.0000000  0.6508444  3
   1019   1015   1016   1028     1  180.0000771  2.0083200  2
   1019   1015   1016   1028     1  0.0000000  1.2552000  3
   1019   1015   1022   1025     1  180.0000771  2.0083200  2
   1019   1015   1022   1025     1  0.0000000  1.2552000  3
   1019   1031   1037   2116     1  0.0000000  0.6508444  3
   1022   1015   1016   1028     1  180.0000771  2.0083200  2
   1022   1015   1016   1028     1  0.0000000  1.2552000  3
   1022   1015   1019   1031     1  180.0000771  2.0083200  2
   1022   1015   1019   1031     1  0.0000000  1.2552000  3
   1022   1025   1034   1043     1  0.0000000  0.6508444  3
   1028   1040   2145   2136     1  180.0000771  0.4184000  2
   1028   1040   2145   2136     1  0.0000000  1.6024720  3
   1031   1037   2116   2107     1  180.0000771  0.4184000  2
   1031   1037   2116   2107     1  0.0000000  1.6024720  3
   1037   2116   2107   2098     1  180.0000771  0.4184000  2
   1037   2116   2107   2098     1  0.0000000  1.6024720  3
   1040   2145   2136   2127     1  180.0000771  0.4184000  2
   1040   2145   2136   2127     1  0.0000000  1.6024720  3
   1044   1045   1057   1069     1  0.0000000  0.6508444  3
   1044   1048   1060   1066     1  0.0000000  0.6508444  3
   1044   1051   1054   1063     1  0.0000000  0.6508444  3
   1045   1044   1048   1060     1  180.0000771  2.0083200  2
   1045   1044   1048   1060     1  0.0000000  1.2552000  3
   1045   1044   1051   1054     1  180.0000771  2.0083200  2
   1045   1044   1051   1054     1  0.0000000  1.2552000  3
   1045   1057   1069   2203     1  0.0000000  0.6508444  3
   1048   1044   1045   1057     1  180.0000771  2.0083200  2
   1048   1044   1045   1057     1  0.0000000  1.2552000  3
   1048   1044   1051   1054     1  180.0000771  2.0083200  2
   1048   1044   1051   1054     1  0.0000000  1.2552000  3
   1048   1060   1066   2174     1  0.0000000  0.6508444  3
   1051   1044   1045   1057     1  180.0000771  2.0083200  2
   1051   1044   1045   1057     1  0.0000000  1.2552000  3
   1051   1044   1048   1060     1  180.0000771  2.0083200  2
   1051   1044   1048   1060     1  0.0000000  1.2552000  3
   1051   1054   1063   1072     1  0.0000000  0.6508444  3
   1057   1069   2203   2194     1  180.0000771  0.4184000  2
   1057   1069   2203   2194     1  0.0000000  1.6024720  3
   1060   1066   2174   2165     1  180.0000771  0.4184000  2
   1060   1066   2174   2165     1  0.0000000  1.6024720  3
   1066   2174   2165   2156     1  180.0000771  0.4184000  2
   1066   2174   2165   2156     1  0.0000000  1.6024720  3
   1069   2203   2194   2185     1  180.0000771  0.4184000  2
   1069   2203   2194   2185     1  0.0000000  1.6024720  3
   1073   1074   1086   1098     1  0.0000000  0.6508444  3
   1073   1077   1089   1095     1  0.0000000  0.6508444  3
   1073   1080   1083   1092     1  0.0000000  0.6508444  3
   1074   1073   1077   1089     1  180.0000771  2.0083200  2
   1074   1073   1077   1089     1  0.0000000  1.2552000  3
   1074   1073   1080   1083     1  180.0000771  2.0083200  2
   1074   1073   1080   1083     1  0.0000000  1.2552000  3
   1074   1086   1098   2261     1  0.0000000  0.6508444  3
   1077   1073   1074   1086     1  180.0000771  2.0083200  2
   1077   1073   1074   1086     1  0.0000000  1.2552000  3
   1077   1073   1080   1083     1  180.0000771  2.0083200  2
   1077   1073   1080   1083     1  0.0000000  1.2552000  3
   1077   1089   1095   2232     1  0.0000000  0.6508444  3
   1080   1073   1074   1086     1  180.0000771  2.0083200  2
   1080   1073   1074   1086     1  0.0000000  1.2552000  3
   1080   1073   1077   1089     1  180.0000771  2.0083200  2
   1080   1073   1077   1089     1  0.0000000  1.2552000  3
   1080   1083   1092   1101     1  0.0000000  0.6508444  3
   1086   1098   2261   2252     1  180.0000771  0.4184000  2
   1086   1098   2261   2252     1  0.0000000  1.6024720  3
   1089   1095   2232   2223     1  180.0000771  0.4184000  2
   1089   1095   2232   2223     1  0.0000000  1.6024720  3
   1095   2232   2223   2214     1  180.0000771  0.4184000  2
   1095   2232   2223   2214     1  0.0000000  1.6024720  3
   1098   2261   2252   2243     1  180.0000771  0.4184000  2
   1098   2261   2252   2243     1  0.0000000  1.6024720  3
   1102   1103   1115   1127     1  0.0000000  0.6508444  3
   1102   1106   1118   1124     1  0.0000000  0.6508444  3
   1102   1109   1112   1121     1  0.0000000  0.6508444  3
   1103   1102   1106   1118     1  180.0000771  2.0083200  2
   1103   1102   1106   1118     1  0.0000000  1.2552000  3
   1103   1102   1109   1112     1  180.0000771  2.0083200  2
   1103   1102   1109   1112     1  0.0000000  1.2552000  3
   1103   1115   1127   2319     1  0.0000000  0.6508444  3
   1106   1102   1103   1115     1  180.0000771  2.0083200  2
   1106   1102   1103   1115     1  0.0000000  1.2552000  3
   1106   1102   1109   1112     1  180.0000771  2.0083200  2
   1106   1102   1109   1112     1  0.0000000  1.2552000  3
   1106   1118   1124   2290     1  0.0000000  0.6508444  3
   1109   1102   1103   1115     1  180.0000771  2.0083200  2
   1109   1102   1103   1115     1  0.0000000  1.2552000  3
   1109   1102   1106   1118     1  180.0000771  2.0083200  2
   1109   1102   1106   1118     1  0.0000000  1.2552000  3
   1109   1112   1121   1130     1  0.0000000  0.6508444  3
   1115   1127   2319   2310     1  180.0000771  0.4184000  2
   1115   1127   2319   2310     1  0.0000000  1.6024720  3
   1118   1124   2290   2281     1  180.0000771  0.4184000  2
   1118   1124   2290   2281     1  0.0000000  1.6024720  3
   1124   2290   2281   2272     1  180.0000771  0.4184000  2
   1124   2290   2281   2272     1  0.0000000  1.6024720  3
   1127   2319   2310   2301     1  180.0000771  0.4184000  2
   1127   2319   2310   2301     1  0.0000000  1.6024720  3
   1131   1132   1144   1156     1  0.0000000  0.6508444  3
   1131   1135   1147   1153     1  0.0000000  0.6508444  3
   1131   1138   1141   1150     1  0.0000000  0.6508444  3
   1132   1131   1135   1147     1  180.0000771  2.0083200  2
   1132   1131   1135   1147     1  0.0000000  1.2552000  3
   1132   1131   1138   1141     1  180.0000771  2.0083200  2
   1132   1131   1138   1141     1  0.0000000  1.2552000  3
   1132   1144   1156   2377     1  0.0000000  0.6508444  3
   1135   1131   1132   1144     1  180.0000771  2.0083200  2
   1135   1131   1132   1144     1  0.0000000  1.2552000  3
   1135   1131   1138   1141     1  180.0000771  2.0083200  2
   1135   1131   1138   1141     1  0.0000000  1.2552000  3
   1135   1147   1153   2348     1  0.0000000  0.6508444  3
   1138   1131   1132   1144     1  180.0000771  2.0083200  2
   1138   1131   1132   1144     1  0.0000000  1.2552000  3
   1138   1131   1135   1147     1  180.0000771  2.0083200  2
   1138   1131   1135   1147     1  0.0000000  1.2552000  3
   1138   1141   1150   1159     1  0.0000000  0.6508444  3
   1144   1156   2377   2368     1  180.0000771  0.4184000  2
   1144   1156   2377   2368     1  0.0000000  1.6024720  3
   1147   1153   2348   2339     1  180.0000771  0.4184000  2
   1147   1153   2348   2339     1  0.0000000  1.6024720  3
   1153   2348   2339   2330     1  180.0000771  0.4184000  2
   1153   2348   2339   2330     1  0.0000000  1.6024720  3
   1156   2377   2368   2359     1  180.0000771  0.4184000  2
   1156   2377   2368   2359     1  0.0000000  1.6024720  3
   1160   1161   1173   1185     1  0.0000000  0.6508444  3
   1160   1164   1176   1182     1  0.0000000  0.6508444  3
   1160   1167   1170   1179     1  0.0000000  0.6508444  3
   1161   1160   1164   1176     1  180.0000771  2.0083200  2
   1161   1160   1164   1176     1  0.0000000  1.2552000  3
   1161   1160   1167   1170     1  180.0000771  2.0083200  2
   1161   1160   1167   1170     1  0.0000000  1.2552000  3
   1161   1173   1185   2435     1  0.0000000  0.6508444  3
   1164   1160   1161   1173     1  180.0000771  2.0083200  2
   1164   1160   1161   1173     1  0.0000000  1.2552000  3
   1164   1160   1167   1170     1  180.0000771  2.0083200  2
   1164   1160   1167   1170     1  0.0000000  1.2552000  3
   1164   1176   1182   2406     1  0.0000000  0.6508444  3
   1167   1160   1161   1173     1  180.0000771  2.0083200  2
   1167   1160   1161   1173     1  0.0000000  1.2552000  3
   1167   1160   1164   1176     1  180.0000771  2.0083200  2
   1167   1160   1164   1176     1  0.0000000  1.2552000  3
   1167   1170   1179   1188     1  0.0000000  0.6508444  3
   1173   1185   2435   2426     1  180.0000771  0.4184000  2
   1173   1185   2435   2426     1  0.0000000  1.6024720  3
   1176   1182   2406   2397     1  180.0000771  0.4184000  2
   1176   1182   2406   2397     1  0.0000000  1.6024720  3
   1182   2406   2397   2388     1  180.0000771  0.4184000  2
   1182   2406   2397   2388     1  0.0000000  1.6024720  3
   1185   2435   2426   2417     1  180.0000771  0.4184000  2
   1185   2435   2426   2417     1  0.0000000  1.6024720  3
   1189   1190   1202   1214     1  0.0000000  0.6508444  3
   1189   1193   1205   1211     1  0.0000000  0.6508444  3
   1189   1196   1199   1208     1  0.0000000  0.6508444  3
   1190   1189   1193   1205     1  180.0000771  2.0083200  2
   1190   1189   1193   1205     1  0.0000000  1.2552000  3
   1190   1189   1196   1199     1  180.0000771  2.0083200  2
   1190   1189   1196   1199     1  0.0000000  1.2552000  3
   1190   1202   1214   2493     1  0.0000000  0.6508444  3
   1193   1189   1190   1202     1  180.0000771  2.0083200  2
   1193   1189   1190   1202     1  0.0000000  1.2552000  3
   1193   1189   1196   1199     1  180.0000771  2.0083200  2
   1193   1189   1196   1199     1  0.0000000  1.2552000  3
   1193   1205   1211   2464     1  0.0000000  0.6508444  3
   1196   1189   1190   1202     1  180.0000771  2.0083200  2
   1196   1189   1190   1202     1  0.0000000  1.2552000  3
   1196   1189   1193   1205     1  180.0000771  2.0083200  2
   1196   1189   1193   1205     1  0.0000000  1.2552000  3
   1196   1199   1208   1217     1  0.0000000  0.6508444  3
   1202   1214   2493   2484     1  180.0000771  0.4184000  2
   1202   1214   2493   2484     1  0.0000000  1.6024720  3
   1205   1211   2464   2455     1  180.0000771  0.4184000  2
   1205   1211   2464   2455     1  0.0000000  1.6024720  3
   1211   2464   2455   2446     1  180.0000771  0.4184000  2
   1211   2464   2455   2446     1  0.0000000  1.6024720  3
   1214   2493   2484   2475     1  180.0000771  0.4184000  2
   1214   2493   2484   2475     1  0.0000000  1.6024720  3
   1218   1219   1231   1243     1  0.0000000  0.6508444  3
   1218   1222   1234   1240     1  0.0000000  0.6508444  3
   1218   1225   1228   1237     1  0.0000000  0.6508444  3
   1219   1218   1222   1234     1  180.0000771  2.0083200  2
   1219   1218   1222   1234     1  0.0000000  1.2552000  3
   1219   1218   1225   1228     1  180.0000771  2.0083200  2
   1219   1218   1225   1228     1  0.0000000  1.2552000  3
   1219   1231   1243   2551     1  0.0000000  0.6508444  3
   1222   1218   1219   1231     1  180.0000771  2.0083200  2
   1222   1218   1219   1231     1  0.0000000  1.2552000  3
   1222   1218   1225   1228     1  180.0000771  2.0083200  2
   1222   1218   1225   1228     1  0.0000000  1.2552000  3
   1222   1234   1240   2522     1  0.0000000  0.6508444  3
   1225   1218   1219   1231     1  180.0000771  2.0083200  2
   1225   1218   1219   1231     1  0.0000000  1.2552000  3
   1225   1218   1222   1234     1  180.0000771  2.0083200  2
   1225   1218   1222   1234     1  0.0000000  1.2552000  3
   1225   1228   1237   1246     1  0.0000000  0.6508444  3
   1231   1243   2551   2542     1  180.0000771  0.4184000  2
   1231   1243   2551   2542     1  0.0000000  1.6024720  3
   1234   1240   2522   2513     1  180.0000771  0.4184000  2
   1234   1240   2522   2513     1  0.0000000  1.6024720  3
   1240   2522   2513   2504     1  180.0000771  0.4184000  2
   1240   2522   2513   2504     1  0.0000000  1.6024720  3
   1243   2551   2542   2533     1  180.0000771  0.4184000  2
   1243   2551   2542   2533     1  0.0000000  1.6024720  3
   1247   1248   1260   1272     1  0.0000000  0.6508444  3
   1247   1251   1263   1269     1  0.0000000  0.6508444  3
   1247   1254   1257   1266     1  0.0000000  0.6508444  3
   1248   1247   1251   1263     1  180.0000771  2.0083200  2
   1248   1247   1251   1263     1  0.0000000  1.2552000  3
   1248   1247   1254   1257     1  180.0000771  2.0083200  2
   1248   1247   1254   1257     1  0.0000000  1.2552000  3
   1248   1260   1272   2609     1  0.0000000  0.6508444  3
   1251   1247   1248   1260     1  180.0000771  2.0083200  2
   1251   1247   1248   1260     1  0.0000000  1.2552000  3
   1251   1247   1254   1257     1  180.0000771  2.0083200  2
   1251   1247   1254   1257     1  0.0000000  1.2552000  3
   1251   1263   1269   2580     1  0.0000000  0.6508444  3
   1254   1247   1248   1260     1  180.0000771  2.0083200  2
   1254   1247   1248   1260     1  0.0000000  1.2552000  3
   1254   1247   1251   1263     1  180.0000771  2.0083200  2
   1254   1247   1251   1263     1  0.0000000  1.2552000  3
   1254   1257   1266   1275     1  0.0000000  0.6508444  3
   1260   1272   2609   2600     1  180.0000771  0.4184000  2
   1260   1272   2609   2600     1  0.0000000  1.6024720  3
   1263   1269   2580   2571     1  180.0000771  0.4184000  2
   1263   1269   2580   2571     1  0.0000000  1.6024720  3
   1269   2580   2571   2562     1  180.0000771  0.4184000  2
   1269   2580   2571   2562     1  0.0000000  1.6024720  3
   1272   2609   2600   2591     1  180.0000771  0.4184000  2
   1272   2609   2600   2591     1  0.0000000  1.6024720  3
   1276   1277   1289   1301     1  0.0000000  0.6508444  3
   1276   1280   1292   1298     1  0.0000000  0.6508444  3
   1276   1283   1286   1295     1  0.0000000  0.6508444  3
   1277   1276   1280   1292     1  180.0000771  2.0083200  2
   1277   1276   1280   1292     1  0.0000000  1.2552000  3
   1277   1276   1283   1286     1  180.0000771  2.0083200  2
   1277   1276   1283   1286     1  0.0000000  1.2552000  3
   1277   1289   1301   2667     1  0.0000000  0.6508444  3
   1280   1276   1277   1289     1  180.0000771  2.0083200  2
   1280   1276   1277   1289     1  0.0000000  1.2552000  3
   1280   1276   1283   1286     1  180.0000771  2.0083200  2
   1280   1276   1283   1286     1  0.0000000  1.2552000  3
   1280   1292   1298   2638     1  0.0000000  0.6508444  3
   1283   1276   1277   1289     1  180.0000771  2.0083200  2
   1283   1276   1277   1289     1  0.0000000  1.2552000  3
   1283   1276   1280   1292     1  180.0000771  2.0083200  2
   1283   1276   1280   1292     1  0.0000000  1.2552000  3
   1283   1286   1295   1304     1  0.0000000  0.6508444  3
   1289   1301   2667   2658     1  180.0000771  0.4184000  2
   1289   1301   2667   2658     1  0.0000000  1.6024720  3
   1292   1298   2638   2629     1  180.0000771  0.4184000  2
   1292   1298   2638   2629     1  0.0000000  1.6024720  3
   1298   2638   2629   2620     1  180.0000771  0.4184000  2
   1298   2638   2629   2620     1  0.0000000  1.6024720  3
   1301   2667   2658   2649     1  180.0000771  0.4184000  2
   1301   2667   2658   2649     1  0.0000000  1.6024720  3
   1305   1306   1318   1330     1  0.0000000  0.6508444  3
   1305   1309   1321   1327     1  0.0000000  0.6508444  3
   1305   1312   1315   1324     1  0.0000000  0.6508444  3
   1306   1305   1309   1321     1  180.0000771  2.0083200  2
   1306   1305   1309   1321     1  0.0000000  1.2552000  3
   1306   1305   1312   1315     1  180.0000771  2.0083200  2
   1306   1305   1312   1315     1  0.0000000  1.2552000  3
   1306   1318   1330   2725     1  0.0000000  0.6508444  3
   1309   1305   1306   1318     1  180.0000771  2.0083200  2
   1309   1305   1306   1318     1  0.0000000  1.2552000  3
   1309   1305   1312   1315     1  180.0000771  2.0083200  2
   1309   1305   1312   1315     1  0.0000000  1.2552000  3
   1309   1321   1327   2696     1  0.0000000  0.6508444  3
   1312   1305   1306   1318     1  180.0000771  2.0083200  2
   1312   1305   1306   1318     1  0.0000000  1.2552000  3
   1312   1305   1309   1321     1  180.0000771  2.0083200  2
   1312   1305   1309   1321     1  0.0000000  1.2552000  3
   1312   1315   1324   1333     1  0.0000000  0.6508444  3
   1318   1330   2725   2716     1  180.0000771  0.4184000  2
   1318   1330   2725   2716     1  0.0000000  1.6024720  3
   1321   1327   2696   2687     1  180.0000771  0.4184000  2
   1321   1327   2696   2687     1  0.0000000  1.6024720  3
   1327   2696   2687   2678     1  180.0000771  0.4184000  2
   1327   2696   2687   2678     1  0.0000000  1.6024720  3
   1330   2725   2716   2707     1  180.0000771  0.4184000  2
   1330   2725   2716   2707     1  0.0000000  1.6024720  3
   1334   1335   1347   1359     1  0.0000000  0.6508444  3
   1334   1338   1350   1356     1  0.0000000  0.6508444  3
   1334   1341   1344   1353     1  0.0000000  0.6508444  3
   1335   1334   1338   1350     1  180.0000771  2.0083200  2
   1335   1334   1338   1350     1  0.0000000  1.2552000  3
   1335   1334   1341   1344     1  180.0000771  2.0083200  2
   1335   1334   1341   1344     1  0.0000000  1.2552000  3
   1335   1347   1359   2783     1  0.0000000  0.6508444  3
   1338   1334   1335   1347     1  180.0000771  2.0083200  2
   1338   1334   1335   1347     1  0.0000000  1.2552000  3
   1338   1334   1341   1344     1  180.0000771  2.0083200  2
   1338   1334   1341   1344     1  0.0000000  1.2552000  3
   1338   1350   1356   2754     1  0.0000000  0.6508444  3
   1341   1334   1335   1347     1  180.0000771  2.0083200  2
   1341   1334   1335   1347     1  0.0000000  1.2552000  3
   1341   1334   1338   1350     1  180.0000771  2.0083200  2
   1341   1334   1338   1350     1  0.0000000  1.2552000  3
   1341   1344   1353   1362     1  0.0000000  0.6508444  3
   1347   1359   2783   2774     1  180.0000771  0.4184000  2
   1347   1359   2783   2774     1  0.0000000  1.6024720  3
   1350   1356   2754   2745     1  180.0000771  0.4184000  2
   1350   1356   2754   2745     1  0.0000000  1.6024720  3
   1356   2754   2745   2736     1  180.0000771  0.4184000  2
   1356   2754   2745   2736     1  0.0000000  1.6024720  3
   1359   2783   2774   2765     1  180.0000771  0.4184000  2
   1359   2783   2774   2765     1  0.0000000  1.6024720  3
   1363   1364   1376   1388     1  0.0000000  0.6508444  3
   1363   1367   1379   1385     1  0.0000000  0.6508444  3
   1363   1370   1373   1382     1  0.0000000  0.6508444  3
   1364   1363   1367   1379     1  180.0000771  2.0083200  2
   1364   1363   1367   1379     1  0.0000000  1.2552000  3
   1364   1363   1370   1373     1  180.0000771  2.0083200  2
   1364   1363   1370   1373     1  0.0000000  1.2552000  3
   1364   1376   1388   2841     1  0.0000000  0.6508444  3
   1367   1363   1364   1376     1  180.0000771  2.0083200  2
   1367   1363   1364   1376     1  0.0000000  1.2552000  3
   1367   1363   1370   1373     1  180.0000771  2.0083200  2
   1367   1363   1370   1373     1  0.0000000  1.2552000  3
   1367   1379   1385   2812     1  0.0000000  0.6508444  3
   1370   1363   1364   1376     1  180.0000771  2.0083200  2
   1370   1363   1364   1376     1  0.0000000  1.2552000  3
   1370   1363   1367   1379     1  180.0000771  2.0083200  2
   1370   1363   1367   1379     1  0.0000000  1.2552000  3
   1370   1373   1382   1391     1  0.0000000  0.6508444  3
   1376   1388   2841   2832     1  180.0000771  0.4184000  2
   1376   1388   2841   2832     1  0.0000000  1.6024720  3
   1379   1385   2812   2803     1  180.0000771  0.4184000  2
   1379   1385   2812   2803     1  0.0000000  1.6024720  3
   1385   2812   2803   2794     1  180.0000771  0.4184000  2
   1385   2812   2803   2794     1  0.0000000  1.6024720  3
   1388   2841   2832   2823     1  180.0000771  0.4184000  2
   1388   2841   2832   2823     1  0.0000000  1.6024720  3
   1392   1393   1405   1417     1  0.0000000  0.6508444  3
   1392   1396   1408   1414     1  0.0000000  0.6508444  3
   1392   1399   1402   1411     1  0.0000000  0.6508444  3
   1393   1392   1396   1408     1  180.0000771  2.0083200  2
   1393   1392   1396   1408     1  0.0000000  1.2552000  3
   1393   1392   1399   1402     1  180.0000771  2.0083200  2
   1393   1392   1399   1402     1  0.0000000  1.2552000  3
   1393   1405   1417   2899     1  0.0000000  0.6508444  3
   1396   1392   1393   1405     1  180.0000771  2.0083200  2
   1396   1392   1393   1405     1  0.0000000  1.2552000  3
   1396   1392   1399   1402     1  180.0000771  2.0083200  2
   1396   1392   1399   1402     1  0.0000000  1.2552000  3
   1396   1408   1414   2870     1  0.0000000  0.6508444  3
   1399   1392   1393   1405     1  180.0000771  2.0083200  2
   1399   1392   1393   1405     1  0.0000000  1.2552000  3
   1399   1392   1396   1408     1  180.0000771  2.0083200  2
   1399   1392   1396   1408     1  0.0000000  1.2552000  3
   1399   1402   1411   1420     1  0.0000000  0.6508444  3
   1405   1417   2899   2890     1  180.0000771  0.4184000  2
   1405   1417   2899   2890     1  0.0000000  1.6024720  3
   1408   1414   2870   2861     1  180.0000771  0.4184000  2
   1408   1414   2870   2861     1  0.0000000  1.6024720  3
   1414   2870   2861   2852     1  180.0000771  0.4184000  2
   1414   2870   2861   2852     1  0.0000000  1.6024720  3
   1417   2899   2890   2881     1  180.0000771  0.4184000  2
   1417   2899   2890   2881     1  0.0000000  1.6024720  3
   1421   1422   1434   1446     1  0.0000000  0.6508444  3
   1421   1425   1437   1443     1  0.0000000  0.6508444  3
   1421   1428   1431   1440     1  0.0000000  0.6508444  3
   1422   1421   1425   1437     1  180.0000771  2.0083200  2
   1422   1421   1425   1437     1  0.0000000  1.2552000  3
   1422   1421   1428   1431     1  180.0000771  2.0083200  2
   1422   1421   1428   1431     1  0.0000000  1.2552000  3
   1422   1434   1446   2957     1  0.0000000  0.6508444  3
   1425   1421   1422   1434     1  180.0000771  2.0083200  2
   1425   1421   1422   1434     1  0.0000000  1.2552000  3
   1425   1421   1428   1431     1  180.0000771  2.0083200  2
   1425   1421   1428   1431     1  0.0000000  1.2552000  3
   1425   1437   1443   2928     1  0.0000000  0.6508444  3
   1428   1421   1422   1434     1  180.0000771  2.0083200  2
   1428   1421   1422   1434     1  0.0000000  1.2552000  3
   1428   1421   1425   1437     1  180.0000771  2.0083200  2
   1428   1421   1425   1437     1  0.0000000  1.2552000  3
   1428   1431   1440   1449     1  0.0000000  0.6508444  3
   1434   1446   2957   2948     1  180.0000771  0.4184000  2
   1434   1446   2957   2948     1  0.0000000  1.6024720  3
   1437   1443   2928   2919     1  180.0000771  0.4184000  2
   1437   1443   2928   2919     1  0.0000000  1.6024720  3
   1443   2928   2919   2910     1  180.0000771  0.4184000  2
   1443   2928   2919   2910     1  0.0000000  1.6024720  3
   1446   2957   2948   2939     1  180.0000771  0.4184000  2
   1446   2957   2948   2939     1  0.0000000  1.6024720  3
   1450   1451   1463   1475     1  0.0000000  0.6508444  3
   1450   1454   1466   1472     1  0.0000000  0.6508444  3
   1450   1457   1460   1469     1  0.0000000  0.6508444  3
   1451   1450   1454   1466     1  180.0000771  2.0083200  2
   1451   1450   1454   1466     1  0.0000000  1.2552000  3
   1451   1450   1457   1460     1  180.0000771  2.0083200  2
   1451   1450   1457   1460     1  0.0000000  1.2552000  3
   1451   1463   1475   3015     1  0.0000000  0.6508444  3
   1454   1450   1451   1463     1  180.0000771  2.0083200  2
   1454   1450   1451   1463     1  0.0000000  1.2552000  3
   1454   1450   1457   1460     1  180.0000771  2.0083200  2
   1454   1450   1457   1460     1  0.0000000  1.2552000  3
   1454   1466   1472   2986     1  0.0000000  0.6508444  3
   1457   1450   1451   1463     1  180.0000771  2.0083200  2
   1457   1450   1451   1463     1  0.0000000  1.2552000  3
   1457   1450   1454   1466     1  180.0000771  2.0083200  2
   1457   1450   1454   1466     1  0.0000000  1.2552000  3
   1457   1460   1469   1478     1  0.0000000  0.6508444  3
   1463   1475   3015   3006     1  180.0000771  0.4184000  2
   1463   1475   3015   3006     1  0.0000000  1.6024720  3
   1466   1472   2986   2977     1  180.0000771  0.4184000  2
   1466   1472   2986   2977     1  0.0000000  1.6024720  3
   1472   2986   2977   2968     1  180.0000771  0.4184000  2
   1472   2986   2977   2968     1  0.0000000  1.6024720  3
   1475   3015   3006   2997     1  180.0000771  0.4184000  2
   1475   3015   3006   2997     1  0.0000000  1.6024720  3
   1479   1480   1492   1504     1  0.0000000  0.6508444  3
   1479   1483   1495   1501     1  0.0000000  0.6508444  3
   1479   1486   1489   1498     1  0.0000000  0.6508444  3
   1480   1479   1483   1495     1  180.0000771  2.0083200  2
   1480   1479   1483   1495     1  0.0000000  1.2552000  3
   1480   1479   1486   1489     1  180.0000771  2.0083200  2
   1480   1479   1486   1489     1  0.0000000  1.2552000  3
   1480   1492   1504   3073     1  0.0000000  0.6508444  3
   1483   1479   1480   1492     1  180.0000771  2.0083200  2
   1483   1479   1480   1492     1  0.0000000  1.2552000  3
   1483   1479   1486   1489     1  180.0000771  2.0083200  2
   1483   1479   1486   1489     1  0.0000000  1.2552000  3
   1483   1495   1501   3044     1  0.0000000  0.6508444  3
   1486   1479   1480   1492     1  180.0000771  2.0083200  2
   1486   1479   1480   1492     1  0.0000000  1.2552000  3
   1486   1479   1483   1495     1  180.0000771  2.0083200  2
   1486   1479   1483   1495     1  0.0000000  1.2552000  3
   1486   1489   1498   1507     1  0.0000000  0.6508444  3
   1492   1504   3073   3064     1  180.0000771  0.4184000  2
   1492   1504   3073   3064     1  0.0000000  1.6024720  3
   1495   1501   3044   3035     1  180.0000771  0.4184000  2
   1495   1501   3044   3035     1  0.0000000  1.6024720  3
   1501   3044   3035   3026     1  180.0000771  0.4184000  2
   1501   3044   3035   3026     1  0.0000000  1.6024720  3
   1504   3073   3064   3055     1  180.0000771  0.4184000  2
   1504   3073   3064   3055     1  0.0000000  1.6024720  3
   1508   1509   1521   1533     1  0.0000000  0.6508444  3
   1508   1512   1524   1530     1  0.0000000  0.6508444  3
   1508   1515   1518   1527     1  0.0000000  0.6508444  3
   1509   1508   1512   1524     1  180.0000771  2.0083200  2
   1509   1508   1512   1524     1  0.0000000  1.2552000  3
   1509   1508   1515   1518     1  180.0000771  2.0083200  2
   1509   1508   1515   1518     1  0.0000000  1.2552000  3
   1509   1521   1533   3131     1  0.0000000  0.6508444  3
   1512   1508   1509   1521     1  180.0000771  2.0083200  2
   1512   1508   1509   1521     1  0.0000000  1.2552000  3
   1512   1508   1515   1518     1  180.0000771  2.0083200  2
   1512   1508   1515   1518     1  0.0000000  1.2552000  3
   1512   1524   1530   3102     1  0.0000000  0.6508444  3
   1515   1508   1509   1521     1  180.0000771  2.0083200  2
   1515   1508   1509   1521     1  0.0000000  1.2552000  3
   1515   1508   1512   1524     1  180.0000771  2.0083200  2
   1515   1508   1512   1524     1  0.0000000  1.2552000  3
   1515   1518   1527   1536     1  0.0000000  0.6508444  3
   1521   1533   3131   3122     1  180.0000771  0.4184000  2
   1521   1533   3131   3122     1  0.0000000  1.6024720  3
   1524   1530   3102   3093     1  180.0000771  0.4184000  2
   1524   1530   3102   3093     1  0.0000000  1.6024720  3
   1530   3102   3093   3084     1  180.0000771  0.4184000  2
   1530   3102   3093   3084     1  0.0000000  1.6024720  3
   1533   3131   3122   3113     1  180.0000771  0.4184000  2
   1533   3131   3122   3113     1  0.0000000  1.6024720  3
   1537   1538   1550   1562     1  0.0000000  0.6508444  3
   1537   1541   1553   1559     1  0.0000000  0.6508444  3
   1537   1544   1547   1556     1  0.0000000  0.6508444  3
   1538   1537   1541   1553     1  180.0000771  2.0083200  2
   1538   1537   1541   1553     1  0.0000000  1.2552000  3
   1538   1537   1544   1547     1  180.0000771  2.0083200  2
   1538   1537   1544   1547     1  0.0000000  1.2552000  3
   1538   1550   1562   3189     1  0.0000000  0.6508444  3
   1541   1537   1538   1550     1  180.0000771  2.0083200  2
   1541   1537   1538   1550     1  0.0000000  1.2552000  3
   1541   1537   1544   1547     1  180.0000771  2.0083200  2
   1541   1537   1544   1547     1  0.0000000  1.2552000  3
   1541   1553   1559   3160     1  0.0000000  0.6508444  3
   1544   1537   1538   1550     1  180.0000771  2.0083200  2
   1544   1537   1538   1550     1  0.0000000  1.2552000  3
   1544   1537   1541   1553     1  180.0000771  2.0083200  2
   1544   1537   1541   1553     1  0.0000000  1.2552000  3
   1544   1547   1556   1565     1  0.0000000  0.6508444  3
   1550   1562   3189   3180     1  180.0000771  0.4184000  2
   1550   1562   3189   3180     1  0.0000000  1.6024720  3
   1553   1559   3160   3151     1  180.0000771  0.4184000  2
   1553   1559   3160   3151     1  0.0000000  1.6024720  3
   1559   3160   3151   3142     1  180.0000771  0.4184000  2
   1559   3160   3151   3142     1  0.0000000  1.6024720  3
   1562   3189   3180   3171     1  180.0000771  0.4184000  2
   1562   3189   3180   3171     1  0.0000000  1.6024720  3
   1566   1567   1579   1591     1  0.0000000  0.6508444  3
   1566   1570   1582   1588     1  0.0000000  0.6508444  3
   1566   1573   1576   1585     1  0.0000000  0.6508444  3
   1567   1566   1570   1582     1  180.0000771  2.0083200  2
   1567   1566   1570   1582     1  0.0000000  1.2552000  3
   1567   1566   1573   1576     1  180.0000771  2.0083200  2
   1567   1566   1573   1576     1  0.0000000  1.2552000  3
   1567   1579   1591   3247     1  0.0000000  0.6508444  3
   1570   1566   1567   1579     1  180.0000771  2.0083200  2
   1570   1566   1567   1579     1  0.0000000  1.2552000  3
   1570   1566   1573   1576     1  180.0000771  2.0083200  2
   1570   1566   1573   1576     1  0.0000000  1.2552000  3
   1570   1582   1588   3218     1  0.0000000  0.6508444  3
   1573   1566   1567   1579     1  180.0000771  2.0083200  2
   1573   1566   1567   1579     1  0.0000000  1.2552000  3
   1573   1566   1570   1582     1  180.0000771  2.0083200  2
   1573   1566   1570   1582     1  0.0000000  1.2552000  3
   1573   1576   1585   1594     1  0.0000000  0.6508444  3
   1579   1591   3247   3238     1  180.0000771  0.4184000  2
   1579   1591   3247   3238     1  0.0000000  1.6024720  3
   1582   1588   3218   3209     1  180.0000771  0.4184000  2
   1582   1588   3218   3209     1  0.0000000  1.6024720  3
   1588   3218   3209   3200     1  180.0000771  0.4184000  2
   1588   3218   3209   3200     1  0.0000000  1.6024720  3
   1591   3247   3238   3229     1  180.0000771  0.4184000  2
   1591   3247   3238   3229     1  0.0000000  1.6024720  3
   1595   1596   1608   1620     1  0.0000000  0.6508444  3
   1595   1599   1611   1617     1  0.0000000  0.6508444  3
   1595   1602   1605   1614     1  0.0000000  0.6508444  3
   1596   1595   1599   1611     1  180.0000771  2.0083200  2
   1596   1595   1599   1611     1  0.0000000  1.2552000  3
   1596   1595   1602   1605     1  180.0000771  2.0083200  2
   1596   1595   1602   1605     1  0.0000000  1.2552000  3
   1596   1608   1620   3305     1  0.0000000  0.6508444  3
   1599   1595   1596   1608     1  180.0000771  2.0083200  2
   1599   1595   1596   1608     1  0.0000000  1.2552000  3
   1599   1595   1602   1605     1  180.0000771  2.0083200  2
   1599   1595   1602   1605     1  0.0000000  1.2552000  3
   1599   1611   1617   3276     1  0.0000000  0.6508444  3
   1602   1595   1596   1608     1  180.0000771  2.0083200  2
   1602   1595   1596   1608     1  0.0000000  1.2552000  3
   1602   1595   1599   1611     1  180.0000771  2.0083200  2
   1602   1595   1599   1611     1  0.0000000  1.2552000  3
   1602   1605   1614   1623     1  0.0000000  0.6508444  3
   1608   1620   3305   3296     1  180.0000771  0.4184000  2
   1608   1620   3305   3296     1  0.0000000  1.6024720  3
   1611   1617   3276   3267     1  180.0000771  0.4184000  2
   1611   1617   3276   3267     1  0.0000000  1.6024720  3
   1617   3276   3267   3258     1  180.0000771  0.4184000  2
   1617   3276   3267   3258     1  0.0000000  1.6024720  3
   1620   3305   3296   3287     1  180.0000771  0.4184000  2
   1620   3305   3296   3287     1  0.0000000  1.6024720  3
   1624   1625   1637   1649     1  0.0000000  0.6508444  3
   1624   1628   1640   1646     1  0.0000000  0.6508444  3
   1624   1631   1634   1643     1  0.0000000  0.6508444  3
   1625   1624   1628   1640     1  180.0000771  2.0083200  2
   1625   1624   1628   1640     1  0.0000000  1.2552000  3
   1625   1624   1631   1634     1  180.0000771  2.0083200  2
   1625   1624   1631   1634     1  0.0000000  1.2552000  3
   1625   1637   1649   3363     1  0.0000000  0.6508444  3
   1628   1624   1625   1637     1  180.0000771  2.0083200  2
   1628   1624   1625   1637     1  0.0000000  1.2552000  3
   1628   1624   1631   1634     1  180.0000771  2.0083200  2
   1628   1624   1631   1634     1  0.0000000  1.2552000  3
   1628   1640   1646   3334     1  0.0000000  0.6508444  3
   1631   1624   1625   1637     1  180.0000771  2.0083200  2
   1631   1624   1625   1637     1  0.0000000  1.2552000  3
   1631   1624   1628   1640     1  180.0000771  2.0083200  2
   1631   1624   1628   1640     1  0.0000000  1.2552000  3
   1631   1634   1643   1652     1  0.0000000  0.6508444  3
   1637   1649   3363   3354     1  180.0000771  0.4184000  2
   1637   1649   3363   3354     1  0.0000000  1.6024720  3
   1640   1646   3334   3325     1  180.0000771  0.4184000  2
   1640   1646   3334   3325     1  0.0000000  1.6024720  3
   1646   3334   3325   3316     1  180.0000771  0.4184000  2
   1646   3334   3325   3316     1  0.0000000  1.6024720  3
   1649   3363   3354   3345     1  180.0000771  0.4184000  2
   1649   3363   3354   3345     1  0.0000000  1.6024720  3
   1653   1654   1666   1678     1  0.0000000  0.6508444  3
   1653   1657   1669   1675     1  0.0000000  0.6508444  3
   1653   1660   1663   1672     1  0.0000000  0.6508444  3
   1654   1653   1657   1669     1  180.0000771  2.0083200  2
   1654   1653   1657   1669     1  0.0000000  1.2552000  3
   1654   1653   1660   1663     1  180.0000771  2.0083200  2
   1654   1653   1660   1663     1  0.0000000  1.2552000  3
   1654   1666   1678   3421     1  0.0000000  0.6508444  3
   1657   1653   1654   1666     1  180.0000771  2.0083200  2
   1657   1653   1654   1666     1  0.0000000  1.2552000  3
   1657   1653   1660   1663     1  180.0000771  2.0083200  2
   1657   1653   1660   1663     1  0.0000000  1.2552000  3
   1657   1669   1675   3392     1  0.0000000  0.6508444  3
   1660   1653   1654   1666     1  180.0000771  2.0083200  2
   1660   1653   1654   1666     1  0.0000000  1.2552000  3
   1660   1653   1657   1669     1  180.0000771  2.0083200  2
   1660   1653   1657   1669     1  0.0000000  1.2552000  3
   1660   1663   1672   1681     1  0.0000000  0.6508444  3
   1666   1678   3421   3412     1  180.0000771  0.4184000  2
   1666   1678   3421   3412     1  0.0000000  1.6024720  3
   1669   1675   3392   3383     1  180.0000771  0.4184000  2
   1669   1675   3392   3383     1  0.0000000  1.6024720  3
   1675   3392   3383   3374     1  180.0000771  0.4184000  2
   1675   3392   3383   3374     1  0.0000000  1.6024720  3
   1678   3421   3412   3403     1  180.0000771  0.4184000  2
   1678   3421   3412   3403     1  0.0000000  1.6024720  3
   1682   1683   1695   1707     1  0.0000000  0.6508444  3
   1682   1686   1698   1704     1  0.0000000  0.6508444  3
   1682   1689   1692   1701     1  0.0000000  0.6508444  3
   1683   1682   1686   1698     1  180.0000771  2.0083200  2
   1683   1682   1686   1698     1  0.0000000  1.2552000  3
   1683   1682   1689   1692     1  180.0000771  2.0083200  2
   1683   1682   1689   1692     1  0.0000000  1.2552000  3
   1683   1695   1707   3479     1  0.0000000  0.6508444  3
   1686   1682   1683   1695     1  180.0000771  2.0083200  2
   1686   1682   1683   1695     1  0.0000000  1.2552000  3
   1686   1682   1689   1692     1  180.0000771  2.0083200  2
   1686   1682   1689   1692     1  0.0000000  1.2552000  3
   1686   1698   1704   3450     1  0.0000000  0.6508444  3
   1689   1682   1683   1695     1  180.0000771  2.0083200  2
   1689   1682   1683   1695     1  0.0000000  1.2552000  3
   1689   1682   1686   1698     1  180.0000771  2.0083200  2
   1689   1682   1686   1698     1  0.0000000  1.2552000  3
   1689   1692   1701   1710     1  0.0000000  0.6508444  3
   1695   1707   3479   3470     1  180.0000771  0.4184000  2
   1695   1707   3479   3470     1  0.0000000  1.6024720  3
   1698   1704   3450   3441     1  180.0000771  0.4184000  2
   1698   1704   3450   3441     1  0.0000000  1.6024720  3
   1704   3450   3441   3432     1  180.0000771  0.4184000  2
   1704   3450   3441   3432     1  0.0000000  1.6024720  3
   1707   3479   3470   3461     1  180.0000771  0.4184000  2
   1707   3479   3470   3461     1  0.0000000  1.6024720  3
   1711   1712   1724   1736     1  0.0000000  0.6508444  3
   1711   1715   1727   1733     1  0.0000000  0.6508444  3
   1711   1718   1721   1730     1  0.0000000  0.6508444  3
   1712   1711   1715   1727     1  180.0000771  2.0083200  2
   1712   1711   1715   1727     1  0.0000000  1.2552000  3
   1712   1711   1718   1721     1  180.0000771  2.0083200  2
   1712   1711   1718   1721     1  0.0000000  1.2552000  3
   1712   1724   1736   3537     1  0.0000000  0.6508444  3
   1715   1711   1712   1724     1  180.0000771  2.0083200  2
   1715   1711   1712   1724     1  0.0000000  1.2552000  3
   1715   1711   1718   1721     1  180.0000771  2.0083200  2
   1715   1711   1718   1721     1  0.0000000  1.2552000  3
   1715   1727   1733   3508     1  0.0000000  0.6508444  3
   1718   1711   1712   1724     1  180.0000771  2.0083200  2
   1718   1711   1712   1724     1  0.0000000  1.2552000  3
   1718   1711   1715   1727     1  180.0000771  2.0083200  2
   1718   1711   1715   1727     1  0.0000000  1.2552000  3
   1718   1721   1730   1739     1  0.0000000  0.6508444  3
   1724   1736   3537   3528     1  180.0000771  0.4184000  2
   1724   1736   3537   3528     1  0.0000000  1.6024720  3
   1727   1733   3508   3499     1  180.0000771  0.4184000  2
   1727   1733   3508   3499     1  0.0000000  1.6024720  3
   1733   3508   3499   3490     1  180.0000771  0.4184000  2
   1733   3508   3499   3490     1  0.0000000  1.6024720  3
   1736   3537   3528   3519     1  180.0000771  0.4184000  2
   1736   3537   3528   3519     1  0.0000000  1.6024720  3
   1740   1741   1753   1765     1  0.0000000  0.6508444  3
   1740   1744   1756   1762     1  0.0000000  0.6508444  3
   1740   1747   1750   1759     1  0.0000000  0.6508444  3
   1741   1740   1744   1756     1  180.0000771  2.0083200  2
   1741   1740   1744   1756     1  0.0000000  1.2552000  3
   1741   1740   1747   1750     1  180.0000771  2.0083200  2
   1741   1740   1747   1750     1  0.0000000  1.2552000  3
   1741   1753   1765   3595     1  0.0000000  0.6508444  3
   1744   1740   1741   1753     1  180.0000771  2.0083200  2
   1744   1740   1741   1753     1  0.0000000  1.2552000  3
   1744   1740   1747   1750     1  180.0000771  2.0083200  2
   1744   1740   1747   1750     1  0.0000000  1.2552000  3
   1744   1756   1762   3566     1  0.0000000  0.6508444  3
   1747   1740   1741   1753     1  180.0000771  2.0083200  2
   1747   1740   1741   1753     1  0.0000000  1.2552000  3
   1747   1740   1744   1756     1  180.0000771  2.0083200  2
   1747   1740   1744   1756     1  0.0000000  1.2552000  3
   1747   1750   1759   1768     1  0.0000000  0.6508444  3
   1753   1765   3595   3586     1  180.0000771  0.4184000  2
   1753   1765   3595   3586     1  0.0000000  1.6024720  3
   1756   1762   3566   3557     1  180.0000771  0.4184000  2
   1756   1762   3566   3557     1  0.0000000  1.6024720  3
   1762   3566   3557   3548     1  180.0000771  0.4184000  2
   1762   3566   3557   3548     1  0.0000000  1.6024720  3
   1765   3595   3586   3577     1  180.0000771  0.4184000  2
   1765   3595   3586   3577     1  0.0000000  1.6024720  3
   1769   1770   1782   1794     1  0.0000000  0.6508444  3
   1769   1773   1785   1791     1  0.0000000  0.6508444  3
   1769   1776   1779   1788     1  0.0000000  0.6508444  3
   1770   1769   1773   1785     1  180.0000771  2.0083200  2
   1770   1769   1773   1785     1  0.0000000  1.2552000  3
   1770   1769   1776   1779     1  180.0000771  2.0083200  2
   1770   1769   1776   1779     1  0.0000000  1.2552000  3
   1770   1782   1794   3653     1  0.0000000  0.6508444  3
   1773   1769   1770   1782     1  180.0000771  2.0083200  2
   1773   1769   1770   1782     1  0.0000000  1.2552000  3
   1773   1769   1776   1779     1  180.0000771  2.0083200  2
   1773   1769   1776   1779     1  0.0000000  1.2552000  3
   1773   1785   1791   3624     1  0.0000000  0.6508444  3
   1776   1769   1770   1782     1  180.0000771  2.0083200  2
   1776   1769   1770   1782     1  0.0000000  1.2552000  3
   1776   1769   1773   1785     1  180.0000771  2.0083200  2
   1776   1769   1773   1785     1  0.0000000  1.2552000  3
   1776   1779   1788   1797     1  0.0000000  0.6508444  3
   1782   1794   3653   3644     1  180.0000771  0.4184000  2
   1782   1794   3653   3644     1  0.0000000  1.6024720  3
   1785   1791   3624   3615     1  180.0000771  0.4184000  2
   1785   1791   3624   3615     1  0.0000000  1.6024720  3
   1791   3624   3615   3606     1  180.0000771  0.4184000  2
   1791   3624   3615   3606     1  0.0000000  1.6024720  3
   1794   3653   3644   3635     1  180.0000771  0.4184000  2
   1794   3653   3644   3635     1  0.0000000  1.6024720  3
   1798   1799   1811   1823     1  0.0000000  0.6508444  3
   1798   1802   1814   1820     1  0.0000000  0.6508444  3
   1798   1805   1808   1817     1  0.0000000  0.6508444  3
   1799   1798   1802   1814     1  180.0000771  2.0083200  2
   1799   1798   1802   1814     1  0.0000000  1.2552000  3
   1799   1798   1805   1808     1  180.0000771  2.0083200  2
   1799   1798   1805   1808     1  0.0000000  1.2552000  3
   1799   1811   1823   3711     1  0.0000000  0.6508444  3
   1802   1798   1799   1811     1  180.0000771  2.0083200  2
   1802   1798   1799   1811     1  0.0000000  1.2552000  3
   1802   1798   1805   1808     1  180.0000771  2.0083200  2
   1802   1798   1805   1808     1  0.0000000  1.2552000  3
   1802   1814   1820   3682     1  0.0000000  0.6508444  3
   1805   1798   1799   1811     1  180.0000771  2.0083200  2
   1805   1798   1799   1811     1  0.0000000  1.2552000  3
   1805   1798   1802   1814     1  180.0000771  2.0083200  2
   1805   1798   1802   1814     1  0.0000000  1.2552000  3
   1805   1808   1817   1826     1  0.0000000  0.6508444  3
   1811   1823   3711   3702     1  180.0000771  0.4184000  2
   1811   1823   3711   3702     1  0.0000000  1.6024720  3
   1814   1820   3682   3673     1  180.0000771  0.4184000  2
   1814   1820   3682   3673     1  0.0000000  1.6024720  3
   1820   3682   3673   3664     1  180.0000771  0.4184000  2
   1820   3682   3673   3664     1  0.0000000  1.6024720  3
   1823   3711   3702   3693     1  180.0000771  0.4184000  2
   1823   3711   3702   3693     1  0.0000000  1.6024720  3
   1827   1828   1840   1852     1  0.0000000  0.6508444  3
   1827   1831   1843   1849     1  0.0000000  0.6508444  3
   1827   1834   1837   1846     1  0.0000000  0.6508444  3
   1828   1827   1831   1843     1  180.0000771  2.0083200  2
   1828   1827   1831   1843     1  0.0000000  1.2552000  3
   1828   1827   1834   1837     1  180.0000771  2.0083200  2
   1828   1827   1834   1837     1  0.0000000  1.2552000  3
   1828   1840   1852   3769     1  0.0000000  0.6508444  3
   1831   1827   1828   1840     1  180.0000771  2.0083200  2
   1831   1827   1828   1840     1  0.0000000  1.2552000  3
   1831   1827   1834   1837     1  180.0000771  2.0083200  2
   1831   1827   1834   1837     1  0.0000000  1.2552000  3
   1831   1843   1849   3740     1  0.0000000  0.6508444  3
   1834   1827   1828   1840     1  180.0000771  2.0083200  2
   1834   1827   1828   1840     1  0.0000000  1.2552000  3
   1834   1827   1831   1843     1  180.0000771  2.0083200  2
   1834   1827   1831   1843     1  0.0000000  1.2552000  3
   1834   1837   1846   1855     1  0.0000000  0.6508444  3
   1840   1852   3769   3760     1  180.0000771  0.4184000  2
   1840   1852   3769   3760     1  0.0000000  1.6024720  3
   1843   1849   3740   3731     1  180.0000771  0.4184000  2
   1843   1849   3740   3731     1  0.0000000  1.6024720  3
   1849   3740   3731   3722     1  180.0000771  0.4184000  2
   1849   3740   3731   3722     1  0.0000000  1.6024720  3
   1852   3769   3760   3751     1  180.0000771  0.4184000  2
   1852   3769   3760   3751     1  0.0000000  1.6024720  3
   1856   1857   1869   1881     1  0.0000000  0.6508444  3
   1856   1860   1872   1878     1  0.0000000  0.6508444  3
   1856   1863   1866   1875     1  0.0000000  0.6508444  3
   1857   1856   1860   1872     1  180.0000771  2.0083200  2
   1857   1856   1860   1872     1  0.0000000  1.2552000  3
   1857   1856   1863   1866     1  180.0000771  2.0083200  2
   1857   1856   1863   1866     1  0.0000000  1.2552000  3
   1857   1869   1881   3827     1  0.0000000  0.6508444  3
   1860   1856   1857   1869     1  180.0000771  2.0083200  2
   1860   1856   1857   1869     1  0.0000000  1.2552000  3
   1860   1856   1863   1866     1  180.0000771  2.0083200  2
   1860   1856   1863   1866     1  0.0000000  1.2552000  3
   1860   1872   1878   3798     1  0.0000000  0.6508444  3
   1863   1856   1857   1869     1  180.0000771  2.0083200  2
   1863   1856   1857   1869     1  0.0000000  1.2552000  3
   1863   1856   1860   1872     1  180.0000771  2.0083200  2
   1863   1856   1860   1872     1  0.0000000  1.2552000  3
   1863   1866   1875   1884     1  0.0000000  0.6508444  3
   1869   1881   3827   3818     1  180.0000771  0.4184000  2
   1869   1881   3827   3818     1  0.0000000  1.6024720  3
   1872   1878   3798   3789     1  180.0000771  0.4184000  2
   1872   1878   3798   3789     1  0.0000000  1.6024720  3
   1878   3798   3789   3780     1  180.0000771  0.4184000  2
   1878   3798   3789   3780     1  0.0000000  1.6024720  3
   1881   3827   3818   3809     1  180.0000771  0.4184000  2
   1881   3827   3818   3809     1  0.0000000  1.6024720  3
   1885   1886   1898   1910     1  0.0000000  0.6508444  3
   1885   1889   1901   1907     1  0.0000000  0.6508444  3
   1885   1892   1895   1904     1  0.0000000  0.6508444  3
   1886   1885   1889   1901     1  180.0000771  2.0083200  2
   1886   1885   1889   1901     1  0.0000000  1.2552000  3
   1886   1885   1892   1895     1  180.0000771  2.0083200  2
   1886   1885   1892   1895     1  0.0000000  1.2552000  3
   1886   1898   1910   3885     1  0.0000000  0.6508444  3
   1889   1885   1886   1898     1  180.0000771  2.0083200  2
   1889   1885   1886   1898     1  0.0000000  1.2552000  3
   1889   1885   1892   1895     1  180.0000771  2.0083200  2
   1889   1885   1892   1895     1  0.0000000  1.2552000  3
   1889   1901   1907   3856     1  0.0000000  0.6508444  3
   1892   1885   1886   1898     1  180.0000771  2.0083200  2
   1892   1885   1886   1898     1  0.0000000  1.2552000  3
   1892   1885   1889   1901     1  180.0000771  2.0083200  2
   1892   1885   1889   1901     1  0.0000000  1.2552000  3
   1892   1895   1904   1913     1  0.0000000  0.6508444  3
   1898   1910   3885   3876     1  180.0000771  0.4184000  2
   1898   1910   3885   3876     1  0.0000000  1.6024720  3
   1901   1907   3856   3847     1  180.0000771  0.4184000  2
   1901   1907   3856   3847     1  0.0000000  1.6024720  3
   1907   3856   3847   3838     1  180.0000771  0.4184000  2
   1907   3856   3847   3838     1  0.0000000  1.6024720  3
   1910   3885   3876   3867     1  180.0000771  0.4184000  2
   1910   3885   3876   3867     1  0.0000000  1.6024720  3
   1914   1915   1927   1939     1  0.0000000  0.6508444  3
   1914   1918   1930   1936     1  0.0000000  0.6508444  3
   1914   1921   1924   1933     1  0.0000000  0.6508444  3
   1915   1914   1918   1930     1  180.0000771  2.0083200  2
   1915   1914   1918   1930     1  0.0000000  1.2552000  3
   1915   1914   1921   1924     1  180.0000771  2.0083200  2
   1915   1914   1921   1924     1  0.0000000  1.2552000  3
   1915   1927   1939   3943     1  0.0000000  0.6508444  3
   1918   1914   1915   1927     1  180.0000771  2.0083200  2
   1918   1914   1915   1927     1  0.0000000  1.2552000  3
   1918   1914   1921   1924     1  180.0000771  2.0083200  2
   1918   1914   1921   1924     1  0.0000000  1.2552000  3
   1918   1930   1936   3914     1  0.0000000  0.6508444  3
   1921   1914   1915   1927     1  180.0000771  2.0083200  2
   1921   1914   1915   1927     1  0.0000000  1.2552000  3
   1921   1914   1918   1930     1  180.0000771  2.0083200  2
   1921   1914   1918   1930     1  0.0000000  1.2552000  3
   1921   1924   1933   1942     1  0.0000000  0.6508444  3
   1927   1939   3943   3934     1  180.0000771  0.4184000  2
   1927   1939   3943   3934     1  0.0000000  1.6024720  3
   1930   1936   3914   3905     1  180.0000771  0.4184000  2
   1930   1936   3914   3905     1  0.0000000  1.6024720  3
   1936   3914   3905   3896     1  180.0000771  0.4184000  2
   1936   3914   3905   3896     1  0.0000000  1.6024720  3
   1939   3943   3934   3925     1  180.0000771  0.4184000  2
   1939   3943   3934   3925     1  0.0000000  1.6024720  3
   1943   1944   1956   1968     1  0.0000000  0.6508444  3
   1943   1947   1959   1965     1  0.0000000  0.6508444  3
   1943   1950   1953   1962     1  0.0000000  0.6508444  3
   1944   1943   1947   1959     1  180.0000771  2.0083200  2
   1944   1943   1947   1959     1  0.0000000  1.2552000  3
   1944   1943   1950   1953     1  180.0000771  2.0083200  2
   1944   1943   1950   1953     1  0.0000000  1.2552000  3
   1944   1956   1968   4001     1  0.0000000  0.6508444  3
   1947   1943   1944   1956     1  180.0000771  2.0083200  2
   1947   1943   1944   1956     1  0.0000000  1.2552000  3
   1947   1943   1950   1953     1  180.0000771  2.0083200  2
   1947   1943   1950   1953     1  0.0000000  1.2552000  3
   1947   1959   1965   3972     1  0.0000000  0.6508444  3
   1950   1943   1944   1956     1  180.0000771  2.0083200  2
   1950   1943   1944   1956     1  0.0000000  1.2552000  3
   1950   1943   1947   1959     1  180.0000771  2.0083200  2
   1950   1943   1947   1959     1  0.0000000  1.2552000  3
   1950   1953   1962   1971     1  0.0000000  0.6508444  3
   1956   1968   4001   3992     1  180.0000771  0.4184000  2
   1956   1968   4001   3992     1  0.0000000  1.6024720  3
   1959   1965   3972   3963     1  180.0000771  0.4184000  2
   1959   1965   3972   3963     1  0.0000000  1.6024720  3
   1965   3972   3963   3954     1  180.0000771  0.4184000  2
   1965   3972   3963   3954     1  0.0000000  1.6024720  3
   1968   4001   3992   3983     1  180.0000771  0.4184000  2
   1968   4001   3992   3983     1  0.0000000  1.6024720  3
   1972   1973   1985   1997     1  0.0000000  0.6508444  3
   1972   1976   1988   1994     1  0.0000000  0.6508444  3
   1972   1979   1982   1991     1  0.0000000  0.6508444  3
   1973   1972   1976   1988     1  180.0000771  2.0083200  2
   1973   1972   1976   1988     1  0.0000000  1.2552000  3
   1973   1972   1979   1982     1  180.0000771  2.0083200  2
   1973   1972   1979   1982     1  0.0000000  1.2552000  3
   1973   1985   1997   4059     1  0.0000000  0.6508444  3
   1976   1972   1973   1985     1  180.0000771  2.0083200  2
   1976   1972   1973   1985     1  0.0000000  1.2552000  3
   1976   1972   1979   1982     1  180.0000771  2.0083200  2
   1976   1972   1979   1982     1  0.0000000  1.2552000  3
   1976   1988   1994   4030     1  0.0000000  0.6508444  3
   1979   1972   1973   1985     1  180.0000771  2.0083200  2
   1979   1972   1973   1985     1  0.0000000  1.2552000  3
   1979   1972   1976   1988     1  180.0000771  2.0083200  2
   1979   1972   1976   1988     1  0.0000000  1.2552000  3
   1979   1982   1991   2000     1  0.0000000  0.6508444  3
   1985   1997   4059   4050     1  180.0000771  0.4184000  2
   1985   1997   4059   4050     1  0.0000000  1.6024720  3
   1988   1994   4030   4021     1  180.0000771  0.4184000  2
   1988   1994   4030   4021     1  0.0000000  1.6024720  3
   1994   4030   4021   4012     1  180.0000771  0.4184000  2
   1994   4030   4021   4012     1  0.0000000  1.6024720  3
   1997   4059   4050   4041     1  180.0000771  0.4184000  2
   1997   4059   4050   4041     1  0.0000000  1.6024720  3
   2001   2002   2014   2026     1  0.0000000  0.6508444  3
   2001   2005   2017   2023     1  0.0000000  0.6508444  3
   2001   2008   2011   2020     1  0.0000000  0.6508444  3
   2002   2001   2005   2017     1  180.0000771  2.0083200  2
   2002   2001   2005   2017     1  0.0000000  1.2552000  3
   2002   2001   2008   2011     1  180.0000771  2.0083200  2
   2002   2001   2008   2011     1  0.0000000  1.2552000  3
   2002   2014   2026   4117     1  0.0000000  0.6508444  3
   2005   2001   2002   2014     1  180.0000771  2.0083200  2
   2005   2001   2002   2014     1  0.0000000  1.2552000  3
   2005   2001   2008   2011     1  180.0000771  2.0083200  2
   2005   2001   2008   2011     1  0.0000000  1.2552000  3
   2005   2017   2023   4088     1  0.0000000  0.6508444  3
   2008   2001   2002   2014     1  180.0000771  2.0083200  2
   2008   2001   2002   2014     1  0.0000000  1.2552000  3
   2008   2001   2005   2017     1  180.0000771  2.0083200  2
   2008   2001   2005   2017     1  0.0000000  1.2552000  3
   2008   2011   2020   2029     1  0.0000000  0.6508444  3
   2014   2026   4117   4108     1  180.0000771  0.4184000  2
   2014   2026   4117   4108     1  0.0000000  1.6024720  3
   2017   2023   4088   4079     1  180.0000771  0.4184000  2
   2017   2023   4088   4079     1  0.0000000  1.6024720  3
   2023   4088   4079   4070     1  180.0000771  0.4184000  2
   2023   4088   4079   4070     1  0.0000000  1.6024720  3
   2026   4117   4108   4099     1  180.0000771  0.4184000  2
   2026   4117   4108   4099     1  0.0000000  1.6024720  3
   2030   2031   2043   2055     1  0.0000000  0.6508444  3
   2030   2034   2046   2052     1  0.0000000  0.6508444  3
   2030   2037   2040   2049     1  0.0000000  0.6508444  3
   2031   2030   2034   2046     1  180.0000771  2.0083200  2
   2031   2030   2034   2046     1  0.0000000  1.2552000  3
   2031   2030   2037   2040     1  180.0000771  2.0083200  2
   2031   2030   2037   2040     1  0.0000000  1.2552000  3
   2031   2043   2055   4175     1  0.0000000  0.6508444  3
   2034   2030   2031   2043     1  180.0000771  2.0083200  2
   2034   2030   2031   2043     1  0.0000000  1.2552000  3
   2034   2030   2037   2040     1  180.0000771  2.0083200  2
   2034   2030   2037   2040     1  0.0000000  1.2552000  3
   2034   2046   2052   4146     1  0.0000000  0.6508444  3
   2037   2030   2031   2043     1  180.0000771  2.0083200  2
   2037   2030   2031   2043     1  0.0000000  1.2552000  3
   2037   2030   2034   2046     1  180.0000771  2.0083200  2
   2037   2030   2034   2046     1  0.0000000  1.2552000  3
   2037   2040   2049   2058     1  0.0000000  0.6508444  3
   2043   2055   4175   4166     1  180.0000771  0.4184000  2
   2043   2055   4175   4166     1  0.0000000  1.6024720  3
   2046   2052   4146   4137     1  180.0000771  0.4184000  2
   2046   2052   4146   4137     1  0.0000000  1.6024720  3
   2052   4146   4137   4128     1  180.0000771  0.4184000  2
   2052   4146   4137   4128     1  0.0000000  1.6024720  3
   2055   4175   4166   4157     1  180.0000771  0.4184000  2
   2055   4175   4166   4157     1  0.0000000  1.6024720  3
   2059   2060   2072   2084     1  0.0000000  0.6508444  3
   2059   2063   2075   2081     1  0.0000000  0.6508444  3
   2059   2066   2069   2078     1  0.0000000  0.6508444  3
   2060   2059   2063   2075     1  180.0000771  2.0083200  2
   2060   2059   2063   2075     1  0.0000000  1.2552000  3
   2060   2059   2066   2069     1  180.0000771  2.0083200  2
   2060   2059   2066   2069     1  0.0000000  1.2552000  3
   2060   2072   2084   4233     1  0.0000000  0.6508444  3
   2063   2059   2060   2072     1  180.0000771  2.0083200  2
   2063   2059   2060   2072     1  0.0000000  1.2552000  3
   2063   2059   2066   2069     1  180.0000771  2.0083200  2
   2063   2059   2066   2069     1  0.0000000  1.2552000  3
   2063   2075   2081   4204     1  0.0000000  0.6508444  3
   2066   2059   2060   2072     1  180.0000771  2.0083200  2
   2066   2059   2060   2072     1  0.0000000  1.2552000  3
   2066   2059   2063   2075     1  180.0000771  2.0083200  2
   2066   2059   2063   2075     1  0.0000000  1.2552000  3
   2066   2069   2078   2087     1  0.0000000  0.6508444  3
   2072   2084   4233   4224     1  180.0000771  0.4184000  2
   2072   2084   4233   4224     1  0.0000000  1.6024720  3
   2075   2081   4204   4195     1  180.0000771  0.4184000  2
   2075   2081   4204   4195     1  0.0000000  1.6024720  3
   2081   4204   4195   4186     1  180.0000771  0.4184000  2
   2081   4204   4195   4186     1  0.0000000  1.6024720  3
   2084   4233   4224   4215     1  180.0000771  0.4184000  2
   2084   4233   4224   4215     1  0.0000000  1.6024720  3
   2088   2089   2101   2113     1  0.0000000  0.6508444  3
   2088   2092   2104   2110     1  0.0000000  0.6508444  3
   2088   2095   2098   2107     1  0.0000000  0.6508444  3
   2089   2088   2092   2104     1  180.0000771  2.0083200  2
   2089   2088   2092   2104     1  0.0000000  1.2552000  3
   2089   2088   2095   2098     1  180.0000771  2.0083200  2
   2089   2088   2095   2098     1  0.0000000  1.2552000  3
   2089   2101   2113   4291     1  0.0000000  0.6508444  3
   2092   2088   2089   2101     1  180.0000771  2.0083200  2
   2092   2088   2089   2101     1  0.0000000  1.2552000  3
   2092   2088   2095   2098     1  180.0000771  2.0083200  2
   2092   2088   2095   2098     1  0.0000000  1.2552000  3
   2092   2104   2110   4262     1  0.0000000  0.6508444  3
   2095   2088   2089   2101     1  180.0000771  2.0083200  2
   2095   2088   2089   2101     1  0.0000000  1.2552000  3
   2095   2088   2092   2104     1  180.0000771  2.0083200  2
   2095   2088   2092   2104     1  0.0000000  1.2552000  3
   2095   2098   2107   2116     1  0.0000000  0.6508444  3
   2101   2113   4291   4282     1  180.0000771  0.4184000  2
   2101   2113   4291   4282     1  0.0000000  1.6024720  3
   2104   2110   4262   4253     1  180.0000771  0.4184000  2
   2104   2110   4262   4253     1  0.0000000  1.6024720  3
   2110   4262   4253   4244     1  180.0000771  0.4184000  2
   2110   4262   4253   4244     1  0.0000000  1.6024720  3
   2113   4291   4282   4273     1  180.0000771  0.4184000  2
   2113   4291   4282   4273     1  0.0000000  1.6024720  3
   2117   2118   2130   2142     1  0.0000000  0.6508444  3
   2117   2121   2133   2139     1  0.0000000  0.6508444  3
   2117   2124   2127   2136     1  0.0000000  0.6508444  3
   2118   2117   2121   2133     1  180.0000771  2.0083200  2
   2118   2117   2121   2133     1  0.0000000  1.2552000  3
   2118   2117   2124   2127     1  180.0000771  2.0083200  2
   2118   2117   2124   2127     1  0.0000000  1.2552000  3
   2118   2130   2142   4349     1  0.0000000  0.6508444  3
   2121   2117   2118   2130     1  180.0000771  2.0083200  2
   2121   2117   2118   2130     1  0.0000000  1.2552000  3
   2121   2117   2124   2127     1  180.0000771  2.0083200  2
   2121   2117   2124   2127     1  0.0000000  1.2552000  3
   2121   2133   2139   4320     1  0.0000000  0.6508444  3
   2124   2117   2118   2130     1  180.0000771  2.0083200  2
   2124   2117   2118   2130     1  0.0000000  1.2552000  3
   2124   2117   2121   2133     1  180.0000771  2.0083200  2
   2124   2117   2121   2133     1  0.0000000  1.2552000  3
   2124   2127   2136   2145     1  0.0000000  0.6508444  3
   2130   2142   4349   4340     1  180.0000771  0.4184000  2
   2130   2142   4349   4340     1  0.0000000  1.6024720  3
   2133   2139   4320   4311     1  180.0000771  0.4184000  2
   2133   2139   4320   4311     1  0.0000000  1.6024720  3
   2139   4320   4311   4302     1  180.0000771  0.4184000  2
   2139   4320   4311   4302     1  0.0000000  1.6024720  3
   2142   4349   4340   4331     1  180.0000771  0.4184000  2
   2142   4349   4340   4331     1  0.0000000  1.6024720  3
   2146   2147   2159   2171     1  0.0000000  0.6508444  3
   2146   2150   2162   2168     1  0.0000000  0.6508444  3
   2146   2153   2156   2165     1  0.0000000  0.6508444  3
   2147   2146   2150   2162     1  180.0000771  2.0083200  2
   2147   2146   2150   2162     1  0.0000000  1.2552000  3
   2147   2146   2153   2156     1  180.0000771  2.0083200  2
   2147   2146   2153   2156     1  0.0000000  1.2552000  3
   2147   2159   2171   4407     1  0.0000000  0.6508444  3
   2150   2146   2147   2159     1  180.0000771  2.0083200  2
   2150   2146   2147   2159     1  0.0000000  1.2552000  3
   2150   2146   2153   2156     1  180.0000771  2.0083200  2
   2150   2146   2153   2156     1  0.0000000  1.2552000  3
   2150   2162   2168   4378     1  0.0000000  0.6508444  3
   2153   2146   2147   2159     1  180.0000771  2.0083200  2
   2153   2146   2147   2159     1  0.0000000  1.2552000  3
   2153   2146   2150   2162     1  180.0000771  2.0083200  2
   2153   2146   2150   2162     1  0.0000000  1.2552000  3
   2153   2156   2165   2174     1  0.0000000  0.6508444  3
   2159   2171   4407   4398     1  180.0000771  0.4184000  2
   2159   2171   4407   4398     1  0.0000000  1.6024720  3
   2162   2168   4378   4369     1  180.0000771  0.4184000  2
   2162   2168   4378   4369     1  0.0000000  1.6024720  3
   2168   4378   4369   4360     1  180.0000771  0.4184000  2
   2168   4378   4369   4360     1  0.0000000  1.6024720  3
   2171   4407   4398   4389     1  180.0000771  0.4184000  2
   2171   4407   4398   4389     1  0.0000000  1.6024720  3
   2175   2176   2188   2200     1  0.0000000  0.6508444  3
   2175   2179   2191   2197     1  0.0000000  0.6508444  3
   2175   2182   2185   2194     1  0.0000000  0.6508444  3
   2176   2175   2179   2191     1  180.0000771  2.0083200  2
   2176   2175   2179   2191     1  0.0000000  1.2552000  3
   2176   2175   2182   2185     1  180.0000771  2.0083200  2
   2176   2175   2182   2185     1  0.0000000  1.2552000  3
   2176   2188   2200   4465     1  0.0000000  0.6508444  3
   2179   2175   2176   2188     1  180.0000771  2.0083200  2
   2179   2175   2176   2188     1  0.0000000  1.2552000  3
   2179   2175   2182   2185     1  180.0000771  2.0083200  2
   2179   2175   2182   2185     1  0.0000000  1.2552000  3
   2179   2191   2197   4436     1  0.0000000  0.6508444  3
   2182   2175   2176   2188     1  180.0000771  2.0083200  2
   2182   2175   2176   2188     1  0.0000000  1.2552000  3
   2182   2175   2179   2191     1  180.0000771  2.0083200  2
   2182   2175   2179   2191     1  0.0000000  1.2552000  3
   2182   2185   2194   2203     1  0.0000000  0.6508444  3
   2188   2200   4465   4456     1  180.0000771  0.4184000  2
   2188   2200   4465   4456     1  0.0000000  1.6024720  3
   2191   2197   4436   4427     1  180.0000771  0.4184000  2
   2191   2197   4436   4427     1  0.0000000  1.6024720  3
   2197   4436   4427   4418     1  180.0000771  0.4184000  2
   2197   4436   4427   4418     1  0.0000000  1.6024720  3
   2200   4465   4456   4447     1  180.0000771  0.4184000  2
   2200   4465   4456   4447     1  0.0000000  1.6024720  3
   2204   2205   2217   2229     1  0.0000000  0.6508444  3
   2204   2208   2220   2226     1  0.0000000  0.6508444  3
   2204   2211   2214   2223     1  0.0000000  0.6508444  3
   2205   2204   2208   2220     1  180.0000771  2.0083200  2
   2205   2204   2208   2220     1  0.0000000  1.2552000  3
   2205   2204   2211   2214     1  180.0000771  2.0083200  2
   2205   2204   2211   2214     1  0.0000000  1.2552000  3
   2205   2217   2229   4523     1  0.0000000  0.6508444  3
   2208   2204   2205   2217     1  180.0000771  2.0083200  2
   2208   2204   2205   2217     1  0.0000000  1.2552000  3
   2208   2204   2211   2214     1  180.0000771  2.0083200  2
   2208   2204   2211   2214     1  0.0000000  1.2552000  3
   2208   2220   2226   4494     1  0.0000000  0.6508444  3
   2211   2204   2205   2217     1  180.0000771  2.0083200  2
   2211   2204   2205   2217     1  0.0000000  1.2552000  3
   2211   2204   2208   2220     1  180.0000771  2.0083200  2
   2211   2204   2208   2220     1  0.0000000  1.2552000  3
   2211   2214   2223   2232     1  0.0000000  0.6508444  3
   2217   2229   4523   4514     1  180.0000771  0.4184000  2
   2217   2229   4523   4514     1  0.0000000  1.6024720  3
   2220   2226   4494   4485     1  180.0000771  0.4184000  2
   2220   2226   4494   4485     1  0.0000000  1.6024720  3
   2226   4494   4485   4476     1  180.0000771  0.4184000  2
   2226   4494   4485   4476     1  0.0000000  1.6024720  3
   2229   4523   4514   4505     1  180.0000771  0.4184000  2
   2229   4523   4514   4505     1  0.0000000  1.6024720  3
   2233   2234   2246   2258     1  0.0000000  0.6508444  3
   2233   2237   2249   2255     1  0.0000000  0.6508444  3
   2233   2240   2243   2252     1  0.0000000  0.6508444  3
   2234   2233   2237   2249     1  180.0000771  2.0083200  2
   2234   2233   2237   2249     1  0.0000000  1.2552000  3
   2234   2233   2240   2243     1  180.0000771  2.0083200  2
   2234   2233   2240   2243     1  0.0000000  1.2552000  3
   2234   2246   2258   4581     1  0.0000000  0.6508444  3
   2237   2233   2234   2246     1  180.0000771  2.0083200  2
   2237   2233   2234   2246     1  0.0000000  1.2552000  3
   2237   2233   2240   2243     1  180.0000771  2.0083200  2
   2237   2233   2240   2243     1  0.0000000  1.2552000  3
   2237   2249   2255   4552     1  0.0000000  0.6508444  3
   2240   2233   2234   2246     1  180.0000771  2.0083200  2
   2240   2233   2234   2246     1  0.0000000  1.2552000  3
   2240   2233   2237   2249     1  180.0000771  2.0083200  2
   2240   2233   2237   2249     1  0.0000000  1.2552000  3
   2240   2243   2252   2261     1  0.0000000  0.6508444  3
   2246   2258   4581   4572     1  180.0000771  0.4184000  2
   2246   2258   4581   4572     1  0.0000000  1.6024720  3
   2249   2255   4552   4543     1  180.0000771  0.4184000  2
   2249   2255   4552   4543     1  0.0000000  1.6024720  3
   2255   4552   4543   4534     1  180.0000771  0.4184000  2
   2255   4552   4543   4534     1  0.0000000  1.6024720  3
   2258   4581   4572   4563     1  180.0000771  0.4184000  2
   2258   4581   4572   4563     1  0.0000000  1.6024720  3
   2262   2263   2275   2287     1  0.0000000  0.6508444  3
   2262   2266   2278   2284     1  0.0000000  0.6508444  3
   2262   2269   2272   2281     1  0.0000000  0.6508444  3
   2263   2262   2266   2278     1  180.0000771  2.0083200  2
   2263   2262   2266   2278     1  0.0000000  1.2552000  3
   2263   2262   2269   2272     1  180.0000771  2.0083200  2
   2263   2262   2269   2272     1  0.0000000  1.2552000  3
   2263   2275   2287   4639     1  0.0000000  0.6508444  3
   2266   2262   2263   2275     1  180.0000771  2.0083200  2
   2266   2262   2263   2275     1  0.0000000  1.2552000  3
   2266   2262   2269   2272     1  180.0000771  2.0083200  2
   2266   2262   2269   2272     1  0.0000000  1.2552000  3
   2266   2278   2284   4610     1  0.0000000  0.6508444  3
   2269   2262   2263   2275     1  180.0000771  2.0083200  2
   2269   2262   2263   2275     1  0.0000000  1.2552000  3
   2269   2262   2266   2278     1  180.0000771  2.0083200  2
   2269   2262   2266   2278     1  0.0000000  1.2552000  3
   2269   2272   2281   2290     1  0.0000000  0.6508444  3
   2275   2287   4639   4630     1  180.0000771  0.4184000  2
   2275   2287   4639   4630     1  0.0000000  1.6024720  3
   2278   2284   4610   4601     1  180.0000771  0.4184000  2
   2278   2284   4610   4601     1  0.0000000  1.6024720  3
   2284   4610   4601   4592     1  180.0000771  0.4184000  2
   2284   4610   4601   4592     1  0.0000000  1.6024720  3
   2287   4639   4630   4621     1  180.0000771  0.4184000  2
   2287   4639   4630   4621     1  0.0000000  1.6024720  3
   2291   2292   2304   2316     1  0.0000000  0.6508444  3
   2291   2295   2307   2313     1  0.0000000  0.6508444  3
   2291   2298   2301   2310     1  0.0000000  0.6508444  3
   2292   2291   2295   2307     1  180.0000771  2.0083200  2
   2292   2291   2295   2307     1  0.0000000  1.2552000  3
   2292   2291   2298   2301     1  180.0000771  2.0083200  2
   2292   2291   2298   2301     1  0.0000000  1.2552000  3
   2292   2304   2316   4697     1  0.0000000  0.6508444  3
   2295   2291   2292   2304     1  180.0000771  2.0083200  2
   2295   2291   2292   2304     1  0.0000000  1.2552000  3
   2295   2291   2298   2301     1  180.0000771  2.0083200  2
   2295   2291   2298   2301     1  0.0000000  1.2552000  3
   2295   2307   2313   4668     1  0.0000000  0.6508444  3
   2298   2291   2292   2304     1  180.0000771  2.0083200  2
   2298   2291   2292   2304     1  0.0000000  1.2552000  3
   2298   2291   2295   2307     1  180.0000771  2.0083200  2
   2298   2291   2295   2307     1  0.0000000  1.2552000  3
   2298   2301   2310   2319     1  0.0000000  0.6508444  3
   2304   2316   4697   4688     1  180.0000771  0.4184000  2
   2304   2316   4697   4688     1  0.0000000  1.6024720  3
   2307   2313   4668   4659     1  180.0000771  0.4184000  2
   2307   2313   4668   4659     1  0.0000000  1.6024720  3
   2313   4668   4659   4650     1  180.0000771  0.4184000  2
   2313   4668   4659   4650     1  0.0000000  1.6024720  3
   2316   4697   4688   4679     1  180.0000771  0.4184000  2
   2316   4697   4688   4679     1  0.0000000  1.6024720  3
   2320   2321   2333   2345     1  0.0000000  0.6508444  3
   2320   2324   2336   2342     1  0.0000000  0.6508444  3
   2320   2327   2330   2339     1  0.0000000  0.6508444  3
   2321   2320   2324   2336     1  180.0000771  2.0083200  2
   2321   2320   2324   2336     1  0.0000000  1.2552000  3
   2321   2320   2327   2330     1  180.0000771  2.0083200  2
   2321   2320   2327   2330     1  0.0000000  1.2552000  3
   2321   2333   2345   4755     1  0.0000000  0.6508444  3
   2324   2320   2321   2333     1  180.0000771  2.0083200  2
   2324   2320   2321   2333     1  0.0000000  1.2552000  3
   2324   2320   2327   2330     1  180.0000771  2.0083200  2
   2324   2320   2327   2330     1  0.0000000  1.2552000  3
   2324   2336   2342   4726     1  0.0000000  0.6508444  3
   2327   2320   2321   2333     1  180.0000771  2.0083200  2
   2327   2320   2321   2333     1  0.0000000  1.2552000  3
   2327   2320   2324   2336     1  180.0000771  2.0083200  2
   2327   2320   2324   2336     1  0.0000000  1.2552000  3
   2327   2330   2339   2348     1  0.0000000  0.6508444  3
   2333   2345   4755   4746     1  180.0000771  0.4184000  2
   2333   2345   4755   4746     1  0.0000000  1.6024720  3
   2336   2342   4726   4717     1  180.0000771  0.4184000  2
   2336   2342   4726   4717     1  0.0000000  1.6024720  3
   2342   4726   4717   4708     1  180.0000771  0.4184000  2
   2342   4726   4717   4708     1  0.0000000  1.6024720  3
   2345   4755   4746   4737     1  180.0000771  0.4184000  2
   2345   4755   4746   4737     1  0.0000000  1.6024720  3
   2349   2350   2362   2374     1  0.0000000  0.6508444  3
   2349   2353   2365   2371     1  0.0000000  0.6508444  3
   2349   2356   2359   2368     1  0.0000000  0.6508444  3
   2350   2349   2353   2365     1  180.0000771  2.0083200  2
   2350   2349   2353   2365     1  0.0000000  1.2552000  3
   2350   2349   2356   2359     1  180.0000771  2.0083200  2
   2350   2349   2356   2359     1  0.0000000  1.2552000  3
   2350   2362   2374   4813     1  0.0000000  0.6508444  3
   2353   2349   2350   2362     1  180.0000771  2.0083200  2
   2353   2349   2350   2362     1  0.0000000  1.2552000  3
   2353   2349   2356   2359     1  180.0000771  2.0083200  2
   2353   2349   2356   2359     1  0.0000000  1.2552000  3
   2353   2365   2371   4784     1  0.0000000  0.6508444  3
   2356   2349   2350   2362     1  180.0000771  2.0083200  2
   2356   2349   2350   2362     1  0.0000000  1.2552000  3
   2356   2349   2353   2365     1  180.0000771  2.0083200  2
   2356   2349   2353   2365     1  0.0000000  1.2552000  3
   2356   2359   2368   2377     1  0.0000000  0.6508444  3
   2362   2374   4813   4804     1  180.0000771  0.4184000  2
   2362   2374   4813   4804     1  0.0000000  1.6024720  3
   2365   2371   4784   4775     1  180.0000771  0.4184000  2
   2365   2371   4784   4775     1  0.0000000  1.6024720  3
   2371   4784   4775   4766     1  180.0000771  0.4184000  2
   2371   4784   4775   4766     1  0.0000000  1.6024720  3
   2374   4813   4804   4795     1  180.0000771  0.4184000  2
   2374   4813   4804   4795     1  0.0000000  1.6024720  3
   2378   2379   2391   2403     1  0.0000000  0.6508444  3
   2378   2382   2394   2400     1  0.0000000  0.6508444  3
   2378   2385   2388   2397     1  0.0000000  0.6508444  3
   2379   2378   2382   2394     1  180.0000771  2.0083200  2
   2379   2378   2382   2394     1  0.0000000  1.2552000  3
   2379   2378   2385   2388     1  180.0000771  2.0083200  2
   2379   2378   2385   2388     1  0.0000000  1.2552000  3
   2379   2391   2403   4871     1  0.0000000  0.6508444  3
   2382   2378   2379   2391     1  180.0000771  2.0083200  2
   2382   2378   2379   2391     1  0.0000000  1.2552000  3
   2382   2378   2385   2388     1  180.0000771  2.0083200  2
   2382   2378   2385   2388     1  0.0000000  1.2552000  3
   2382   2394   2400   4842     1  0.0000000  0.6508444  3
   2385   2378   2379   2391     1  180.0000771  2.0083200  2
   2385   2378   2379   2391     1  0.0000000  1.2552000  3
   2385   2378   2382   2394     1  180.0000771  2.0083200  2
   2385   2378   2382   2394     1  0.0000000  1.2552000  3
   2385   2388   2397   2406     1  0.0000000  0.6508444  3
   2391   2403   4871   4862     1  180.0000771  0.4184000  2
   2391   2403   4871   4862     1  0.0000000  1.6024720  3
   2394   2400   4842   4833     1  180.0000771  0.4184000  2
   2394   2400   4842   4833     1  0.0000000  1.6024720  3
   2400   4842   4833   4824     1  180.0000771  0.4184000  2
   2400   4842   4833   4824     1  0.0000000  1.6024720  3
   2403   4871   4862   4853     1  180.0000771  0.4184000  2
   2403   4871   4862   4853     1  0.0000000  1.6024720  3
   2407   2408   2420   2432     1  0.0000000  0.6508444  3
   2407   2411   2423   2429     1  0.0000000  0.6508444  3
   2407   2414   2417   2426     1  0.0000000  0.6508444  3
   2408   2407   2411   2423     1  180.0000771  2.0083200  2
   2408   2407   2411   2423     1  0.0000000  1.2552000  3
   2408   2407   2414   2417     1  180.0000771  2.0083200  2
   2408   2407   2414   2417     1  0.0000000  1.2552000  3
   2408   2420   2432   4929     1  0.0000000  0.6508444  3
   2411   2407   2408   2420     1  180.0000771  2.0083200  2
   2411   2407   2408   2420     1  0.0000000  1.2552000  3
   2411   2407   2414   2417     1  180.0000771  2.0083200  2
   2411   2407   2414   2417     1  0.0000000  1.2552000  3
   2411   2423   2429   4900     1  0.0000000  0.6508444  3
   2414   2407   2408   2420     1  180.0000771  2.0083200  2
   2414   2407   2408   2420     1  0.0000000  1.2552000  3
   2414   2407   2411   2423     1  180.0000771  2.0083200  2
   2414   2407   2411   2423     1  0.0000000  1.2552000  3
   2414   2417   2426   2435     1  0.0000000  0.6508444  3
   2420   2432   4929   4920     1  180.0000771  0.4184000  2
   2420   2432   4929   4920     1  0.0000000  1.6024720  3
   2423   2429   4900   4891     1  180.0000771  0.4184000  2
   2423   2429   4900   4891     1  0.0000000  1.6024720  3
   2429   4900   4891   4882     1  180.0000771  0.4184000  2
   2429   4900   4891   4882     1  0.0000000  1.6024720  3
   2432   4929   4920   4911     1  180.0000771  0.4184000  2
   2432   4929   4920   4911     1  0.0000000  1.6024720  3
   2436   2437   2449   2461     1  0.0000000  0.6508444  3
   2436   2440   2452   2458     1  0.0000000  0.6508444  3
   2436   2443   2446   2455     1  0.0000000  0.6508444  3
   2437   2436   2440   2452     1  180.0000771  2.0083200  2
   2437   2436   2440   2452     1  0.0000000  1.2552000  3
   2437   2436   2443   2446     1  180.0000771  2.0083200  2
   2437   2436   2443   2446     1  0.0000000  1.2552000  3
   2437   2449   2461   4987     1  0.0000000  0.6508444  3
   2440   2436   2437   2449     1  180.0000771  2.0083200  2
   2440   2436   2437   2449     1  0.0000000  1.2552000  3
   2440   2436   2443   2446     1  180.0000771  2.0083200  2
   2440   2436   2443   2446     1  0.0000000  1.2552000  3
   2440   2452   2458   4958     1  0.0000000  0.6508444  3
   2443   2436   2437   2449     1  180.0000771  2.0083200  2
   2443   2436   2437   2449     1  0.0000000  1.2552000  3
   2443   2436   2440   2452     1  180.0000771  2.0083200  2
   2443   2436   2440   2452     1  0.0000000  1.2552000  3
   2443   2446   2455   2464     1  0.0000000  0.6508444  3
   2449   2461   4987   4978     1  180.0000771  0.4184000  2
   2449   2461   4987   4978     1  0.0000000  1.6024720  3
   2452   2458   4958   4949     1  180.0000771  0.4184000  2
   2452   2458   4958   4949     1  0.0000000  1.6024720  3
   2458   4958   4949   4940     1  180.0000771  0.4184000  2
   2458   4958   4949   4940     1  0.0000000  1.6024720  3
   2461   4987   4978   4969     1  180.0000771  0.4184000  2
   2461   4987   4978   4969     1  0.0000000  1.6024720  3
   2465   2466   2478   2490     1  0.0000000  0.6508444  3
   2465   2469   2481   2487     1  0.0000000  0.6508444  3
   2465   2472   2475   2484     1  0.0000000  0.6508444  3
   2466   2465   2469   2481     1  180.0000771  2.0083200  2
   2466   2465   2469   2481     1  0.0000000  1.2552000  3
   2466   2465   2472   2475     1  180.0000771  2.0083200  2
   2466   2465   2472   2475     1  0.0000000  1.2552000  3
   2466   2478   2490   5045     1  0.0000000  0.6508444  3
   2469   2465   2466   2478     1  180.0000771  2.0083200  2
   2469   2465   2466   2478     1  0.0000000  1.2552000  3
   2469   2465   2472   2475     1  180.0000771  2.0083200  2
   2469   2465   2472   2475     1  0.0000000  1.2552000  3
   2469   2481   2487   5016     1  0.0000000  0.6508444  3
   2472   2465   2466   2478     1  180.0000771  2.0083200  2
   2472   2465   2466   2478     1  0.0000000  1.2552000  3
   2472   2465   2469   2481     1  180.0000771  2.0083200  2
   2472   2465   2469   2481     1  0.0000000  1.2552000  3
   2472   2475   2484   2493     1  0.0000000  0.6508444  3
   2478   2490   5045   5036     1  180.0000771  0.4184000  2
   2478   2490   5045   5036     1  0.0000000  1.6024720  3
   2481   2487   5016   5007     1  180.0000771  0.4184000  2
   2481   2487   5016   5007     1  0.0000000  1.6024720  3
   2487   5016   5007   4998     1  180.0000771  0.4184000  2
   2487   5016   5007   4998     1  0.0000000  1.6024720  3
   2490   5045   5036   5027     1  180.0000771  0.4184000  2
   2490   5045   5036   5027     1  0.0000000  1.6024720  3
   2494   2495   2507   2519     1  0.0000000  0.6508444  3
   2494   2498   2510   2516     1  0.0000000  0.6508444  3
   2494   2501   2504   2513     1  0.0000000  0.6508444  3
   2495   2494   2498   2510     1  180.0000771  2.0083200  2
   2495   2494   2498   2510     1  0.0000000  1.2552000  3
   2495   2494   2501   2504     1  180.0000771  2.0083200  2
   2495   2494   2501   2504     1  0.0000000  1.2552000  3
   2495   2507   2519   5103     1  0.0000000  0.6508444  3
   2498   2494   2495   2507     1  180.0000771  2.0083200  2
   2498   2494   2495   2507     1  0.0000000  1.2552000  3
   2498   2494   2501   2504     1  180.0000771  2.0083200  2
   2498   2494   2501   2504     1  0.0000000  1.2552000  3
   2498   2510   2516   5074     1  0.0000000  0.6508444  3
   2501   2494   2495   2507     1  180.0000771  2.0083200  2
   2501   2494   2495   2507     1  0.0000000  1.2552000  3
   2501   2494   2498   2510     1  180.0000771  2.0083200  2
   2501   2494   2498   2510     1  0.0000000  1.2552000  3
   2501   2504   2513   2522     1  0.0000000  0.6508444  3
   2507   2519   5103   5094     1  180.0000771  0.4184000  2
   2507   2519   5103   5094     1  0.0000000  1.6024720  3
   2510   2516   5074   5065     1  180.0000771  0.4184000  2
   2510   2516   5074   5065     1  0.0000000  1.6024720  3
   2516   5074   5065   5056     1  180.0000771  0.4184000  2
   2516   5074   5065   5056     1  0.0000000  1.6024720  3
   2519   5103   5094   5085     1  180.0000771  0.4184000  2
   2519   5103   5094   5085     1  0.0000000  1.6024720  3
   2523   2524   2536   2548     1  0.0000000  0.6508444  3
   2523   2527   2539   2545     1  0.0000000  0.6508444  3
   2523   2530   2533   2542     1  0.0000000  0.6508444  3
   2524   2523   2527   2539     1  180.0000771  2.0083200  2
   2524   2523   2527   2539     1  0.0000000  1.2552000  3
   2524   2523   2530   2533     1  180.0000771  2.0083200  2
   2524   2523   2530   2533     1  0.0000000  1.2552000  3
   2524   2536   2548   5161     1  0.0000000  0.6508444  3
   2527   2523   2524   2536     1  180.0000771  2.0083200  2
   2527   2523   2524   2536     1  0.0000000  1.2552000  3
   2527   2523   2530   2533     1  180.0000771  2.0083200  2
   2527   2523   2530   2533     1  0.0000000  1.2552000  3
   2527   2539   2545   5132     1  0.0000000  0.6508444  3
   2530   2523   2524   2536     1  180.0000771  2.0083200  2
   2530   2523   2524   2536     1  0.0000000  1.2552000  3
   2530   2523   2527   2539     1  180.0000771  2.0083200  2
   2530   2523   2527   2539     1  0.0000000  1.2552000  3
   2530   2533   2542   2551     1  0.0000000  0.6508444  3
   2536   2548   5161   5152     1  180.0000771  0.4184000  2
   2536   2548   5161   5152     1  0.0000000  1.6024720  3
   2539   2545   5132   5123     1  180.0000771  0.4184000  2
   2539   2545   5132   5123     1  0.0000000  1.6024720  3
   2545   5132   5123   5114     1  180.0000771  0.4184000  2
   2545   5132   5123   5114     1  0.0000000  1.6024720  3
   2548   5161   5152   5143     1  180.0000771  0.4184000  2
   2548   5161   5152   5143     1  0.0000000  1.6024720  3
   2552   2553   2565   2577     1  0.0000000  0.6508444  3
   2552   2556   2568   2574     1  0.0000000  0.6508444  3
   2552   2559   2562   2571     1  0.0000000  0.6508444  3
   2553   2552   2556   2568     1  180.0000771  2.0083200  2
   2553   2552   2556   2568     1  0.0000000  1.2552000  3
   2553   2552   2559   2562     1  180.0000771  2.0083200  2
   2553   2552   2559   2562     1  0.0000000  1.2552000  3
   2553   2565   2577   5219     1  0.0000000  0.6508444  3
   2556   2552   2553   2565     1  180.0000771  2.0083200  2
   2556   2552   2553   2565     1  0.0000000  1.2552000  3
   2556   2552   2559   2562     1  180.0000771  2.0083200  2
   2556   2552   2559   2562     1  0.0000000  1.2552000  3
   2556   2568   2574   5190     1  0.0000000  0.6508444  3
   2559   2552   2553   2565     1  180.0000771  2.0083200  2
   2559   2552   2553   2565     1  0.0000000  1.2552000  3
   2559   2552   2556   2568     1  180.0000771  2.0083200  2
   2559   2552   2556   2568     1  0.0000000  1.2552000  3
   2559   2562   2571   2580     1  0.0000000  0.6508444  3
   2565   2577   5219   5210     1  180.0000771  0.4184000  2
   2565   2577   5219   5210     1  0.0000000  1.6024720  3
   2568   2574   5190   5181     1  180.0000771  0.4184000  2
   2568   2574   5190   5181     1  0.0000000  1.6024720  3
   2574   5190   5181   5172     1  180.0000771  0.4184000  2
   2574   5190   5181   5172     1  0.0000000  1.6024720  3
   2577   5219   5210   5201     1  180.0000771  0.4184000  2
   2577   5219   5210   5201     1  0.0000000  1.6024720  3
   2581   2582   2594   2606     1  0.0000000  0.6508444  3
   2581   2585   2597   2603     1  0.0000000  0.6508444  3
   2581   2588   2591   2600     1  0.0000000  0.6508444  3
   2582   2581   2585   2597     1  180.0000771  2.0083200  2
   2582   2581   2585   2597     1  0.0000000  1.2552000  3
   2582   2581   2588   2591     1  180.0000771  2.0083200  2
   2582   2581   2588   2591     1  0.0000000  1.2552000  3
   2582   2594   2606   5277     1  0.0000000  0.6508444  3
   2585   2581   2582   2594     1  180.0000771  2.0083200  2
   2585   2581   2582   2594     1  0.0000000  1.2552000  3
   2585   2581   2588   2591     1  180.0000771  2.0083200  2
   2585   2581   2588   2591     1  0.0000000  1.2552000  3
   2585   2597   2603   5248     1  0.0000000  0.6508444  3
   2588   2581   2582   2594     1  180.0000771  2.0083200  2
   2588   2581   2582   2594     1  0.0000000  1.2552000  3
   2588   2581   2585   2597     1  180.0000771  2.0083200  2
   2588   2581   2585   2597     1  0.0000000  1.2552000  3
   2588   2591   2600   2609     1  0.0000000  0.6508444  3
   2594   2606   5277   5268     1  180.0000771  0.4184000  2
   2594   2606   5277   5268     1  0.0000000  1.6024720  3
   2597   2603   5248   5239     1  180.0000771  0.4184000  2
   2597   2603   5248   5239     1  0.0000000  1.6024720  3
   2603   5248   5239   5230     1  180.0000771  0.4184000  2
   2603   5248   5239   5230     1  0.0000000  1.6024720  3
   2606   5277   5268   5259     1  180.0000771  0.4184000  2
   2606   5277   5268   5259     1  0.0000000  1.6024720  3
   2610   2611   2623   2635     1  0.0000000  0.6508444  3
   2610   2614   2626   2632     1  0.0000000  0.6508444  3
   2610   2617   2620   2629     1  0.0000000  0.6508444  3
   2611   2610   2614   2626     1  180.0000771  2.0083200  2
   2611   2610   2614   2626     1  0.0000000  1.2552000  3
   2611   2610   2617   2620     1  180.0000771  2.0083200  2
   2611   2610   2617   2620     1  0.0000000  1.2552000  3
   2611   2623   2635   5335     1  0.0000000  0.6508444  3
   2614   2610   2611   2623     1  180.0000771  2.0083200  2
   2614   2610   2611   2623     1  0.0000000  1.2552000  3
   2614   2610   2617   2620     1  180.0000771  2.0083200  2
   2614   2610   2617   2620     1  0.0000000  1.2552000  3
   2614   2626   2632   5306     1  0.0000000  0.6508444  3
   2617   2610   2611   2623     1  180.0000771  2.0083200  2
   2617   2610   2611   2623     1  0.0000000  1.2552000  3
   2617   2610   2614   2626     1  180.0000771  2.0083200  2
   2617   2610   2614   2626     1  0.0000000  1.2552000  3
   2617   2620   2629   2638     1  0.0000000  0.6508444  3
   2623   2635   5335   5326     1  180.0000771  0.4184000  2
   2623   2635   5335   5326     1  0.0000000  1.6024720  3
   2626   2632   5306   5297     1  180.0000771  0.4184000  2
   2626   2632   5306   5297     1  0.0000000  1.6024720  3
   2632   5306   5297   5288     1  180.0000771  0.4184000  2
   2632   5306   5297   5288     1  0.0000000  1.6024720  3
   2635   5335   5326   5317     1  180.0000771  0.4184000  2
   2635   5335   5326   5317     1  0.0000000  1.6024720  3
   2639   2640   2652   2664     1  0.0000000  0.6508444  3
   2639   2643   2655   2661     1  0.0000000  0.6508444  3
   2639   2646   2649   2658     1  0.0000000  0.6508444  3
   2640   2639   2643   2655     1  180.0000771  2.0083200  2
   2640   2639   2643   2655     1  0.0000000  1.2552000  3
   2640   2639   2646   2649     1  180.0000771  2.0083200  2
   2640   2639   2646   2649     1  0.0000000  1.2552000  3
   2640   2652   2664   5393     1  0.0000000  0.6508444  3
   2643   2639   2640   2652     1  180.0000771  2.0083200  2
   2643   2639   2640   2652     1  0.0000000  1.2552000  3
   2643   2639   2646   2649     1  180.0000771  2.0083200  2
   2643   2639   2646   2649     1  0.0000000  1.2552000  3
   2643   2655   2661   5364     1  0.0000000  0.6508444  3
   2646   2639   2640   2652     1  180.0000771  2.0083200  2
   2646   2639   2640   2652     1  0.0000000  1.2552000  3
   2646   2639   2643   2655     1  180.0000771  2.0083200  2
   2646   2639   2643   2655     1  0.0000000  1.2552000  3
   2646   2649   2658   2667     1  0.0000000  0.6508444  3
   2652   2664   5393   5384     1  180.0000771  0.4184000  2
   2652   2664   5393   5384     1  0.0000000  1.6024720  3
   2655   2661   5364   5355     1  180.0000771  0.4184000  2
   2655   2661   5364   5355     1  0.0000000  1.6024720  3
   2661   5364   5355   5346     1  180.0000771  0.4184000  2
   2661   5364   5355   5346     1  0.0000000  1.6024720  3
   2664   5393   5384   5375     1  180.0000771  0.4184000  2
   2664   5393   5384   5375     1  0.0000000  1.6024720  3
   2668   2669   2681   2693     1  0.0000000  0.6508444  3
   2668   2672   2684   2690     1  0.0000000  0.6508444  3
   2668   2675   2678   2687     1  0.0000000  0.6508444  3
   2669   2668   2672   2684     1  180.0000771  2.0083200  2
   2669   2668   2672   2684     1  0.0000000  1.2552000  3
   2669   2668   2675   2678     1  180.0000771  2.0083200  2
   2669   2668   2675   2678     1  0.0000000  1.2552000  3
   2669   2681   2693   5451     1  0.0000000  0.6508444  3
   2672   2668   2669   2681     1  180.0000771  2.0083200  2
   2672   2668   2669   2681     1  0.0000000  1.2552000  3
   2672   2668   2675   2678     1  180.0000771  2.0083200  2
   2672   2668   2675   2678     1  0.0000000  1.2552000  3
   2672   2684   2690   5422     1  0.0000000  0.6508444  3
   2675   2668   2669   2681     1  180.0000771  2.0083200  2
   2675   2668   2669   2681     1  0.0000000  1.2552000  3
   2675   2668   2672   2684     1  180.0000771  2.0083200  2
   2675   2668   2672   2684     1  0.0000000  1.2552000  3
   2675   2678   2687   2696     1  0.0000000  0.6508444  3
   2681   2693   5451   5442     1  180.0000771  0.4184000  2
   2681   2693   5451   5442     1  0.0000000  1.6024720  3
   2684   2690   5422   5413     1  180.0000771  0.4184000  2
   2684   2690   5422   5413     1  0.0000000  1.6024720  3
   2690   5422   5413   5404     1  180.0000771  0.4184000  2
   2690   5422   5413   5404     1  0.0000000  1.6024720  3
   2693   5451   5442   5433     1  180.0000771  0.4184000  2
   2693   5451   5442   5433     1  0.0000000  1.6024720  3
   2697   2698   2710   2722     1  0.0000000  0.6508444  3
   2697   2701   2713   2719     1  0.0000000  0.6508444  3
   2697   2704   2707   2716     1  0.0000000  0.6508444  3
   2698   2697   2701   2713     1  180.0000771  2.0083200  2
   2698   2697   2701   2713     1  0.0000000  1.2552000  3
   2698   2697   2704   2707     1  180.0000771  2.0083200  2
   2698   2697   2704   2707     1  0.0000000  1.2552000  3
   2698   2710   2722   5509     1  0.0000000  0.6508444  3
   2701   2697   2698   2710     1  180.0000771  2.0083200  2
   2701   2697   2698   2710     1  0.0000000  1.2552000  3
   2701   2697   2704   2707     1  180.0000771  2.0083200  2
   2701   2697   2704   2707     1  0.0000000  1.2552000  3
   2701   2713   2719   5480     1  0.0000000  0.6508444  3
   2704   2697   2698   2710     1  180.0000771  2.0083200  2
   2704   2697   2698   2710     1  0.0000000  1.2552000  3
   2704   2697   2701   2713     1  180.0000771  2.0083200  2
   2704   2697   2701   2713     1  0.0000000  1.2552000  3
   2704   2707   2716   2725     1  0.0000000  0.6508444  3
   2710   2722   5509   5500     1  180.0000771  0.4184000  2
   2710   2722   5509   5500     1  0.0000000  1.6024720  3
   2713   2719   5480   5471     1  180.0000771  0.4184000  2
   2713   2719   5480   5471     1  0.0000000  1.6024720  3
   2719   5480   5471   5462     1  180.0000771  0.4184000  2
   2719   5480   5471   5462     1  0.0000000  1.6024720  3
   2722   5509   5500   5491     1  180.0000771  0.4184000  2
   2722   5509   5500   5491     1  0.0000000  1.6024720  3
   2726   2727   2739   2751     1  0.0000000  0.6508444  3
   2726   2730   2742   2748     1  0.0000000  0.6508444  3
   2726   2733   2736   2745     1  0.0000000  0.6508444  3
   2727   2726   2730   2742     1  180.0000771  2.0083200  2
   2727   2726   2730   2742     1  0.0000000  1.2552000  3
   2727   2726   2733   2736     1  180.0000771  2.0083200  2
   2727   2726   2733   2736     1  0.0000000  1.2552000  3
   2727   2739   2751   5567     1  0.0000000  0.6508444  3
   2730   2726   2727   2739     1  180.0000771  2.0083200  2
   2730   2726   2727   2739     1  0.0000000  1.2552000  3
   2730   2726   2733   2736     1  180.0000771  2.0083200  2
   2730   2726   2733   2736     1  0.0000000  1.2552000  3
   2730   2742   2748   5538     1  0.0000000  0.6508444  3
   2733   2726   2727   2739     1  180.0000771  2.0083200  2
   2733   2726   2727   2739     1  0.0000000  1.2552000  3
   2733   2726   2730   2742     1  180.0000771  2.0083200  2
   2733   2726   2730   2742     1  0.0000000  1.2552000  3
   2733   2736   2745   2754     1  0.0000000  0.6508444  3
   2739   2751   5567   5558     1  180.0000771  0.4184000  2
   2739   2751   5567   5558     1  0.0000000  1.6024720  3
   2742   2748   5538   5529     1  180.0000771  0.4184000  2
   2742   2748   5538   5529     1  0.0000000  1.6024720  3
   2748   5538   5529   5520     1  180.0000771  0.4184000  2
   2748   5538   5529   5520     1  0.0000000  1.6024720  3
   2751   5567   5558   5549     1  180.0000771  0.4184000  2
   2751   5567   5558   5549     1  0.0000000  1.6024720  3
   2755   2756   2768   2780     1  0.0000000  0.6508444  3
   2755   2759   2771   2777     1  0.0000000  0.6508444  3
   2755   2762   2765   2774     1  0.0000000  0.6508444  3
   2756   2755   2759   2771     1  180.0000771  2.0083200  2
   2756   2755   2759   2771     1  0.0000000  1.2552000  3
   2756   2755   2762   2765     1  180.0000771  2.0083200  2
   2756   2755   2762   2765     1  0.0000000  1.2552000  3
   2756   2768   2780   5625     1  0.0000000  0.6508444  3
   2759   2755   2756   2768     1  180.0000771  2.0083200  2
   2759   2755   2756   2768     1  0.0000000  1.2552000  3
   2759   2755   2762   2765     1  180.0000771  2.0083200  2
   2759   2755   2762   2765     1  0.0000000  1.2552000  3
   2759   2771   2777   5596     1  0.0000000  0.6508444  3
   2762   2755   2756   2768     1  180.0000771  2.0083200  2
   2762   2755   2756   2768     1  0.0000000  1.2552000  3
   2762   2755   2759   2771     1  180.0000771  2.0083200  2
   2762   2755   2759   2771     1  0.0000000  1.2552000  3
   2762   2765   2774   2783     1  0.0000000  0.6508444  3
   2768   2780   5625   5616     1  180.0000771  0.4184000  2
   2768   2780   5625   5616     1  0.0000000  1.6024720  3
   2771   2777   5596   5587     1  180.0000771  0.4184000  2
   2771   2777   5596   5587     1  0.0000000  1.6024720  3
   2777   5596   5587   5578     1  180.0000771  0.4184000  2
   2777   5596   5587   5578     1  0.0000000  1.6024720  3
   2780   5625   5616   5607     1  180.0000771  0.4184000  2
   2780   5625   5616   5607     1  0.0000000  1.6024720  3
   2784   2785   2797   2809     1  0.0000000  0.6508444  3
   2784   2788   2800   2806     1  0.0000000  0.6508444  3
   2784   2791   2794   2803     1  0.0000000  0.6508444  3
   2785   2784   2788   2800     1  180.0000771  2.0083200  2
   2785   2784   2788   2800     1  0.0000000  1.2552000  3
   2785   2784   2791   2794     1  180.0000771  2.0083200  2
   2785   2784   2791   2794     1  0.0000000  1.2552000  3
   2785   2797   2809   5683     1  0.0000000  0.6508444  3
   2788   2784   2785   2797     1  180.0000771  2.0083200  2
   2788   2784   2785   2797     1  0.0000000  1.2552000  3
   2788   2784   2791   2794     1  180.0000771  2.0083200  2
   2788   2784   2791   2794     1  0.0000000  1.2552000  3
   2788   2800   2806   5654     1  0.0000000  0.6508444  3
   2791   2784   2785   2797     1  180.0000771  2.0083200  2
   2791   2784   2785   2797     1  0.0000000  1.2552000  3
   2791   2784   2788   2800     1  180.0000771  2.0083200  2
   2791   2784   2788   2800     1  0.0000000  1.2552000  3
   2791   2794   2803   2812     1  0.0000000  0.6508444  3
   2797   2809   5683   5674     1  180.0000771  0.4184000  2
   2797   2809   5683   5674     1  0.0000000  1.6024720  3
   2800   2806   5654   5645     1  180.0000771  0.4184000  2
   2800   2806   5654   5645     1  0.0000000  1.6024720  3
   2806   5654   5645   5636     1  180.0000771  0.4184000  2
   2806   5654   5645   5636     1  0.0000000  1.6024720  3
   2809   5683   5674   5665     1  180.0000771  0.4184000  2
   2809   5683   5674   5665     1  0.0000000  1.6024720  3
   2813   2814   2826   2838     1  0.0000000  0.6508444  3
   2813   2817   2829   2835     1  0.0000000  0.6508444  3
   2813   2820   2823   2832     1  0.0000000  0.6508444  3
   2814   2813   2817   2829     1  180.0000771  2.0083200  2
   2814   2813   2817   2829     1  0.0000000  1.2552000  3
   2814   2813   2820   2823     1  180.0000771  2.0083200  2
   2814   2813   2820   2823     1  0.0000000  1.2552000  3
   2814   2826   2838   5741     1  0.0000000  0.6508444  3
   2817   2813   2814   2826     1  180.0000771  2.0083200  2
   2817   2813   2814   2826     1  0.0000000  1.2552000  3
   2817   2813   2820   2823     1  180.0000771  2.0083200  2
   2817   2813   2820   2823     1  0.0000000  1.2552000  3
   2817   2829   2835   5712     1  0.0000000  0.6508444  3
   2820   2813   2814   2826     1  180.0000771  2.0083200  2
   2820   2813   2814   2826     1  0.0000000  1.2552000  3
   2820   2813   2817   2829     1  180.0000771  2.0083200  2
   2820   2813   2817   2829     1  0.0000000  1.2552000  3
   2820   2823   2832   2841     1  0.0000000  0.6508444  3
   2826   2838   5741   5732     1  180.0000771  0.4184000  2
   2826   2838   5741   5732     1  0.0000000  1.6024720  3
   2829   2835   5712   5703     1  180.0000771  0.4184000  2
   2829   2835   5712   5703     1  0.0000000  1.6024720  3
   2835   5712   5703   5694     1  180.0000771  0.4184000  2
   2835   5712   5703   5694     1  0.0000000  1.6024720  3
   2838   5741   5732   5723     1  180.0000771  0.4184000  2
   2838   5741   5732   5723     1  0.0000000  1.6024720  3
   2842   2843   2855   2867     1  0.0000000  0.6508444  3
   2842   2846   2858   2864     1  0.0000000  0.6508444  3
   2842   2849   2852   2861     1  0.0000000  0.6508444  3
   2843   2842   2846   2858     1  180.0000771  2.0083200  2
   2843   2842   2846   2858     1  0.0000000  1.2552000  3
   2843   2842   2849   2852     1  180.0000771  2.0083200  2
   2843   2842   2849   2852     1  0.0000000  1.2552000  3
   2843   2855   2867   5799     1  0.0000000  0.6508444  3
   2846   2842   2843   2855     1  180.0000771  2.0083200  2
   2846   2842   2843   2855     1  0.0000000  1.2552000  3
   2846   2842   2849   2852     1  180.0000771  2.0083200  2
   2846   2842   2849   2852     1  0.0000000  1.2552000  3
   2846   2858   2864   5770     1  0.0000000  0.6508444  3
   2849   2842   2843   2855     1  180.0000771  2.0083200  2
   2849   2842   2843   2855     1  0.0000000  1.2552000  3
   2849   2842   2846   2858     1  180.0000771  2.0083200  2
   2849   2842   2846   2858     1  0.0000000  1.2552000  3
   2849   2852   2861   2870     1  0.0000000  0.6508444  3
   2855   2867   5799   5790     1  180.0000771  0.4184000  2
   2855   2867   5799   5790     1  0.0000000  1.6024720  3
   2858   2864   5770   5761     1  180.0000771  0.4184000  2
   2858   2864   5770   5761     1  0.0000000  1.6024720  3
   2864   5770   5761   5752     1  180.0000771  0.4184000  2
   2864   5770   5761   5752     1  0.0000000  1.6024720  3
   2867   5799   5790   5781     1  180.0000771  0.4184000  2
   2867   5799   5790   5781     1  0.0000000  1.6024720  3
   2871   2872   2884   2896     1  0.0000000  0.6508444  3
   2871   2875   2887   2893     1  0.0000000  0.6508444  3
   2871   2878   2881   2890     1  0.0000000  0.6508444  3
   2872   2871   2875   2887     1  180.0000771  2.0083200  2
   2872   2871   2875   2887     1  0.0000000  1.2552000  3
   2872   2871   2878   2881     1  180.0000771  2.0083200  2
   2872   2871   2878   2881     1  0.0000000  1.2552000  3
   2872   2884   2896   5857     1  0.0000000  0.6508444  3
   2875   2871   2872   2884     1  180.0000771  2.0083200  2
   2875   2871   2872   2884     1  0.0000000  1.2552000  3
   2875   2871   2878   2881     1  180.0000771  2.0083200  2
   2875   2871   2878   2881     1  0.0000000  1.2552000  3
   2875   2887   2893   5828     1  0.0000000  0.6508444  3
   2878   2871   2872   2884     1  180.0000771  2.0083200  2
   2878   2871   2872   2884     1  0.0000000  1.2552000  3
   2878   2871   2875   2887     1  180.0000771  2.0083200  2
   2878   2871   2875   2887     1  0.0000000  1.2552000  3
   2878   2881   2890   2899     1  0.0000000  0.6508444  3
   2884   2896   5857   5848     1  180.0000771  0.4184000  2
   2884   2896   5857   5848     1  0.0000000  1.6024720  3
   2887   2893   5828   5819     1  180.0000771  0.4184000  2
   2887   2893   5828   5819     1  0.0000000  1.6024720  3
   2893   5828   5819   5810     1  180.0000771  0.4184000  2
   2893   5828   5819   5810     1  0.0000000  1.6024720  3
   2896   5857   5848   5839     1  180.0000771  0.4184000  2
   2896   5857   5848   5839     1  0.0000000  1.6024720  3
   2900   2901   2913   2925     1  0.0000000  0.6508444  3
   2900   2904   2916   2922     1  0.0000000  0.6508444  3
   2900   2907   2910   2919     1  0.0000000  0.6508444  3
   2901   2900   2904   2916     1  180.0000771  2.0083200  2
   2901   2900   2904   2916     1  0.0000000  1.2552000  3
   2901   2900   2907   2910     1  180.0000771  2.0083200  2
   2901   2900   2907   2910     1  0.0000000  1.2552000  3
   2901   2913   2925   5915     1  0.0000000  0.6508444  3
   2904   2900   2901   2913     1  180.0000771  2.0083200  2
   2904   2900   2901   2913     1  0.0000000  1.2552000  3
   2904   2900   2907   2910     1  180.0000771  2.0083200  2
   2904   2900   2907   2910     1  0.0000000  1.2552000  3
   2904   2916   2922   5886     1  0.0000000  0.6508444  3
   2907   2900   2901   2913     1  180.0000771  2.0083200  2
   2907   2900   2901   2913     1  0.0000000  1.2552000  3
   2907   2900   2904   2916     1  180.0000771  2.0083200  2
   2907   2900   2904   2916     1  0.0000000  1.2552000  3
   2907   2910   2919   2928     1  0.0000000  0.6508444  3
   2913   2925   5915   5906     1  180.0000771  0.4184000  2
   2913   2925   5915   5906     1  0.0000000  1.6024720  3
   2916   2922   5886   5877     1  180.0000771  0.4184000  2
   2916   2922   5886   5877     1  0.0000000  1.6024720  3
   2922   5886   5877   5868     1  180.0000771  0.4184000  2
   2922   5886   5877   5868     1  0.0000000  1.6024720  3
   2925   5915   5906   5897     1  180.0000771  0.4184000  2
   2925   5915   5906   5897     1  0.0000000  1.6024720  3
   2929   2930   2942   2954     1  0.0000000  0.6508444  3
   2929   2933   2945   2951     1  0.0000000  0.6508444  3
   2929   2936   2939   2948     1  0.0000000  0.6508444  3
   2930   2929   2933   2945     1  180.0000771  2.0083200  2
   2930   2929   2933   2945     1  0.0000000  1.2552000  3
   2930   2929   2936   2939     1  180.0000771  2.0083200  2
   2930   2929   2936   2939     1  0.0000000  1.2552000  3
   2930   2942   2954   5973     1  0.0000000  0.6508444  3
   2933   2929   2930   2942     1  180.0000771  2.0083200  2
   2933   2929   2930   2942     1  0.0000000  1.2552000  3
   2933   2929   2936   2939     1  180.0000771  2.0083200  2
   2933   2929   2936   2939     1  0.0000000  1.2552000  3
   2933   2945   2951   5944     1  0.0000000  0.6508444  3
   2936   2929   2930   2942     1  180.0000771  2.0083200  2
   2936   2929   2930   2942     1  0.0000000  1.2552000  3
   2936   2929   2933   2945     1  180.0000771  2.0083200  2
   2936   2929   2933   2945     1  0.0000000  1.2552000  3
   2936   2939   2948   2957     1  0.0000000  0.6508444  3
   2942   2954   5973   5964     1  180.0000771  0.4184000  2
   2942   2954   5973   5964     1  0.0000000  1.6024720  3
   2945   2951   5944   5935     1  180.0000771  0.4184000  2
   2945   2951   5944   5935     1  0.0000000  1.6024720  3
   2951   5944   5935   5926     1  180.0000771  0.4184000  2
   2951   5944   5935   5926     1  0.0000000  1.6024720  3
   2954   5973   5964   5955     1  180.0000771  0.4184000  2
   2954   5973   5964   5955     1  0.0000000  1.6024720  3
   2958   2959   2971   2983     1  0.0000000  0.6508444  3
   2958   2962   2974   2980     1  0.0000000  0.6508444  3
   2958   2965   2968   2977     1  0.0000000  0.6508444  3
   2959   2958   2962   2974     1  180.0000771  2.0083200  2
   2959   2958   2962   2974     1  0.0000000  1.2552000  3
   2959   2958   2965   2968     1  180.0000771  2.0083200  2
   2959   2958   2965   2968     1  0.0000000  1.2552000  3
   2959   2971   2983   6031     1  0.0000000  0.6508444  3
   2962   2958   2959   2971     1  180.0000771  2.0083200  2
   2962   2958   2959   2971     1  0.0000000  1.2552000  3
   2962   2958   2965   2968     1  180.0000771  2.0083200  2
   2962   2958   2965   2968     1  0.0000000  1.2552000  3
   2962   2974   2980   6002     1  0.0000000  0.6508444  3
   2965   2958   2959   2971     1  180.0000771  2.0083200  2
   2965   2958   2959   2971     1  0.0000000  1.2552000  3
   2965   2958   2962   2974     1  180.0000771  2.0083200  2
   2965   2958   2962   2974     1  0.0000000  1.2552000  3
   2965   2968   2977   2986     1  0.0000000  0.6508444  3
   2971   2983   6031   6022     1  180.0000771  0.4184000  2
   2971   2983   6031   6022     1  0.0000000  1.6024720  3
   2974   2980   6002   5993     1  180.0000771  0.4184000  2
   2974   2980   6002   5993     1  0.0000000  1.6024720  3
   2980   6002   5993   5984     1  180.0000771  0.4184000  2
   2980   6002   5993   5984     1  0.0000000  1.6024720  3
   2983   6031   6022   6013     1  180.0000771  0.4184000  2
   2983   6031   6022   6013     1  0.0000000  1.6024720  3
   2987   2988   3000   3012     1  0.0000000  0.6508444  3
   2987   2991   3003   3009     1  0.0000000  0.6508444  3
   2987   2994   2997   3006     1  0.0000000  0.6508444  3
   2988   2987   2991   3003     1  180.0000771  2.0083200  2
   2988   2987   2991   3003     1  0.0000000  1.2552000  3
   2988   2987   2994   2997     1  180.0000771  2.0083200  2
   2988   2987   2994   2997     1  0.0000000  1.2552000  3
   2988   3000   3012   6089     1  0.0000000  0.6508444  3
   2991   2987   2988   3000     1  180.0000771  2.0083200  2
   2991   2987   2988   3000     1  0.0000000  1.2552000  3
   2991   2987   2994   2997     1  180.0000771  2.0083200  2
   2991   2987   2994   2997     1  0.0000000  1.2552000  3
   2991   3003   3009   6060     1  0.0000000  0.6508444  3
   2994   2987   2988   3000     1  180.0000771  2.0083200  2
   2994   2987   2988   3000     1  0.0000000  1.2552000  3
   2994   2987   2991   3003     1  180.0000771  2.0083200  2
   2994   2987   2991   3003     1  0.0000000  1.2552000  3
   2994   2997   3006   3015     1  0.0000000  0.6508444  3
   3000   3012   6089   6080     1  180.0000771  0.4184000  2
   3000   3012   6089   6080     1  0.0000000  1.6024720  3
   3003   3009   6060   6051     1  180.0000771  0.4184000  2
   3003   3009   6060   6051     1  0.0000000  1.6024720  3
   3009   6060   6051   6042     1  180.0000771  0.4184000  2
   3009   6060   6051   6042     1  0.0000000  1.6024720  3
   3012   6089   6080   6071     1  180.0000771  0.4184000  2
   3012   6089   6080   6071     1  0.0000000  1.6024720  3
   3016   3017   3029   3041     1  0.0000000  0.6508444  3
   3016   3020   3032   3038     1  0.0000000  0.6508444  3
   3016   3023   3026   3035     1  0.0000000  0.6508444  3
   3017   3016   3020   3032     1  180.0000771  2.0083200  2
   3017   3016   3020   3032     1  0.0000000  1.2552000  3
   3017   3016   3023   3026     1  180.0000771  2.0083200  2
   3017   3016   3023   3026     1  0.0000000  1.2552000  3
   3017   3029   3041   6147     1  0.0000000  0.6508444  3
   3020   3016   3017   3029     1  180.0000771  2.0083200  2
   3020   3016   3017   3029     1  0.0000000  1.2552000  3
   3020   3016   3023   3026     1  180.0000771  2.0083200  2
   3020   3016   3023   3026     1  0.0000000  1.2552000  3
   3020   3032   3038   6118     1  0.0000000  0.6508444  3
   3023   3016   3017   3029     1  180.0000771  2.0083200  2
   3023   3016   3017   3029     1  0.0000000  1.2552000  3
   3023   3016   3020   3032     1  180.0000771  2.0083200  2
   3023   3016   3020   3032     1  0.0000000  1.2552000  3
   3023   3026   3035   3044     1  0.0000000  0.6508444  3
   3029   3041   6147   6138     1  180.0000771  0.4184000  2
   3029   3041   6147   6138     1  0.0000000  1.6024720  3
   3032   3038   6118   6109     1  180.0000771  0.4184000  2
   3032   3038   6118   6109     1  0.0000000  1.6024720  3
   3038   6118   6109   6100     1  180.0000771  0.4184000  2
   3038   6118   6109   6100     1  0.0000000  1.6024720  3
   3041   6147   6138   6129     1  180.0000771  0.4184000  2
   3041   6147   6138   6129     1  0.0000000  1.6024720  3
   3045   3046   3058   3070     1  0.0000000  0.6508444  3
   3045   3049   3061   3067     1  0.0000000  0.6508444  3
   3045   3052   3055   3064     1  0.0000000  0.6508444  3
   3046   3045   3049   3061     1  180.0000771  2.0083200  2
   3046   3045   3049   3061     1  0.0000000  1.2552000  3
   3046   3045   3052   3055     1  180.0000771  2.0083200  2
   3046   3045   3052   3055     1  0.0000000  1.2552000  3
   3046   3058   3070   6205     1  0.0000000  0.6508444  3
   3049   3045   3046   3058     1  180.0000771  2.0083200  2
   3049   3045   3046   3058     1  0.0000000  1.2552000  3
   3049   3045   3052   3055     1  180.0000771  2.0083200  2
   3049   3045   3052   3055     1  0.0000000  1.2552000  3
   3049   3061   3067   6176     1  0.0000000  0.6508444  3
   3052   3045   3046   3058     1  180.0000771  2.0083200  2
   3052   3045   3046   3058     1  0.0000000  1.2552000  3
   3052   3045   3049   3061     1  180.0000771  2.0083200  2
   3052   3045   3049   3061     1  0.0000000  1.2552000  3
   3052   3055   3064   3073     1  0.0000000  0.6508444  3
   3058   3070   6205   6196     1  180.0000771  0.4184000  2
   3058   3070   6205   6196     1  0.0000000  1.6024720  3
   3061   3067   6176   6167     1  180.0000771  0.4184000  2
   3061   3067   6176   6167     1  0.0000000  1.6024720  3
   3067   6176   6167   6158     1  180.0000771  0.4184000  2
   3067   6176   6167   6158     1  0.0000000  1.6024720  3
   3070   6205   6196   6187     1  180.0000771  0.4184000  2
   3070   6205   6196   6187     1  0.0000000  1.6024720  3
   3074   3075   3087   3099     1  0.0000000  0.6508444  3
   3074   3078   3090   3096     1  0.0000000  0.6508444  3
   3074   3081   3084   3093     1  0.0000000  0.6508444  3
   3075   3074   3078   3090     1  180.0000771  2.0083200  2
   3075   3074   3078   3090     1  0.0000000  1.2552000  3
   3075   3074   3081   3084     1  180.0000771  2.0083200  2
   3075   3074   3081   3084     1  0.0000000  1.2552000  3
   3075   3087   3099   6263     1  0.0000000  0.6508444  3
   3078   3074   3075   3087     1  180.0000771  2.0083200  2
   3078   3074   3075   3087     1  0.0000000  1.2552000  3
   3078   3074   3081   3084     1  180.0000771  2.0083200  2
   3078   3074   3081   3084     1  0.0000000  1.2552000  3
   3078   3090   3096   6234     1  0.0000000  0.6508444  3
   3081   3074   3075   3087     1  180.0000771  2.0083200  2
   3081   3074   3075   3087     1  0.0000000  1.2552000  3
   3081   3074   3078   3090     1  180.0000771  2.0083200  2
   3081   3074   3078   3090     1  0.0000000  1.2552000  3
   3081   3084   3093   3102     1  0.0000000  0.6508444  3
   3087   3099   6263   6254     1  180.0000771  0.4184000  2
   3087   3099   6263   6254     1  0.0000000  1.6024720  3
   3090   3096   6234   6225     1  180.0000771  0.4184000  2
   3090   3096   6234   6225     1  0.0000000  1.6024720  3
   3096   6234   6225   6216     1  180.0000771  0.4184000  2
   3096   6234   6225   6216     1  0.0000000  1.6024720  3
   3099   6263   6254   6245     1  180.0000771  0.4184000  2
   3099   6263   6254   6245     1  0.0000000  1.6024720  3
   3103   3104   3116   3128     1  0.0000000  0.6508444  3
   3103   3107   3119   3125     1  0.0000000  0.6508444  3
   3103   3110   3113   3122     1  0.0000000  0.6508444  3
   3104   3103   3107   3119     1  180.0000771  2.0083200  2
   3104   3103   3107   3119     1  0.0000000  1.2552000  3
   3104   3103   3110   3113     1  180.0000771  2.0083200  2
   3104   3103   3110   3113     1  0.0000000  1.2552000  3
   3104   3116   3128   6321     1  0.0000000  0.6508444  3
   3107   3103   3104   3116     1  180.0000771  2.0083200  2
   3107   3103   3104   3116     1  0.0000000  1.2552000  3
   3107   3103   3110   3113     1  180.0000771  2.0083200  2
   3107   3103   3110   3113     1  0.0000000  1.2552000  3
   3107   3119   3125   6292     1  0.0000000  0.6508444  3
   3110   3103   3104   3116     1  180.0000771  2.0083200  2
   3110   3103   3104   3116     1  0.0000000  1.2552000  3
   3110   3103   3107   3119     1  180.0000771  2.0083200  2
   3110   3103   3107   3119     1  0.0000000  1.2552000  3
   3110   3113   3122   3131     1  0.0000000  0.6508444  3
   3116   3128   6321   6312     1  180.0000771  0.4184000  2
   3116   3128   6321   6312     1  0.0000000  1.6024720  3
   3119   3125   6292   6283     1  180.0000771  0.4184000  2
   3119   3125   6292   6283     1  0.0000000  1.6024720  3
   3125   6292   6283   6274     1  180.0000771  0.4184000  2
   3125   6292   6283   6274     1  0.0000000  1.6024720  3
   3128   6321   6312   6303     1  180.0000771  0.4184000  2
   3128   6321   6312   6303     1  0.0000000  1.6024720  3
   3132   3133   3145   3157     1  0.0000000  0.6508444  3
   3132   3136   3148   3154     1  0.0000000  0.6508444  3
   3132   3139   3142   3151     1  0.0000000  0.6508444  3
   3133   3132   3136   3148     1  180.0000771  2.0083200  2
   3133   3132   3136   3148     1  0.0000000  1.2552000  3
   3133   3132   3139   3142     1  180.0000771  2.0083200  2
   3133   3132   3139   3142     1  0.0000000  1.2552000  3
   3133   3145   3157   6379     1  0.0000000  0.6508444  3
   3136   3132   3133   3145     1  180.0000771  2.0083200  2
   3136   3132   3133   3145     1  0.0000000  1.2552000  3
   3136   3132   3139   3142     1  180.0000771  2.0083200  2
   3136   3132   3139   3142     1  0.0000000  1.2552000  3
   3136   3148   3154   6350     1  0.0000000  0.6508444  3
   3139   3132   3133   3145     1  180.0000771  2.0083200  2
   3139   3132   3133   3145     1  0.0000000  1.2552000  3
   3139   3132   3136   3148     1  180.0000771  2.0083200  2
   3139   3132   3136   3148     1  0.0000000  1.2552000  3
   3139   3142   3151   3160     1  0.0000000  0.6508444  3
   3145   3157   6379   6370     1  180.0000771  0.4184000  2
   3145   3157   6379   6370     1  0.0000000  1.6024720  3
   3148   3154   6350   6341     1  180.0000771  0.4184000  2
   3148   3154   6350   6341     1  0.0000000  1.6024720  3
   3154   6350   6341   6332     1  180.0000771  0.4184000  2
   3154   6350   6341   6332     1  0.0000000  1.6024720  3
   3157   6379   6370   6361     1  180.0000771  0.4184000  2
   3157   6379   6370   6361     1  0.0000000  1.6024720  3
   3161   3162   3174   3186     1  0.0000000  0.6508444  3
   3161   3165   3177   3183     1  0.0000000  0.6508444  3
   3161   3168   3171   3180     1  0.0000000  0.6508444  3
   3162   3161   3165   3177     1  180.0000771  2.0083200  2
   3162   3161   3165   3177     1  0.0000000  1.2552000  3
   3162   3161   3168   3171     1  180.0000771  2.0083200  2
   3162   3161   3168   3171     1  0.0000000  1.2552000  3
   3162   3174   3186   6437     1  0.0000000  0.6508444  3
   3165   3161   3162   3174     1  180.0000771  2.0083200  2
   3165   3161   3162   3174     1  0.0000000  1.2552000  3
   3165   3161   3168   3171     1  180.0000771  2.0083200  2
   3165   3161   3168   3171     1  0.0000000  1.2552000  3
   3165   3177   3183   6408     1  0.0000000  0.6508444  3
   3168   3161   3162   3174     1  180.0000771  2.0083200  2
   3168   3161   3162   3174     1  0.0000000  1.2552000  3
   3168   3161   3165   3177     1  180.0000771  2.0083200  2
   3168   3161   3165   3177     1  0.0000000  1.2552000  3
   3168   3171   3180   3189     1  0.0000000  0.6508444  3
   3174   3186   6437   6428     1  180.0000771  0.4184000  2
   3174   3186   6437   6428     1  0.0000000  1.6024720  3
   3177   3183   6408   6399     1  180.0000771  0.4184000  2
   3177   3183   6408   6399     1  0.0000000  1.6024720  3
   3183   6408   6399   6390     1  180.0000771  0.4184000  2
   3183   6408   6399   6390     1  0.0000000  1.6024720  3
   3186   6437   6428   6419     1  180.0000771  0.4184000  2
   3186   6437   6428   6419     1  0.0000000  1.6024720  3
   3190   3191   3203   3215     1  0.0000000  0.6508444  3
   3190   3194   3206   3212     1  0.0000000  0.6508444  3
   3190   3197   3200   3209     1  0.0000000  0.6508444  3
   3191   3190   3194   3206     1  180.0000771  2.0083200  2
   3191   3190   3194   3206     1  0.0000000  1.2552000  3
   3191   3190   3197   3200     1  180.0000771  2.0083200  2
   3191   3190   3197   3200     1  0.0000000  1.2552000  3
   3191   3203   3215   6495     1  0.0000000  0.6508444  3
   3194   3190   3191   3203     1  180.0000771  2.0083200  2
   3194   3190   3191   3203     1  0.0000000  1.2552000  3
   3194   3190   3197   3200     1  180.0000771  2.0083200  2
   3194   3190   3197   3200     1  0.0000000  1.2552000  3
   3194   3206   3212   6466     1  0.0000000  0.6508444  3
   3197   3190   3191   3203     1  180.0000771  2.0083200  2
   3197   3190   3191   3203     1  0.0000000  1.2552000  3
   3197   3190   3194   3206     1  180.0000771  2.0083200  2
   3197   3190   3194   3206     1  0.0000000  1.2552000  3
   3197   3200   3209   3218     1  0.0000000  0.6508444  3
   3203   3215   6495   6486     1  180.0000771  0.4184000  2
   3203   3215   6495   6486     1  0.0000000  1.6024720  3
   3206   3212   6466   6457     1  180.0000771  0.4184000  2
   3206   3212   6466   6457     1  0.0000000  1.6024720  3
   3212   6466   6457   6448     1  180.0000771  0.4184000  2
   3212   6466   6457   6448     1  0.0000000  1.6024720  3
   3215   6495   6486   6477     1  180.0000771  0.4184000  2
   3215   6495   6486   6477     1  0.0000000  1.6024720  3
   3219   3220   3232   3244     1  0.0000000  0.6508444  3
   3219   3223   3235   3241     1  0.0000000  0.6508444  3
   3219   3226   3229   3238     1  0.0000000  0.6508444  3
   3220   3219   3223   3235     1  180.0000771  2.0083200  2
   3220   3219   3223   3235     1  0.0000000  1.2552000  3
   3220   3219   3226   3229     1  180.0000771  2.0083200  2
   3220   3219   3226   3229     1  0.0000000  1.2552000  3
   3220   3232   3244   6553     1  0.0000000  0.6508444  3
   3223   3219   3220   3232     1  180.0000771  2.0083200  2
   3223   3219   3220   3232     1  0.0000000  1.2552000  3
   3223   3219   3226   3229     1  180.0000771  2.0083200  2
   3223   3219   3226   3229     1  0.0000000  1.2552000  3
   3223   3235   3241   6524     1  0.0000000  0.6508444  3
   3226   3219   3220   3232     1  180.0000771  2.0083200  2
   3226   3219   3220   3232     1  0.0000000  1.2552000  3
   3226   3219   3223   3235     1  180.0000771  2.0083200  2
   3226   3219   3223   3235     1  0.0000000  1.2552000  3
   3226   3229   3238   3247     1  0.0000000  0.6508444  3
   3232   3244   6553   6544     1  180.0000771  0.4184000  2
   3232   3244   6553   6544     1  0.0000000  1.6024720  3
   3235   3241   6524   6515     1  180.0000771  0.4184000  2
   3235   3241   6524   6515     1  0.0000000  1.6024720  3
   3241   6524   6515   6506     1  180.0000771  0.4184000  2
   3241   6524   6515   6506     1  0.0000000  1.6024720  3
   3244   6553   6544   6535     1  180.0000771  0.4184000  2
   3244   6553   6544   6535     1  0.0000000  1.6024720  3
   3248   3249   3261   3273     1  0.0000000  0.6508444  3
   3248   3252   3264   3270     1  0.0000000  0.6508444  3
   3248   3255   3258   3267     1  0.0000000  0.6508444  3
   3249   3248   3252   3264     1  180.0000771  2.0083200  2
   3249   3248   3252   3264     1  0.0000000  1.2552000  3
   3249   3248   3255   3258     1  180.0000771  2.0083200  2
   3249   3248   3255   3258     1  0.0000000  1.2552000  3
   3249   3261   3273   6611     1  0.0000000  0.6508444  3
   3252   3248   3249   3261     1  180.0000771  2.0083200  2
   3252   3248   3249   3261     1  0.0000000  1.2552000  3
   3252   3248   3255   3258     1  180.0000771  2.0083200  2
   3252   3248   3255   3258     1  0.0000000  1.2552000  3
   3252   3264   3270   6582     1  0.0000000  0.6508444  3
   3255   3248   3249   3261     1  180.0000771  2.0083200  2
   3255   3248   3249   3261     1  0.0000000  1.2552000  3
   3255   3248   3252   3264     1  180.0000771  2.0083200  2
   3255   3248   3252   3264     1  0.0000000  1.2552000  3
   3255   3258   3267   3276     1  0.0000000  0.6508444  3
   3261   3273   6611   6602     1  180.0000771  0.4184000  2
   3261   3273   6611   6602     1  0.0000000  1.6024720  3
   3264   3270   6582   6573     1  180.0000771  0.4184000  2
   3264   3270   6582   6573     1  0.0000000  1.6024720  3
   3270   6582   6573   6564     1  180.0000771  0.4184000  2
   3270   6582   6573   6564     1  0.0000000  1.6024720  3
   3273   6611   6602   6593     1  180.0000771  0.4184000  2
   3273   6611   6602   6593     1  0.0000000  1.6024720  3
   3277   3278   3290   3302     1  0.0000000  0.6508444  3
   3277   3281   3293   3299     1  0.0000000  0.6508444  3
   3277   3284   3287   3296     1  0.0000000  0.6508444  3
   3278   3277   3281   3293     1  180.0000771  2.0083200  2
   3278   3277   3281   3293     1  0.0000000  1.2552000  3
   3278   3277   3284   3287     1  180.0000771  2.0083200  2
   3278   3277   3284   3287     1  0.0000000  1.2552000  3
   3278   3290   3302   6669     1  0.0000000  0.6508444  3
   3281   3277   3278   3290     1  180.0000771  2.0083200  2
   3281   3277   3278   3290     1  0.0000000  1.2552000  3
   3281   3277   3284   3287     1  180.0000771  2.0083200  2
   3281   3277   3284   3287     1  0.0000000  1.2552000  3
   3281   3293   3299   6640     1  0.0000000  0.6508444  3
   3284   3277   3278   3290     1  180.0000771  2.0083200  2
   3284   3277   3278   3290     1  0.0000000  1.2552000  3
   3284   3277   3281   3293     1  180.0000771  2.0083200  2
   3284   3277   3281   3293     1  0.0000000  1.2552000  3
   3284   3287   3296   3305     1  0.0000000  0.6508444  3
   3290   3302   6669   6660     1  180.0000771  0.4184000  2
   3290   3302   6669   6660     1  0.0000000  1.6024720  3
   3293   3299   6640   6631     1  180.0000771  0.4184000  2
   3293   3299   6640   6631     1  0.0000000  1.6024720  3
   3299   6640   6631   6622     1  180.0000771  0.4184000  2
   3299   6640   6631   6622     1  0.0000000  1.6024720  3
   3302   6669   6660   6651     1  180.0000771  0.4184000  2
   3302   6669   6660   6651     1  0.0000000  1.6024720  3
   3306   3307   3319   3331     1  0.0000000  0.6508444  3
   3306   3310   3322   3328     1  0.0000000  0.6508444  3
   3306   3313   3316   3325     1  0.0000000  0.6508444  3
   3307   3306   3310   3322     1  180.0000771  2.0083200  2
   3307   3306   3310   3322     1  0.0000000  1.2552000  3
   3307   3306   3313   3316     1  180.0000771  2.0083200  2
   3307   3306   3313   3316     1  0.0000000  1.2552000  3
   3307   3319   3331   6727     1  0.0000000  0.6508444  3
   3310   3306   3307   3319     1  180.0000771  2.0083200  2
   3310   3306   3307   3319     1  0.0000000  1.2552000  3
   3310   3306   3313   3316     1  180.0000771  2.0083200  2
   3310   3306   3313   3316     1  0.0000000  1.2552000  3
   3310   3322   3328   6698     1  0.0000000  0.6508444  3
   3313   3306   3307   3319     1  180.0000771  2.0083200  2
   3313   3306   3307   3319     1  0.0000000  1.2552000  3
   3313   3306   3310   3322     1  180.0000771  2.0083200  2
   3313   3306   3310   3322     1  0.0000000  1.2552000  3
   3313   3316   3325   3334     1  0.0000000  0.6508444  3
   3319   3331   6727   6718     1  180.0000771  0.4184000  2
   3319   3331   6727   6718     1  0.0000000  1.6024720  3
   3322   3328   6698   6689     1  180.0000771  0.4184000  2
   3322   3328   6698   6689     1  0.0000000  1.6024720  3
   3328   6698   6689   6680     1  180.0000771  0.4184000  2
   3328   6698   6689   6680     1  0.0000000  1.6024720  3
   3331   6727   6718   6709     1  180.0000771  0.4184000  2
   3331   6727   6718   6709     1  0.0000000  1.6024720  3
   3335   3336   3348   3360     1  0.0000000  0.6508444  3
   3335   3339   3351   3357     1  0.0000000  0.6508444  3
   3335   3342   3345   3354     1  0.0000000  0.6508444  3
   3336   3335   3339   3351     1  180.0000771  2.0083200  2
   3336   3335   3339   3351     1  0.0000000  1.2552000  3
   3336   3335   3342   3345     1  180.0000771  2.0083200  2
   3336   3335   3342   3345     1  0.0000000  1.2552000  3
   3336   3348   3360   6785     1  0.0000000  0.6508444  3
   3339   3335   3336   3348     1  180.0000771  2.0083200  2
   3339   3335   3336   3348     1  0.0000000  1.2552000  3
   3339   3335   3342   3345     1  180.0000771  2.0083200  2
   3339   3335   3342   3345     1  0.0000000  1.2552000  3
   3339   3351   3357   6756     1  0.0000000  0.6508444  3
   3342   3335   3336   3348     1  180.0000771  2.0083200  2
   3342   3335   3336   3348     1  0.0000000  1.2552000  3
   3342   3335   3339   3351     1  180.0000771  2.0083200  2
   3342   3335   3339   3351     1  0.0000000  1.2552000  3
   3342   3345   3354   3363     1  0.0000000  0.6508444  3
   3348   3360   6785   6776     1  180.0000771  0.4184000  2
   3348   3360   6785   6776     1  0.0000000  1.6024720  3
   3351   3357   6756   6747     1  180.0000771  0.4184000  2
   3351   3357   6756   6747     1  0.0000000  1.6024720  3
   3357   6756   6747   6738     1  180.0000771  0.4184000  2
   3357   6756   6747   6738     1  0.0000000  1.6024720  3
   3360   6785   6776   6767     1  180.0000771  0.4184000  2
   3360   6785   6776   6767     1  0.0000000  1.6024720  3
   3364   3365   3377   3389     1  0.0000000  0.6508444  3
   3364   3368   3380   3386     1  0.0000000  0.6508444  3
   3364   3371   3374   3383     1  0.0000000  0.6508444  3
   3365   3364   3368   3380     1  180.0000771  2.0083200  2
   3365   3364   3368   3380     1  0.0000000  1.2552000  3
   3365   3364   3371   3374     1  180.0000771  2.0083200  2
   3365   3364   3371   3374     1  0.0000000  1.2552000  3
   3365   3377   3389   6843     1  0.0000000  0.6508444  3
   3368   3364   3365   3377     1  180.0000771  2.0083200  2
   3368   3364   3365   3377     1  0.0000000  1.2552000  3
   3368   3364   3371   3374     1  180.0000771  2.0083200  2
   3368   3364   3371   3374     1  0.0000000  1.2552000  3
   3368   3380   3386   6814     1  0.0000000  0.6508444  3
   3371   3364   3365   3377     1  180.0000771  2.0083200  2
   3371   3364   3365   3377     1  0.0000000  1.2552000  3
   3371   3364   3368   3380     1  180.0000771  2.0083200  2
   3371   3364   3368   3380     1  0.0000000  1.2552000  3
   3371   3374   3383   3392     1  0.0000000  0.6508444  3
   3377   3389   6843   6834     1  180.0000771  0.4184000  2
   3377   3389   6843   6834     1  0.0000000  1.6024720  3
   3380   3386   6814   6805     1  180.0000771  0.4184000  2
   3380   3386   6814   6805     1  0.0000000  1.6024720  3
   3386   6814   6805   6796     1  180.0000771  0.4184000  2
   3386   6814   6805   6796     1  0.0000000  1.6024720  3
   3389   6843   6834   6825     1  180.0000771  0.4184000  2
   3389   6843   6834   6825     1  0.0000000  1.6024720  3
   3393   3394   3406   3418     1  0.0000000  0.6508444  3
   3393   3397   3409   3415     1  0.0000000  0.6508444  3
   3393   3400   3403   3412     1  0.0000000  0.6508444  3
   3394   3393   3397   3409     1  180.0000771  2.0083200  2
   3394   3393   3397   3409     1  0.0000000  1.2552000  3
   3394   3393   3400   3403     1  180.0000771  2.0083200  2
   3394   3393   3400   3403     1  0.0000000  1.2552000  3
   3394   3406   3418   6901     1  0.0000000  0.6508444  3
   3397   3393   3394   3406     1  180.0000771  2.0083200  2
   3397   3393   3394   3406     1  0.0000000  1.2552000  3
   3397   3393   3400   3403     1  180.0000771  2.0083200  2
   3397   3393   3400   3403     1  0.0000000  1.2552000  3
   3397   3409   3415   6872     1  0.0000000  0.6508444  3
   3400   3393   3394   3406     1  180.0000771  2.0083200  2
   3400   3393   3394   3406     1  0.0000000  1.2552000  3
   3400   3393   3397   3409     1  180.0000771  2.0083200  2
   3400   3393   3397   3409     1  0.0000000  1.2552000  3
   3400   3403   3412   3421     1  0.0000000  0.6508444  3
   3406   3418   6901   6892     1  180.0000771  0.4184000  2
   3406   3418   6901   6892     1  0.0000000  1.6024720  3
   3409   3415   6872   6863     1  180.0000771  0.4184000  2
   3409   3415   6872   6863     1  0.0000000  1.6024720  3
   3415   6872   6863   6854     1  180.0000771  0.4184000  2
   3415   6872   6863   6854     1  0.0000000  1.6024720  3
   3418   6901   6892   6883     1  180.0000771  0.4184000  2
   3418   6901   6892   6883     1  0.0000000  1.6024720  3
   3422   3423   3435   3447     1  0.0000000  0.6508444  3
   3422   3426   3438   3444     1  0.0000000  0.6508444  3
   3422   3429   3432   3441     1  0.0000000  0.6508444  3
   3423   3422   3426   3438     1  180.0000771  2.0083200  2
   3423   3422   3426   3438     1  0.0000000  1.2552000  3
   3423   3422   3429   3432     1  180.0000771  2.0083200  2
   3423   3422   3429   3432     1  0.0000000  1.2552000  3
   3423   3435   3447   6959     1  0.0000000  0.6508444  3
   3426   3422   3423   3435     1  180.0000771  2.0083200  2
   3426   3422   3423   3435     1  0.0000000  1.2552000  3
   3426   3422   3429   3432     1  180.0000771  2.0083200  2
   3426   3422   3429   3432     1  0.0000000  1.2552000  3
   3426   3438   3444   6930     1  0.0000000  0.6508444  3
   3429   3422   3423   3435     1  180.0000771  2.0083200  2
   3429   3422   3423   3435     1  0.0000000  1.2552000  3
   3429   3422   3426   3438     1  180.0000771  2.0083200  2
   3429   3422   3426   3438     1  0.0000000  1.2552000  3
   3429   3432   3441   3450     1  0.0000000  0.6508444  3
   3435   3447   6959   6950     1  180.0000771  0.4184000  2
   3435   3447   6959   6950     1  0.0000000  1.6024720  3
   3438   3444   6930   6921     1  180.0000771  0.4184000  2
   3438   3444   6930   6921     1  0.0000000  1.6024720  3
   3444   6930   6921   6912     1  180.0000771  0.4184000  2
   3444   6930   6921   6912     1  0.0000000  1.6024720  3
   3447   6959   6950   6941     1  180.0000771  0.4184000  2
   3447   6959   6950   6941     1  0.0000000  1.6024720  3
   3451   3452   3464   3476     1  0.0000000  0.6508444  3
   3451   3455   3467   3473     1  0.0000000  0.6508444  3
   3451   3458   3461   3470     1  0.0000000  0.6508444  3
   3452   3451   3455   3467     1  180.0000771  2.0083200  2
   3452   3451   3455   3467     1  0.0000000  1.2552000  3
   3452   3451   3458   3461     1  180.0000771  2.0083200  2
   3452   3451   3458   3461     1  0.0000000  1.2552000  3
   3452   3464   3476   7017     1  0.0000000  0.6508444  3
   3455   3451   3452   3464     1  180.0000771  2.0083200  2
   3455   3451   3452   3464     1  0.0000000  1.2552000  3
   3455   3451   3458   3461     1  180.0000771  2.0083200  2
   3455   3451   3458   3461     1  0.0000000  1.2552000  3
   3455   3467   3473   6988     1  0.0000000  0.6508444  3
   3458   3451   3452   3464     1  180.0000771  2.0083200  2
   3458   3451   3452   3464     1  0.0000000  1.2552000  3
   3458   3451   3455   3467     1  180.0000771  2.0083200  2
   3458   3451   3455   3467     1  0.0000000  1.2552000  3
   3458   3461   3470   3479     1  0.0000000  0.6508444  3
   3464   3476   7017   7008     1  180.0000771  0.4184000  2
   3464   3476   7017   7008     1  0.0000000  1.6024720  3
   3467   3473   6988   6979     1  180.0000771  0.4184000  2
   3467   3473   6988   6979     1  0.0000000  1.6024720  3
   3473   6988   6979   6970     1  180.0000771  0.4184000  2
   3473   6988   6979   6970     1  0.0000000  1.6024720  3
   3476   7017   7008   6999     1  180.0000771  0.4184000  2
   3476   7017   7008   6999     1  0.0000000  1.6024720  3
   3480   3481   3493   3505     1  0.0000000  0.6508444  3
   3480   3484   3496   3502     1  0.0000000  0.6508444  3
   3480   3487   3490   3499     1  0.0000000  0.6508444  3
   3481   3480   3484   3496     1  180.0000771  2.0083200  2
   3481   3480   3484   3496     1  0.0000000  1.2552000  3
   3481   3480   3487   3490     1  180.0000771  2.0083200  2
   3481   3480   3487   3490     1  0.0000000  1.2552000  3
   3481   3493   3505   7075     1  0.0000000  0.6508444  3
   3484   3480   3481   3493     1  180.0000771  2.0083200  2
   3484   3480   3481   3493     1  0.0000000  1.2552000  3
   3484   3480   3487   3490     1  180.0000771  2.0083200  2
   3484   3480   3487   3490     1  0.0000000  1.2552000  3
   3484   3496   3502   7046     1  0.0000000  0.6508444  3
   3487   3480   3481   3493     1  180.0000771  2.0083200  2
   3487   3480   3481   3493     1  0.0000000  1.2552000  3
   3487   3480   3484   3496     1  180.0000771  2.0083200  2
   3487   3480   3484   3496     1  0.0000000  1.2552000  3
   3487   3490   3499   3508     1  0.0000000  0.6508444  3
   3493   3505   7075   7066     1  180.0000771  0.4184000  2
   3493   3505   7075   7066     1  0.0000000  1.6024720  3
   3496   3502   7046   7037     1  180.0000771  0.4184000  2
   3496   3502   7046   7037     1  0.0000000  1.6024720  3
   3502   7046   7037   7028     1  180.0000771  0.4184000  2
   3502   7046   7037   7028     1  0.0000000  1.6024720  3
   3505   7075   7066   7057     1  180.0000771  0.4184000  2
   3505   7075   7066   7057     1  0.0000000  1.6024720  3
   3509   3510   3522   3534     1  0.0000000  0.6508444  3
   3509   3513   3525   3531     1  0.0000000  0.6508444  3
   3509   3516   3519   3528     1  0.0000000  0.6508444  3
   3510   3509   3513   3525     1  180.0000771  2.0083200  2
   3510   3509   3513   3525     1  0.0000000  1.2552000  3
   3510   3509   3516   3519     1  180.0000771  2.0083200  2
   3510   3509   3516   3519     1  0.0000000  1.2552000  3
   3510   3522   3534   7133     1  0.0000000  0.6508444  3
   3513   3509   3510   3522     1  180.0000771  2.0083200  2
   3513   3509   3510   3522     1  0.0000000  1.2552000  3
   3513   3509   3516   3519     1  180.0000771  2.0083200  2
   3513   3509   3516   3519     1  0.0000000  1.2552000  3
   3513   3525   3531   7104     1  0.0000000  0.6508444  3
   3516   3509   3510   3522     1  180.0000771  2.0083200  2
   3516   3509   3510   3522     1  0.0000000  1.2552000  3
   3516   3509   3513   3525     1  180.0000771  2.0083200  2
   3516   3509   3513   3525     1  0.0000000  1.2552000  3
   3516   3519   3528   3537     1  0.0000000  0.6508444  3
   3522   3534   7133   7124     1  180.0000771  0.4184000  2
   3522   3534   7133   7124     1  0.0000000  1.6024720  3
   3525   3531   7104   7095     1  180.0000771  0.4184000  2
   3525   3531   7104   7095     1  0.0000000  1.6024720  3
   3531   7104   7095   7086     1  180.0000771  0.4184000  2
   3531   7104   7095   7086     1  0.0000000  1.6024720  3
   3534   7133   7124   7115     1  180.0000771  0.4184000  2
   3534   7133   7124   7115     1  0.0000000  1.6024720  3
   3538   3539   3551   3563     1  0.0000000  0.6508444  3
   3538   3542   3554   3560     1  0.0000000  0.6508444  3
   3538   3545   3548   3557     1  0.0000000  0.6508444  3
   3539   3538   3542   3554     1  180.0000771  2.0083200  2
   3539   3538   3542   3554     1  0.0000000  1.2552000  3
   3539   3538   3545   3548     1  180.0000771  2.0083200  2
   3539   3538   3545   3548     1  0.0000000  1.2552000  3
   3539   3551   3563   7191     1  0.0000000  0.6508444  3
   3542   3538   3539   3551     1  180.0000771  2.0083200  2
   3542   3538   3539   3551     1  0.0000000  1.2552000  3
   3542   3538   3545   3548     1  180.0000771  2.0083200  2
   3542   3538   3545   3548     1  0.0000000  1.2552000  3
   3542   3554   3560   7162     1  0.0000000  0.6508444  3
   3545   3538   3539   3551     1  180.0000771  2.0083200  2
   3545   3538   3539   3551     1  0.0000000  1.2552000  3
   3545   3538   3542   3554     1  180.0000771  2.0083200  2
   3545   3538   3542   3554     1  0.0000000  1.2552000  3
   3545   3548   3557   3566     1  0.0000000  0.6508444  3
   3551   3563   7191   7182     1  180.0000771  0.4184000  2
   3551   3563   7191   7182     1  0.0000000  1.6024720  3
   3554   3560   7162   7153     1  180.0000771  0.4184000  2
   3554   3560   7162   7153     1  0.0000000  1.6024720  3
   3560   7162   7153   7144     1  180.0000771  0.4184000  2
   3560   7162   7153   7144     1  0.0000000  1.6024720  3
   3563   7191   7182   7173     1  180.0000771  0.4184000  2
   3563   7191   7182   7173     1  0.0000000  1.6024720  3
   3567   3568   3580   3592     1  0.0000000  0.6508444  3
   3567   3571   3583   3589     1  0.0000000  0.6508444  3
   3567   3574   3577   3586     1  0.0000000  0.6508444  3
   3568   3567   3571   3583     1  180.0000771  2.0083200  2
   3568   3567   3571   3583     1  0.0000000  1.2552000  3
   3568   3567   3574   3577     1  180.0000771  2.0083200  2
   3568   3567   3574   3577     1  0.0000000  1.2552000  3
   3568   3580   3592   7249     1  0.0000000  0.6508444  3
   3571   3567   3568   3580     1  180.0000771  2.0083200  2
   3571   3567   3568   3580     1  0.0000000  1.2552000  3
   3571   3567   3574   3577     1  180.0000771  2.0083200  2
   3571   3567   3574   3577     1  0.0000000  1.2552000  3
   3571   3583   3589   7220     1  0.0000000  0.6508444  3
   3574   3567   3568   3580     1  180.0000771  2.0083200  2
   3574   3567   3568   3580     1  0.0000000  1.2552000  3
   3574   3567   3571   3583     1  180.0000771  2.0083200  2
   3574   3567   3571   3583     1  0.0000000  1.2552000  3
   3574   3577   3586   3595     1  0.0000000  0.6508444  3
   3580   3592   7249   7240     1  180.0000771  0.4184000  2
   3580   3592   7249   7240     1  0.0000000  1.6024720  3
   3583   3589   7220   7211     1  180.0000771  0.4184000  2
   3583   3589   7220   7211     1  0.0000000  1.6024720  3
   3589   7220   7211   7202     1  180.0000771  0.4184000  2
   3589   7220   7211   7202     1  0.0000000  1.6024720  3
   3592   7249   7240   7231     1  180.0000771  0.4184000  2
   3592   7249   7240   7231     1  0.0000000  1.6024720  3
   3596   3597   3609   3621     1  0.0000000  0.6508444  3
   3596   3600   3612   3618     1  0.0000000  0.6508444  3
   3596   3603   3606   3615     1  0.0000000  0.6508444  3
   3597   3596   3600   3612     1  180.0000771  2.0083200  2
   3597   3596   3600   3612     1  0.0000000  1.2552000  3
   3597   3596   3603   3606     1  180.0000771  2.0083200  2
   3597   3596   3603   3606     1  0.0000000  1.2552000  3
   3597   3609   3621   7307     1  0.0000000  0.6508444  3
   3600   3596   3597   3609     1  180.0000771  2.0083200  2
   3600   3596   3597   3609     1  0.0000000  1.2552000  3
   3600   3596   3603   3606     1  180.0000771  2.0083200  2
   3600   3596   3603   3606     1  0.0000000  1.2552000  3
   3600   3612   3618   7278     1  0.0000000  0.6508444  3
   3603   3596   3597   3609     1  180.0000771  2.0083200  2
   3603   3596   3597   3609     1  0.0000000  1.2552000  3
   3603   3596   3600   3612     1  180.0000771  2.0083200  2
   3603   3596   3600   3612     1  0.0000000  1.2552000  3
   3603   3606   3615   3624     1  0.0000000  0.6508444  3
   3609   3621   7307   7298     1  180.0000771  0.4184000  2
   3609   3621   7307   7298     1  0.0000000  1.6024720  3
   3612   3618   7278   7269     1  180.0000771  0.4184000  2
   3612   3618   7278   7269     1  0.0000000  1.6024720  3
   3618   7278   7269   7260     1  180.0000771  0.4184000  2
   3618   7278   7269   7260     1  0.0000000  1.6024720  3
   3621   7307   7298   7289     1  180.0000771  0.4184000  2
   3621   7307   7298   7289     1  0.0000000  1.6024720  3
   3625   3626   3638   3650     1  0.0000000  0.6508444  3
   3625   3629   3641   3647     1  0.0000000  0.6508444  3
   3625   3632   3635   3644     1  0.0000000  0.6508444  3
   3626   3625   3629   3641     1  180.0000771  2.0083200  2
   3626   3625   3629   3641     1  0.0000000  1.2552000  3
   3626   3625   3632   3635     1  180.0000771  2.0083200  2
   3626   3625   3632   3635     1  0.0000000  1.2552000  3
   3626   3638   3650   7365     1  0.0000000  0.6508444  3
   3629   3625   3626   3638     1  180.0000771  2.0083200  2
   3629   3625   3626   3638     1  0.0000000  1.2552000  3
   3629   3625   3632   3635     1  180.0000771  2.0083200  2
   3629   3625   3632   3635     1  0.0000000  1.2552000  3
   3629   3641   3647   7336     1  0.0000000  0.6508444  3
   3632   3625   3626   3638     1  180.0000771  2.0083200  2
   3632   3625   3626   3638     1  0.0000000  1.2552000  3
   3632   3625   3629   3641     1  180.0000771  2.0083200  2
   3632   3625   3629   3641     1  0.0000000  1.2552000  3
   3632   3635   3644   3653     1  0.0000000  0.6508444  3
   3638   3650   7365   7356     1  180.0000771  0.4184000  2
   3638   3650   7365   7356     1  0.0000000  1.6024720  3
   3641   3647   7336   7327     1  180.0000771  0.4184000  2
   3641   3647   7336   7327     1  0.0000000  1.6024720  3
   3647   7336   7327   7318     1  180.0000771  0.4184000  2
   3647   7336   7327   7318     1  0.0000000  1.6024720  3
   3650   7365   7356   7347     1  180.0000771  0.4184000  2
   3650   7365   7356   7347     1  0.0000000  1.6024720  3
   3654   3655   3667   3679     1  0.0000000  0.6508444  3
   3654   3658   3670   3676     1  0.0000000  0.6508444  3
   3654   3661   3664   3673     1  0.0000000  0.6508444  3
   3655   3654   3658   3670     1  180.0000771  2.0083200  2
   3655   3654   3658   3670     1  0.0000000  1.2552000  3
   3655   3654   3661   3664     1  180.0000771  2.0083200  2
   3655   3654   3661   3664     1  0.0000000  1.2552000  3
   3655   3667   3679   7399     1  0.0000000  0.6508444  3
   3658   3654   3655   3667     1  180.0000771  2.0083200  2
   3658   3654   3655   3667     1  0.0000000  1.2552000  3
   3658   3654   3661   3664     1  180.0000771  2.0083200  2
   3658   3654   3661   3664     1  0.0000000  1.2552000  3
   3658   3670   3676   7376     1  0.0000000  0.6508444  3
   3661   3654   3655   3667     1  180.0000771  2.0083200  2
   3661   3654   3655   3667     1  0.0000000  1.2552000  3
   3661   3654   3658   3670     1  180.0000771  2.0083200  2
   3661   3654   3658   3670     1  0.0000000  1.2552000  3
   3661   3664   3673   3682     1  0.0000000  0.6508444  3
   3667   3679   7399   7395     1  180.0000771  0.4184000  2
   3667   3679   7399   7395     1  0.0000000  1.6024720  3
   3670   3676   7376   7372     1  180.0000771  0.4184000  2
   3670   3676   7376   7372     1  0.0000000  1.6024720  3
   3676   7376   7372   7371     1  180.0000771  0.4184000  2
   3676   7376   7372   7371     1  0.0000000  1.6024720  3
   3676   7376   7372   7388     1  180.0000771  5.6484000  1
   3676   7376   7372   7388     1  180.0000771  3.5564000  2
   3676   7376   7372   7388     1  0.0000000  0.4184000  3
   3679   7399   7395   7411     1  180.0000771  5.6484000  1
   3679   7399   7395   7411     1  180.0000771  3.5564000  2
   3679   7399   7395   7411     1  0.0000000  0.4184000  3
   3679   7399   7395   7394     1  180.0000771  0.4184000  2
   3679   7399   7395   7394     1  0.0000000  1.6024720  3
   3683   3684   3696   3708     1  0.0000000  0.6508444  3
   3683   3687   3699   3705     1  0.0000000  0.6508444  3
   3683   3690   3693   3702     1  0.0000000  0.6508444  3
   3684   3683   3687   3699     1  180.0000771  2.0083200  2
   3684   3683   3687   3699     1  0.0000000  1.2552000  3
   3684   3683   3690   3693     1  180.0000771  2.0083200  2
   3684   3683   3690   3693     1  0.0000000  1.2552000  3
   3684   3696   3708   7445     1  0.0000000  0.6508444  3
   3687   3683   3684   3696     1  180.0000771  2.0083200  2
   3687   3683   3684   3696     1  0.0000000  1.2552000  3
   3687   3683   3690   3693     1  180.0000771  2.0083200  2
   3687   3683   3690   3693     1  0.0000000  1.2552000  3
   3687   3699   3705   7422     1  0.0000000  0.6508444  3
   3690   3683   3684   3696     1  180.0000771  2.0083200  2
   3690   3683   3684   3696     1  0.0000000  1.2552000  3
   3690   3683   3687   3699     1  180.0000771  2.0083200  2
   3690   3683   3687   3699     1  0.0000000  1.2552000  3
   3690   3693   3702   3711     1  0.0000000  0.6508444  3
   3696   3708   7445   7441     1  180.0000771  0.4184000  2
   3696   3708   7445   7441     1  0.0000000  1.6024720  3
   3699   3705   7422   7418     1  180.0000771  0.4184000  2
   3699   3705   7422   7418     1  0.0000000  1.6024720  3
   3705   7422   7418   7417     1  180.0000771  0.4184000  2
   3705   7422   7418   7417     1  0.0000000  1.6024720  3
   3705   7422   7418   7434     1  180.0000771  5.6484000  1
   3705   7422   7418   7434     1  180.0000771  3.5564000  2
   3705   7422   7418   7434     1  0.0000000  0.4184000  3
   3708   7445   7441   7457     1  180.0000771  5.6484000  1
   3708   7445   7441   7457     1  180.0000771  3.5564000  2
   3708   7445   7441   7457     1  0.0000000  0.4184000  3
   3708   7445   7441   7440     1  180.0000771  0.4184000  2
   3708   7445   7441   7440     1  0.0000000  1.6024720  3
   3712   3713   3725   3737     1  0.0000000  0.6508444  3
   3712   3716   3728   3734     1  0.0000000  0.6508444  3
   3712   3719   3722   3731     1  0.0000000  0.6508444  3
   3713   3712   3716   3728     1  180.0000771  2.0083200  2
   3713   3712   3716   3728     1  0.0000000  1.2552000  3
   3713   3712   3719   3722     1  180.0000771  2.0083200  2
   3713   3712   3719   3722     1  0.0000000  1.2552000  3
   3713   3725   3737   7491     1  0.0000000  0.6508444  3
   3716   3712   3713   3725     1  180.0000771  2.0083200  2
   3716   3712   3713   3725     1  0.0000000  1.2552000  3
   3716   3712   3719   3722     1  180.0000771  2.0083200  2
   3716   3712   3719   3722     1  0.0000000  1.2552000  3
   3716   3728   3734   7468     1  0.0000000  0.6508444  3
   3719   3712   3713   3725     1  180.0000771  2.0083200  2
   3719   3712   3713   3725     1  0.0000000  1.2552000  3
   3719   3712   3716   3728     1  180.0000771  2.0083200  2
   3719   3712   3716   3728     1  0.0000000  1.2552000  3
   3719   3722   3731   3740     1  0.0000000  0.6508444  3
   3725   3737   7491   7487     1  180.0000771  0.4184000  2
   3725   3737   7491   7487     1  0.0000000  1.6024720  3
   3728   3734   7468   7464     1  180.0000771  0.4184000  2
   3728   3734   7468   7464     1  0.0000000  1.6024720  3
   3734   7468   7464   7463     1  180.0000771  0.4184000  2
   3734   7468   7464   7463     1  0.0000000  1.6024720  3
   3734   7468   7464   7480     1  180.0000771  5.6484000  1
   3734   7468   7464   7480     1  180.0000771  3.5564000  2
   3734   7468   7464   7480     1  0.0000000  0.4184000  3
   3737   7491   7487   7503     1  180.0000771  5.6484000  1
   3737   7491   7487   7503     1  180.0000771  3.5564000  2
   3737   7491   7487   7503     1  0.0000000  0.4184000  3
   3737   7491   7487   7486     1  180.0000771  0.4184000  2
   3737   7491   7487   7486     1  0.0000000  1.6024720  3
   3741   3742   3754   3766     1  0.0000000  0.6508444  3
   3741   3745   3757   3763     1  0.0000000  0.6508444  3
   3741   3748   3751   3760     1  0.0000000  0.6508444  3
   3742   3741   3745   3757     1  180.0000771  2.0083200  2
   3742   3741   3745   3757     1  0.0000000  1.2552000  3
   3742   3741   3748   3751     1  180.0000771  2.0083200  2
   3742   3741   3748   3751     1  0.0000000  1.2552000  3
   3742   3754   3766   7537     1  0.0000000  0.6508444  3
   3745   3741   3742   3754     1  180.0000771  2.0083200  2
   3745   3741   3742   3754     1  0.0000000  1.2552000  3
   3745   3741   3748   3751     1  180.0000771  2.0083200  2
   3745   3741   3748   3751     1  0.0000000  1.2552000  3
   3745   3757   3763   7514     1  0.0000000  0.6508444  3
   3748   3741   3742   3754     1  180.0000771  2.0083200  2
   3748   3741   3742   3754     1  0.0000000  1.2552000  3
   3748   3741   3745   3757     1  180.0000771  2.0083200  2
   3748   3741   3745   3757     1  0.0000000  1.2552000  3
   3748   3751   3760   3769     1  0.0000000  0.6508444  3
   3754   3766   7537   7533     1  180.0000771  0.4184000  2
   3754   3766   7537   7533     1  0.0000000  1.6024720  3
   3757   3763   7514   7510     1  180.0000771  0.4184000  2
   3757   3763   7514   7510     1  0.0000000  1.6024720  3
   3763   7514   7510   7509     1  180.0000771  0.4184000  2
   3763   7514   7510   7509     1  0.0000000  1.6024720  3
   3763   7514   7510   7526     1  180.0000771  5.6484000  1
   3763   7514   7510   7526     1  180.0000771  3.5564000  2
   3763   7514   7510   7526     1  0.0000000  0.4184000  3
   3766   7537   7533   7549     1  180.0000771  5.6484000  1
   3766   7537   7533   7549     1  180.0000771  3.5564000  2
   3766   7537   7533   7549     1  0.0000000  0.4184000  3
   3766   7537   7533   7532     1  180.0000771  0.4184000  2
   3766   7537   7533   7532     1  0.0000000  1.6024720  3
   3770   3771   3783   3795     1  0.0000000  0.6508444  3
   3770   3774   3786   3792     1  0.0000000  0.6508444  3
   3770   3777   3780   3789     1  0.0000000  0.6508444  3
   3771   3770   3774   3786     1  180.0000771  2.0083200  2
   3771   3770   3774   3786     1  0.0000000  1.2552000  3
   3771   3770   3777   3780     1  180.0000771  2.0083200  2
   3771   3770   3777   3780     1  0.0000000  1.2552000  3
   3771   3783   3795   7583     1  0.0000000  0.6508444  3
   3774   3770   3771   3783     1  180.0000771  2.0083200  2
   3774   3770   3771   3783     1  0.0000000  1.2552000  3
   3774   3770   3777   3780     1  180.0000771  2.0083200  2
   3774   3770   3777   3780     1  0.0000000  1.2552000  3
   3774   3786   3792   7560     1  0.0000000  0.6508444  3
   3777   3770   3771   3783     1  180.0000771  2.0083200  2
   3777   3770   3771   3783     1  0.0000000  1.2552000  3
   3777   3770   3774   3786     1  180.0000771  2.0083200  2
   3777   3770   3774   3786     1  0.0000000  1.2552000  3
   3777   3780   3789   3798     1  0.0000000  0.6508444  3
   3783   3795   7583   7579     1  180.0000771  0.4184000  2
   3783   3795   7583   7579     1  0.0000000  1.6024720  3
   3786   3792   7560   7556     1  180.0000771  0.4184000  2
   3786   3792   7560   7556     1  0.0000000  1.6024720  3
   3792   7560   7556   7555     1  180.0000771  0.4184000  2
   3792   7560   7556   7555     1  0.0000000  1.6024720  3
   3792   7560   7556   7572     1  180.0000771  5.6484000  1
   3792   7560   7556   7572     1  180.0000771  3.5564000  2
   3792   7560   7556   7572     1  0.0000000  0.4184000  3
   3795   7583   7579   7595     1  180.0000771  5.6484000  1
   3795   7583   7579   7595     1  180.0000771  3.5564000  2
   3795   7583   7579   7595     1  0.0000000  0.4184000  3
   3795   7583   7579   7578     1  180.0000771  0.4184000  2
   3795   7583   7579   7578     1  0.0000000  1.6024720  3
   3799   3800   3812   3824     1  0.0000000  0.6508444  3
   3799   3803   3815   3821     1  0.0000000  0.6508444  3
   3799   3806   3809   3818     1  0.0000000  0.6508444  3
   3800   3799   3803   3815     1  180.0000771  2.0083200  2
   3800   3799   3803   3815     1  0.0000000  1.2552000  3
   3800   3799   3806   3809     1  180.0000771  2.0083200  2
   3800   3799   3806   3809     1  0.0000000  1.2552000  3
   3800   3812   3824   7629     1  0.0000000  0.6508444  3
   3803   3799   3800   3812     1  180.0000771  2.0083200  2
   3803   3799   3800   3812     1  0.0000000  1.2552000  3
   3803   3799   3806   3809     1  180.0000771  2.0083200  2
   3803   3799   3806   3809     1  0.0000000  1.2552000  3
   3803   3815   3821   7606     1  0.0000000  0.6508444  3
   3806   3799   3800   3812     1  180.0000771  2.0083200  2
   3806   3799   3800   3812     1  0.0000000  1.2552000  3
   3806   3799   3803   3815     1  180.0000771  2.0083200  2
   3806   3799   3803   3815     1  0.0000000  1.2552000  3
   3806   3809   3818   3827     1  0.0000000  0.6508444  3
   3812   3824   7629   7625     1  180.0000771  0.4184000  2
   3812   3824   7629   7625     1  0.0000000  1.6024720  3
   3815   3821   7606   7602     1  180.0000771  0.4184000  2
   3815   3821   7606   7602     1  0.0000000  1.6024720  3
   3821   7606   7602   7601     1  180.0000771  0.4184000  2
   3821   7606   7602   7601     1  0.0000000  1.6024720  3
   3821   7606   7602   7618     1  180.0000771  5.6484000  1
   3821   7606   7602   7618     1  180.0000771  3.5564000  2
   3821   7606   7602   7618     1  0.0000000  0.4184000  3
   3824   7629   7625   7641     1  180.0000771  5.6484000  1
   3824   7629   7625   7641     1  180.0000771  3.5564000  2
   3824   7629   7625   7641     1  0.0000000  0.4184000  3
   3824   7629   7625   7624     1  180.0000771  0.4184000  2
   3824   7629   7625   7624     1  0.0000000  1.6024720  3
   3828   3829   3841   3853     1  0.0000000  0.6508444  3
   3828   3832   3844   3850     1  0.0000000  0.6508444  3
   3828   3835   3838   3847     1  0.0000000  0.6508444  3
   3829   3828   3832   3844     1  180.0000771  2.0083200  2
   3829   3828   3832   3844     1  0.0000000  1.2552000  3
   3829   3828   3835   3838     1  180.0000771  2.0083200  2
   3829   3828   3835   3838     1  0.0000000  1.2552000  3
   3829   3841   3853   7675     1  0.0000000  0.6508444  3
   3832   3828   3829   3841     1  180.0000771  2.0083200  2
   3832   3828   3829   3841     1  0.0000000  1.2552000  3
   3832   3828   3835   3838     1  180.0000771  2.0083200  2
   3832   3828   3835   3838     1  0.0000000  1.2552000  3
   3832   3844   3850   7652     1  0.0000000  0.6508444  3
   3835   3828   3829   3841     1  180.0000771  2.0083200  2
   3835   3828   3829   3841     1  0.0000000  1.2552000  3
   3835   3828   3832   3844     1  180.0000771  2.0083200  2
   3835   3828   3832   3844     1  0.0000000  1.2552000  3
   3835   3838   3847   3856     1  0.0000000  0.6508444  3
   3841   3853   7675   7671     1  180.0000771  0.4184000  2
   3841   3853   7675   7671     1  0.0000000  1.6024720  3
   3844   3850   7652   7648     1  180.0000771  0.4184000  2
   3844   3850   7652   7648     1  0.0000000  1.6024720  3
   3850   7652   7648   7647     1  180.0000771  0.4184000  2
   3850   7652   7648   7647     1  0.0000000  1.6024720  3
   3850   7652   7648   7664     1  180.0000771  5.6484000  1
   3850   7652   7648   7664     1  180.0000771  3.5564000  2
   3850   7652   7648   7664     1  0.0000000  0.4184000  3
   3853   7675   7671   7687     1  180.0000771  5.6484000  1
   3853   7675   7671   7687     1  180.0000771  3.5564000  2
   3853   7675   7671   7687     1  0.0000000  0.4184000  3
   3853   7675   7671   7670     1  180.0000771  0.4184000  2
   3853   7675   7671   7670     1  0.0000000  1.6024720  3
   3857   3858   3870   3882     1  0.0000000  0.6508444  3
   3857   3861   3873   3879     1  0.0000000  0.6508444  3
   3857   3864   3867   3876     1  0.0000000  0.6508444  3
   3858   3857   3861   3873     1  180.0000771  2.0083200  2
   3858   3857   3861   3873     1  0.0000000  1.2552000  3
   3858   3857   3864   3867     1  180.0000771  2.0083200  2
   3858   3857   3864   3867     1  0.0000000  1.2552000  3
   3858   3870   3882   7721     1  0.0000000  0.6508444  3
   3861   3857   3858   3870     1  180.0000771  2.0083200  2
   3861   3857   3858   3870     1  0.0000000  1.2552000  3
   3861   3857   3864   3867     1  180.0000771  2.0083200  2
   3861   3857   3864   3867     1  0.0000000  1.2552000  3
   3861   3873   3879   7698     1  0.0000000  0.6508444  3
   3864   3857   3858   3870     1  180.0000771  2.0083200  2
   3864   3857   3858   3870     1  0.0000000  1.2552000  3
   3864   3857   3861   3873     1  180.0000771  2.0083200  2
   3864   3857   3861   3873     1  0.0000000  1.2552000  3
   3864   3867   3876   3885     1  0.0000000  0.6508444  3
   3870   3882   7721   7717     1  180.0000771  0.4184000  2
   3870   3882   7721   7717     1  0.0000000  1.6024720  3
   3873   3879   7698   7694     1  180.0000771  0.4184000  2
   3873   3879   7698   7694     1  0.0000000  1.6024720  3
   3879   7698   7694   7693     1  180.0000771  0.4184000  2
   3879   7698   7694   7693     1  0.0000000  1.6024720  3
   3879   7698   7694   7710     1  180.0000771  5.6484000  1
   3879   7698   7694   7710     1  180.0000771  3.5564000  2
   3879   7698   7694   7710     1  0.0000000  0.4184000  3
   3882   7721   7717   7733     1  180.0000771  5.6484000  1
   3882   7721   7717   7733     1  180.0000771  3.5564000  2
   3882   7721   7717   7733     1  0.0000000  0.4184000  3
   3882   7721   7717   7716     1  180.0000771  0.4184000  2
   3882   7721   7717   7716     1  0.0000000  1.6024720  3
   3886   3887   3899   3911     1  0.0000000  0.6508444  3
   3886   3890   3902   3908     1  0.0000000  0.6508444  3
   3886   3893   3896   3905     1  0.0000000  0.6508444  3
   3887   3886   3890   3902     1  180.0000771  2.0083200  2
   3887   3886   3890   3902     1  0.0000000  1.2552000  3
   3887   3886   3893   3896     1  180.0000771  2.0083200  2
   3887   3886   3893   3896     1  0.0000000  1.2552000  3
   3887   3899   3911   7767     1  0.0000000  0.6508444  3
   3890   3886   3887   3899     1  180.0000771  2.0083200  2
   3890   3886   3887   3899     1  0.0000000  1.2552000  3
   3890   3886   3893   3896     1  180.0000771  2.0083200  2
   3890   3886   3893   3896     1  0.0000000  1.2552000  3
   3890   3902   3908   7744     1  0.0000000  0.6508444  3
   3893   3886   3887   3899     1  180.0000771  2.0083200  2
   3893   3886   3887   3899     1  0.0000000  1.2552000  3
   3893   3886   3890   3902     1  180.0000771  2.0083200  2
   3893   3886   3890   3902     1  0.0000000  1.2552000  3
   3893   3896   3905   3914     1  0.0000000  0.6508444  3
   3899   3911   7767   7763     1  180.0000771  0.4184000  2
   3899   3911   7767   7763     1  0.0000000  1.6024720  3
   3902   3908   7744   7740     1  180.0000771  0.4184000  2
   3902   3908   7744   7740     1  0.0000000  1.6024720  3
   3908   7744   7740   7739     1  180.0000771  0.4184000  2
   3908   7744   7740   7739     1  0.0000000  1.6024720  3
   3908   7744   7740   7756     1  180.0000771  5.6484000  1
   3908   7744   7740   7756     1  180.0000771  3.5564000  2
   3908   7744   7740   7756     1  0.0000000  0.4184000  3
   3911   7767   7763   7779     1  180.0000771  5.6484000  1
   3911   7767   7763   7779     1  180.0000771  3.5564000  2
   3911   7767   7763   7779     1  0.0000000  0.4184000  3
   3911   7767   7763   7762     1  180.0000771  0.4184000  2
   3911   7767   7763   7762     1  0.0000000  1.6024720  3
   3915   3916   3928   3940     1  0.0000000  0.6508444  3
   3915   3919   3931   3937     1  0.0000000  0.6508444  3
   3915   3922   3925   3934     1  0.0000000  0.6508444  3
   3916   3915   3919   3931     1  180.0000771  2.0083200  2
   3916   3915   3919   3931     1  0.0000000  1.2552000  3
   3916   3915   3922   3925     1  180.0000771  2.0083200  2
   3916   3915   3922   3925     1  0.0000000  1.2552000  3
   3916   3928   3940   7813     1  0.0000000  0.6508444  3
   3919   3915   3916   3928     1  180.0000771  2.0083200  2
   3919   3915   3916   3928     1  0.0000000  1.2552000  3
   3919   3915   3922   3925     1  180.0000771  2.0083200  2
   3919   3915   3922   3925     1  0.0000000  1.2552000  3
   3919   3931   3937   7790     1  0.0000000  0.6508444  3
   3922   3915   3916   3928     1  180.0000771  2.0083200  2
   3922   3915   3916   3928     1  0.0000000  1.2552000  3
   3922   3915   3919   3931     1  180.0000771  2.0083200  2
   3922   3915   3919   3931     1  0.0000000  1.2552000  3
   3922   3925   3934   3943     1  0.0000000  0.6508444  3
   3928   3940   7813   7809     1  180.0000771  0.4184000  2
   3928   3940   7813   7809     1  0.0000000  1.6024720  3
   3931   3937   7790   7786     1  180.0000771  0.4184000  2
   3931   3937   7790   7786     1  0.0000000  1.6024720  3
   3937   7790   7786   7785     1  180.0000771  0.4184000  2
   3937   7790   7786   7785     1  0.0000000  1.6024720  3
   3937   7790   7786   7802     1  180.0000771  5.6484000  1
   3937   7790   7786   7802     1  180.0000771  3.5564000  2
   3937   7790   7786   7802     1  0.0000000  0.4184000  3
   3940   7813   7809   7825     1  180.0000771  5.6484000  1
   3940   7813   7809   7825     1  180.0000771  3.5564000  2
   3940   7813   7809   7825     1  0.0000000  0.4184000  3
   3940   7813   7809   7808     1  180.0000771  0.4184000  2
   3940   7813   7809   7808     1  0.0000000  1.6024720  3
   3944   3945   3957   3969     1  0.0000000  0.6508444  3
   3944   3948   3960   3966     1  0.0000000  0.6508444  3
   3944   3951   3954   3963     1  0.0000000  0.6508444  3
   3945   3944   3948   3960     1  180.0000771  2.0083200  2
   3945   3944   3948   3960     1  0.0000000  1.2552000  3
   3945   3944   3951   3954     1  180.0000771  2.0083200  2
   3945   3944   3951   3954     1  0.0000000  1.2552000  3
   3945   3957   3969   7859     1  0.0000000  0.6508444  3
   3948   3944   3945   3957     1  180.0000771  2.0083200  2
   3948   3944   3945   3957     1  0.0000000  1.2552000  3
   3948   3944   3951   3954     1  180.0000771  2.0083200  2
   3948   3944   3951   3954     1  0.0000000  1.2552000  3
   3948   3960   3966   7836     1  0.0000000  0.6508444  3
   3951   3944   3945   3957     1  180.0000771  2.0083200  2
   3951   3944   3945   3957     1  0.0000000  1.2552000  3
   3951   3944   3948   3960     1  180.0000771  2.0083200  2
   3951   3944   3948   3960     1  0.0000000  1.2552000  3
   3951   3954   3963   3972     1  0.0000000  0.6508444  3
   3957   3969   7859   7855     1  180.0000771  0.4184000  2
   3957   3969   7859   7855     1  0.0000000  1.6024720  3
   3960   3966   7836   7832     1  180.0000771  0.4184000  2
   3960   3966   7836   7832     1  0.0000000  1.6024720  3
   3966   7836   7832   7831     1  180.0000771  0.4184000  2
   3966   7836   7832   7831     1  0.0000000  1.6024720  3
   3966   7836   7832   7848     1  180.0000771  5.6484000  1
   3966   7836   7832   7848     1  180.0000771  3.5564000  2
   3966   7836   7832   7848     1  0.0000000  0.4184000  3
   3969   7859   7855   7871     1  180.0000771  5.6484000  1
   3969   7859   7855   7871     1  180.0000771  3.5564000  2
   3969   7859   7855   7871     1  0.0000000  0.4184000  3
   3969   7859   7855   7854     1  180.0000771  0.4184000  2
   3969   7859   7855   7854     1  0.0000000  1.6024720  3
   3973   3974   3986   3998     1  0.0000000  0.6508444  3
   3973   3977   3989   3995     1  0.0000000  0.6508444  3
   3973   3980   3983   3992     1  0.0000000  0.6508444  3
   3974   3973   3977   3989     1  180.0000771  2.0083200  2
   3974   3973   3977   3989     1  0.0000000  1.2552000  3
   3974   3973   3980   3983     1  180.0000771  2.0083200  2
   3974   3973   3980   3983     1  0.0000000  1.2552000  3
   3974   3986   3998   7905     1  0.0000000  0.6508444  3
   3977   3973   3974   3986     1  180.0000771  2.0083200  2
   3977   3973   3974   3986     1  0.0000000  1.2552000  3
   3977   3973   3980   3983     1  180.0000771  2.0083200  2
   3977   3973   3980   3983     1  0.0000000  1.2552000  3
   3977   3989   3995   7882     1  0.0000000  0.6508444  3
   3980   3973   3974   3986     1  180.0000771  2.0083200  2
   3980   3973   3974   3986     1  0.0000000  1.2552000  3
   3980   3973   3977   3989     1  180.0000771  2.0083200  2
   3980   3973   3977   3989     1  0.0000000  1.2552000  3
   3980   3983   3992   4001     1  0.0000000  0.6508444  3
   3986   3998   7905   7901     1  180.0000771  0.4184000  2
   3986   3998   7905   7901     1  0.0000000  1.6024720  3
   3989   3995   7882   7878     1  180.0000771  0.4184000  2
   3989   3995   7882   7878     1  0.0000000  1.6024720  3
   3995   7882   7878   7877     1  180.0000771  0.4184000  2
   3995   7882   7878   7877     1  0.0000000  1.6024720  3
   3995   7882   7878   7894     1  180.0000771  5.6484000  1
   3995   7882   7878   7894     1  180.0000771  3.5564000  2
   3995   7882   7878   7894     1  0.0000000  0.4184000  3
   3998   7905   7901   7917     1  180.0000771  5.6484000  1
   3998   7905   7901   7917     1  180.0000771  3.5564000  2
   3998   7905   7901   7917     1  0.0000000  0.4184000  3
   3998   7905   7901   7900     1  180.0000771  0.4184000  2
   3998   7905   7901   7900     1  0.0000000  1.6024720  3
   4002   4003   4015   4027     1  0.0000000  0.6508444  3
   4002   4006   4018   4024     1  0.0000000  0.6508444  3
   4002   4009   4012   4021     1  0.0000000  0.6508444  3
   4003   4002   4006   4018     1  180.0000771  2.0083200  2
   4003   4002   4006   4018     1  0.0000000  1.2552000  3
   4003   4002   4009   4012     1  180.0000771  2.0083200  2
   4003   4002   4009   4012     1  0.0000000  1.2552000  3
   4003   4015   4027   7951     1  0.0000000  0.6508444  3
   4006   4002   4003   4015     1  180.0000771  2.0083200  2
   4006   4002   4003   4015     1  0.0000000  1.2552000  3
   4006   4002   4009   4012     1  180.0000771  2.0083200  2
   4006   4002   4009   4012     1  0.0000000  1.2552000  3
   4006   4018   4024   7928     1  0.0000000  0.6508444  3
   4009   4002   4003   4015     1  180.0000771  2.0083200  2
   4009   4002   4003   4015     1  0.0000000  1.2552000  3
   4009   4002   4006   4018     1  180.0000771  2.0083200  2
   4009   4002   4006   4018     1  0.0000000  1.2552000  3
   4009   4012   4021   4030     1  0.0000000  0.6508444  3
   4015   4027   7951   7947     1  180.0000771  0.4184000  2
   4015   4027   7951   7947     1  0.0000000  1.6024720  3
   4018   4024   7928   7924     1  180.0000771  0.4184000  2
   4018   4024   7928   7924     1  0.0000000  1.6024720  3
   4024   7928   7924   7923     1  180.0000771  0.4184000  2
   4024   7928   7924   7923     1  0.0000000  1.6024720  3
   4024   7928   7924   7940     1  180.0000771  5.6484000  1
   4024   7928   7924   7940     1  180.0000771  3.5564000  2
   4024   7928   7924   7940     1  0.0000000  0.4184000  3
   4027   7951   7947   7963     1  180.0000771  5.6484000  1
   4027   7951   7947   7963     1  180.0000771  3.5564000  2
   4027   7951   7947   7963     1  0.0000000  0.4184000  3
   4027   7951   7947   7946     1  180.0000771  0.4184000  2
   4027   7951   7947   7946     1  0.0000000  1.6024720  3
   4031   4032   4044   4056     1  0.0000000  0.6508444  3
   4031   4035   4047   4053     1  0.0000000  0.6508444  3
   4031   4038   4041   4050     1  0.0000000  0.6508444  3
   4032   4031   4035   4047     1  180.0000771  2.0083200  2
   4032   4031   4035   4047     1  0.0000000  1.2552000  3
   4032   4031   4038   4041     1  180.0000771  2.0083200  2
   4032   4031   4038   4041     1  0.0000000  1.2552000  3
   4032   4044   4056   7997     1  0.0000000  0.6508444  3
   4035   4031   4032   4044     1  180.0000771  2.0083200  2
   4035   4031   4032   4044     1  0.0000000  1.2552000  3
   4035   4031   4038   4041     1  180.0000771  2.0083200  2
   4035   4031   4038   4041     1  0.0000000  1.2552000  3
   4035   4047   4053   7974     1  0.0000000  0.6508444  3
   4038   4031   4032   4044     1  180.0000771  2.0083200  2
   4038   4031   4032   4044     1  0.0000000  1.2552000  3
   4038   4031   4035   4047     1  180.0000771  2.0083200  2
   4038   4031   4035   4047     1  0.0000000  1.2552000  3
   4038   4041   4050   4059     1  0.0000000  0.6508444  3
   4044   4056   7997   7993     1  180.0000771  0.4184000  2
   4044   4056   7997   7993     1  0.0000000  1.6024720  3
   4047   4053   7974   7970     1  180.0000771  0.4184000  2
   4047   4053   7974   7970     1  0.0000000  1.6024720  3
   4053   7974   7970   7969     1  180.0000771  0.4184000  2
   4053   7974   7970   7969     1  0.0000000  1.6024720  3
   4053   7974   7970   7986     1  180.0000771  5.6484000  1
   4053   7974   7970   7986     1  180.0000771  3.5564000  2
   4053   7974   7970   7986     1  0.0000000  0.4184000  3
   4056   7997   7993   8009     1  180.0000771  5.6484000  1
   4056   7997   7993   8009     1  180.0000771  3.5564000  2
   4056   7997   7993   8009     1  0.0000000  0.4184000  3
   4056   7997   7993   7992     1  180.0000771  0.4184000  2
   4056   7997   7993   7992     1  0.0000000  1.6024720  3
   4060   4061   4073   4085     1  0.0000000  0.6508444  3
   4060   4064   4076   4082     1  0.0000000  0.6508444  3
   4060   4067   4070   4079     1  0.0000000  0.6508444  3
   4061   4060   4064   4076     1  180.0000771  2.0083200  2
   4061   4060   4064   4076     1  0.0000000  1.2552000  3
   4061   4060   4067   4070     1  180.0000771  2.0083200  2
   4061   4060   4067   4070     1  0.0000000  1.2552000  3
   4061   4073   4085   8043     1  0.0000000  0.6508444  3
   4064   4060   4061   4073     1  180.0000771  2.0083200  2
   4064   4060   4061   4073     1  0.0000000  1.2552000  3
   4064   4060   4067   4070     1  180.0000771  2.0083200  2
   4064   4060   4067   4070     1  0.0000000  1.2552000  3
   4064   4076   4082   8020     1  0.0000000  0.6508444  3
   4067   4060   4061   4073     1  180.0000771  2.0083200  2
   4067   4060   4061   4073     1  0.0000000  1.2552000  3
   4067   4060   4064   4076     1  180.0000771  2.0083200  2
   4067   4060   4064   4076     1  0.0000000  1.2552000  3
   4067   4070   4079   4088     1  0.0000000  0.6508444  3
   4073   4085   8043   8039     1  180.0000771  0.4184000  2
   4073   4085   8043   8039     1  0.0000000  1.6024720  3
   4076   4082   8020   8016     1  180.0000771  0.4184000  2
   4076   4082   8020   8016     1  0.0000000  1.6024720  3
   4082   8020   8016   8015     1  180.0000771  0.4184000  2
   4082   8020   8016   8015     1  0.0000000  1.6024720  3
   4082   8020   8016   8032     1  180.0000771  5.6484000  1
   4082   8020   8016   8032     1  180.0000771  3.5564000  2
   4082   8020   8016   8032     1  0.0000000  0.4184000  3
   4085   8043   8039   8055     1  180.0000771  5.6484000  1
   4085   8043   8039   8055     1  180.0000771  3.5564000  2
   4085   8043   8039   8055     1  0.0000000  0.4184000  3
   4085   8043   8039   8038     1  180.0000771  0.4184000  2
   4085   8043   8039   8038     1  0.0000000  1.6024720  3
   4089   4090   4102   4114     1  0.0000000  0.6508444  3
   4089   4093   4105   4111     1  0.0000000  0.6508444  3
   4089   4096   4099   4108     1  0.0000000  0.6508444  3
   4090   4089   4093   4105     1  180.0000771  2.0083200  2
   4090   4089   4093   4105     1  0.0000000  1.2552000  3
   4090   4089   4096   4099     1  180.0000771  2.0083200  2
   4090   4089   4096   4099     1  0.0000000  1.2552000  3
   4090   4102   4114   8089     1  0.0000000  0.6508444  3
   4093   4089   4090   4102     1  180.0000771  2.0083200  2
   4093   4089   4090   4102     1  0.0000000  1.2552000  3
   4093   4089   4096   4099     1  180.0000771  2.0083200  2
   4093   4089   4096   4099     1  0.0000000  1.2552000  3
   4093   4105   4111   8066     1  0.0000000  0.6508444  3
   4096   4089   4090   4102     1  180.0000771  2.0083200  2
   4096   4089   4090   4102     1  0.0000000  1.2552000  3
   4096   4089   4093   4105     1  180.0000771  2.0083200  2
   4096   4089   4093   4105     1  0.0000000  1.2552000  3
   4096   4099   4108   4117     1  0.0000000  0.6508444  3
   4102   4114   8089   8085     1  180.0000771  0.4184000  2
   4102   4114   8089   8085     1  0.0000000  1.6024720  3
   4105   4111   8066   8062     1  180.0000771  0.4184000  2
   4105   4111   8066   8062     1  0.0000000  1.6024720  3
   4111   8066   8062   8061     1  180.0000771  0.4184000  2
   4111   8066   8062   8061     1  0.0000000  1.6024720  3
   4111   8066   8062   8078     1  180.0000771  5.6484000  1
   4111   8066   8062   8078     1  180.0000771  3.5564000  2
   4111   8066   8062   8078     1  0.0000000  0.4184000  3
   4114   8089   8085   8101     1  180.0000771  5.6484000  1
   4114   8089   8085   8101     1  180.0000771  3.5564000  2
   4114   8089   8085   8101     1  0.0000000  0.4184000  3
   4114   8089   8085   8084     1  180.0000771  0.4184000  2
   4114   8089   8085   8084     1  0.0000000  1.6024720  3
   4118   4119   4131   4143     1  0.0000000  0.6508444  3
   4118   4122   4134   4140     1  0.0000000  0.6508444  3
   4118   4125   4128   4137     1  0.0000000  0.6508444  3
   4119   4118   4122   4134     1  180.0000771  2.0083200  2
   4119   4118   4122   4134     1  0.0000000  1.2552000  3
   4119   4118   4125   4128     1  180.0000771  2.0083200  2
   4119   4118   4125   4128     1  0.0000000  1.2552000  3
   4119   4131   4143   8135     1  0.0000000  0.6508444  3
   4122   4118   4119   4131     1  180.0000771  2.0083200  2
   4122   4118   4119   4131     1  0.0000000  1.2552000  3
   4122   4118   4125   4128     1  180.0000771  2.0083200  2
   4122   4118   4125   4128     1  0.0000000  1.2552000  3
   4122   4134   4140   8112     1  0.0000000  0.6508444  3
   4125   4118   4119   4131     1  180.0000771  2.0083200  2
   4125   4118   4119   4131     1  0.0000000  1.2552000  3
   4125   4118   4122   4134     1  180.0000771  2.0083200  2
   4125   4118   4122   4134     1  0.0000000  1.2552000  3
   4125   4128   4137   4146     1  0.0000000  0.6508444  3
   4131   4143   8135   8131     1  180.0000771  0.4184000  2
   4131   4143   8135   8131     1  0.0000000  1.6024720  3
   4134   4140   8112   8108     1  180.0000771  0.4184000  2
   4134   4140   8112   8108     1  0.0000000  1.6024720  3
   4140   8112   8108   8107     1  180.0000771  0.4184000  2
   4140   8112   8108   8107     1  0.0000000  1.6024720  3
   4140   8112   8108   8124     1  180.0000771  5.6484000  1
   4140   8112   8108   8124     1  180.0000771  3.5564000  2
   4140   8112   8108   8124     1  0.0000000  0.4184000  3
   4143   8135   8131   8147     1  180.0000771  5.6484000  1
   4143   8135   8131   8147     1  180.0000771  3.5564000  2
   4143   8135   8131   8147     1  0.0000000  0.4184000  3
   4143   8135   8131   8130     1  180.0000771  0.4184000  2
   4143   8135   8131   8130     1  0.0000000  1.6024720  3
   4147   4148   4160   4172     1  0.0000000  0.6508444  3
   4147   4151   4163   4169     1  0.0000000  0.6508444  3
   4147   4154   4157   4166     1  0.0000000  0.6508444  3
   4148   4147   4151   4163     1  180.0000771  2.0083200  2
   4148   4147   4151   4163     1  0.0000000  1.2552000  3
   4148   4147   4154   4157     1  180.0000771  2.0083200  2
   4148   4147   4154   4157     1  0.0000000  1.2552000  3
   4148   4160   4172   8181     1  0.0000000  0.6508444  3
   4151   4147   4148   4160     1  180.0000771  2.0083200  2
   4151   4147   4148   4160     1  0.0000000  1.2552000  3
   4151   4147   4154   4157     1  180.0000771  2.0083200  2
   4151   4147   4154   4157     1  0.0000000  1.2552000  3
   4151   4163   4169   8158     1  0.0000000  0.6508444  3
   4154   4147   4148   4160     1  180.0000771  2.0083200  2
   4154   4147   4148   4160     1  0.0000000  1.2552000  3
   4154   4147   4151   4163     1  180.0000771  2.0083200  2
   4154   4147   4151   4163     1  0.0000000  1.2552000  3
   4154   4157   4166   4175     1  0.0000000  0.6508444  3
   4160   4172   8181   8177     1  180.0000771  0.4184000  2
   4160   4172   8181   8177     1  0.0000000  1.6024720  3
   4163   4169   8158   8154     1  180.0000771  0.4184000  2
   4163   4169   8158   8154     1  0.0000000  1.6024720  3
   4169   8158   8154   8153     1  180.0000771  0.4184000  2
   4169   8158   8154   8153     1  0.0000000  1.6024720  3
   4169   8158   8154   8170     1  180.0000771  5.6484000  1
   4169   8158   8154   8170     1  180.0000771  3.5564000  2
   4169   8158   8154   8170     1  0.0000000  0.4184000  3
   4172   8181   8177   8193     1  180.0000771  5.6484000  1
   4172   8181   8177   8193     1  180.0000771  3.5564000  2
   4172   8181   8177   8193     1  0.0000000  0.4184000  3
   4172   8181   8177   8176     1  180.0000771  0.4184000  2
   4172   8181   8177   8176     1  0.0000000  1.6024720  3
   4176   4177   4189   4201     1  0.0000000  0.6508444  3
   4176   4180   4192   4198     1  0.0000000  0.6508444  3
   4176   4183   4186   4195     1  0.0000000  0.6508444  3
   4177   4176   4180   4192     1  180.0000771  2.0083200  2
   4177   4176   4180   4192     1  0.0000000  1.2552000  3
   4177   4176   4183   4186     1  180.0000771  2.0083200  2
   4177   4176   4183   4186     1  0.0000000  1.2552000  3
   4177   4189   4201   8227     1  0.0000000  0.6508444  3
   4180   4176   4177   4189     1  180.0000771  2.0083200  2
   4180   4176   4177   4189     1  0.0000000  1.2552000  3
   4180   4176   4183   4186     1  180.0000771  2.0083200  2
   4180   4176   4183   4186     1  0.0000000  1.2552000  3
   4180   4192   4198   8204     1  0.0000000  0.6508444  3
   4183   4176   4177   4189     1  180.0000771  2.0083200  2
   4183   4176   4177   4189     1  0.0000000  1.2552000  3
   4183   4176   4180   4192     1  180.0000771  2.0083200  2
   4183   4176   4180   4192     1  0.0000000  1.2552000  3
   4183   4186   4195   4204     1  0.0000000  0.6508444  3
   4189   4201   8227   8223     1  180.0000771  0.4184000  2
   4189   4201   8227   8223     1  0.0000000  1.6024720  3
   4192   4198   8204   8200     1  180.0000771  0.4184000  2
   4192   4198   8204   8200     1  0.0000000  1.6024720  3
   4198   8204   8200   8199     1  180.0000771  0.4184000  2
   4198   8204   8200   8199     1  0.0000000  1.6024720  3
   4198   8204   8200   8216     1  180.0000771  5.6484000  1
   4198   8204   8200   8216     1  180.0000771  3.5564000  2
   4198   8204   8200   8216     1  0.0000000  0.4184000  3
   4201   8227   8223   8239     1  180.0000771  5.6484000  1
   4201   8227   8223   8239     1  180.0000771  3.5564000  2
   4201   8227   8223   8239     1  0.0000000  0.4184000  3
   4201   8227   8223   8222     1  180.0000771  0.4184000  2
   4201   8227   8223   8222     1  0.0000000  1.6024720  3
   4205   4206   4218   4230     1  0.0000000  0.6508444  3
   4205   4209   4221   4227     1  0.0000000  0.6508444  3
   4205   4212   4215   4224     1  0.0000000  0.6508444  3
   4206   4205   4209   4221     1  180.0000771  2.0083200  2
   4206   4205   4209   4221     1  0.0000000  1.2552000  3
   4206   4205   4212   4215     1  180.0000771  2.0083200  2
   4206   4205   4212   4215     1  0.0000000  1.2552000  3
   4206   4218   4230   8273     1  0.0000000  0.6508444  3
   4209   4205   4206   4218     1  180.0000771  2.0083200  2
   4209   4205   4206   4218     1  0.0000000  1.2552000  3
   4209   4205   4212   4215     1  180.0000771  2.0083200  2
   4209   4205   4212   4215     1  0.0000000  1.2552000  3
   4209   4221   4227   8250     1  0.0000000  0.6508444  3
   4212   4205   4206   4218     1  180.0000771  2.0083200  2
   4212   4205   4206   4218     1  0.0000000  1.2552000  3
   4212   4205   4209   4221     1  180.0000771  2.0083200  2
   4212   4205   4209   4221     1  0.0000000  1.2552000  3
   4212   4215   4224   4233     1  0.0000000  0.6508444  3
   4218   4230   8273   8269     1  180.0000771  0.4184000  2
   4218   4230   8273   8269     1  0.0000000  1.6024720  3
   4221   4227   8250   8246     1  180.0000771  0.4184000  2
   4221   4227   8250   8246     1  0.0000000  1.6024720  3
   4227   8250   8246   8245     1  180.0000771  0.4184000  2
   4227   8250   8246   8245     1  0.0000000  1.6024720  3
   4227   8250   8246   8262     1  180.0000771  5.6484000  1
   4227   8250   8246   8262     1  180.0000771  3.5564000  2
   4227   8250   8246   8262     1  0.0000000  0.4184000  3
   4230   8273   8269   8285     1  180.0000771  5.6484000  1
   4230   8273   8269   8285     1  180.0000771  3.5564000  2
   4230   8273   8269   8285     1  0.0000000  0.4184000  3
   4230   8273   8269   8268     1  180.0000771  0.4184000  2
   4230   8273   8269   8268     1  0.0000000  1.6024720  3
   4234   4235   4247   4259     1  0.0000000  0.6508444  3
   4234   4238   4250   4256     1  0.0000000  0.6508444  3
   4234   4241   4244   4253     1  0.0000000  0.6508444  3
   4235   4234   4238   4250     1  180.0000771  2.0083200  2
   4235   4234   4238   4250     1  0.0000000  1.2552000  3
   4235   4234   4241   4244     1  180.0000771  2.0083200  2
   4235   4234   4241   4244     1  0.0000000  1.2552000  3
   4235   4247   4259   8319     1  0.0000000  0.6508444  3
   4238   4234   4235   4247     1  180.0000771  2.0083200  2
   4238   4234   4235   4247     1  0.0000000  1.2552000  3
   4238   4234   4241   4244     1  180.0000771  2.0083200  2
   4238   4234   4241   4244     1  0.0000000  1.2552000  3
   4238   4250   4256   8296     1  0.0000000  0.6508444  3
   4241   4234   4235   4247     1  180.0000771  2.0083200  2
   4241   4234   4235   4247     1  0.0000000  1.2552000  3
   4241   4234   4238   4250     1  180.0000771  2.0083200  2
   4241   4234   4238   4250     1  0.0000000  1.2552000  3
   4241   4244   4253   4262     1  0.0000000  0.6508444  3
   4247   4259   8319   8315     1  180.0000771  0.4184000  2
   4247   4259   8319   8315     1  0.0000000  1.6024720  3
   4250   4256   8296   8292     1  180.0000771  0.4184000  2
   4250   4256   8296   8292     1  0.0000000  1.6024720  3
   4256   8296   8292   8291     1  180.0000771  0.4184000  2
   4256   8296   8292   8291     1  0.0000000  1.6024720  3
   4256   8296   8292   8308     1  180.0000771  5.6484000  1
   4256   8296   8292   8308     1  180.0000771  3.5564000  2
   4256   8296   8292   8308     1  0.0000000  0.4184000  3
   4259   8319   8315   8331     1  180.0000771  5.6484000  1
   4259   8319   8315   8331     1  180.0000771  3.5564000  2
   4259   8319   8315   8331     1  0.0000000  0.4184000  3
   4259   8319   8315   8314     1  180.0000771  0.4184000  2
   4259   8319   8315   8314     1  0.0000000  1.6024720  3
   4263   4264   4276   4288     1  0.0000000  0.6508444  3
   4263   4267   4279   4285     1  0.0000000  0.6508444  3
   4263   4270   4273   4282     1  0.0000000  0.6508444  3
   4264   4263   4267   4279     1  180.0000771  2.0083200  2
   4264   4263   4267   4279     1  0.0000000  1.2552000  3
   4264   4263   4270   4273     1  180.0000771  2.0083200  2
   4264   4263   4270   4273     1  0.0000000  1.2552000  3
   4264   4276   4288   8365     1  0.0000000  0.6508444  3
   4267   4263   4264   4276     1  180.0000771  2.0083200  2
   4267   4263   4264   4276     1  0.0000000  1.2552000  3
   4267   4263   4270   4273     1  180.0000771  2.0083200  2
   4267   4263   4270   4273     1  0.0000000  1.2552000  3
   4267   4279   4285   8342     1  0.0000000  0.6508444  3
   4270   4263   4264   4276     1  180.0000771  2.0083200  2
   4270   4263   4264   4276     1  0.0000000  1.2552000  3
   4270   4263   4267   4279     1  180.0000771  2.0083200  2
   4270   4263   4267   4279     1  0.0000000  1.2552000  3
   4270   4273   4282   4291     1  0.0000000  0.6508444  3
   4276   4288   8365   8361     1  180.0000771  0.4184000  2
   4276   4288   8365   8361     1  0.0000000  1.6024720  3
   4279   4285   8342   8338     1  180.0000771  0.4184000  2
   4279   4285   8342   8338     1  0.0000000  1.6024720  3
   4285   8342   8338   8337     1  180.0000771  0.4184000  2
   4285   8342   8338   8337     1  0.0000000  1.6024720  3
   4285   8342   8338   8354     1  180.0000771  5.6484000  1
   4285   8342   8338   8354     1  180.0000771  3.5564000  2
   4285   8342   8338   8354     1  0.0000000  0.4184000  3
   4288   8365   8361   8377     1  180.0000771  5.6484000  1
   4288   8365   8361   8377     1  180.0000771  3.5564000  2
   4288   8365   8361   8377     1  0.0000000  0.4184000  3
   4288   8365   8361   8360     1  180.0000771  0.4184000  2
   4288   8365   8361   8360     1  0.0000000  1.6024720  3
   4292   4293   4305   4317     1  0.0000000  0.6508444  3
   4292   4296   4308   4314     1  0.0000000  0.6508444  3
   4292   4299   4302   4311     1  0.0000000  0.6508444  3
   4293   4292   4296   4308     1  180.0000771  2.0083200  2
   4293   4292   4296   4308     1  0.0000000  1.2552000  3
   4293   4292   4299   4302     1  180.0000771  2.0083200  2
   4293   4292   4299   4302     1  0.0000000  1.2552000  3
   4293   4305   4317   8411     1  0.0000000  0.6508444  3
   4296   4292   4293   4305     1  180.0000771  2.0083200  2
   4296   4292   4293   4305     1  0.0000000  1.2552000  3
   4296   4292   4299   4302     1  180.0000771  2.0083200  2
   4296   4292   4299   4302     1  0.0000000  1.2552000  3
   4296   4308   4314   8388     1  0.0000000  0.6508444  3
   4299   4292   4293   4305     1  180.0000771  2.0083200  2
   4299   4292   4293   4305     1  0.0000000  1.2552000  3
   4299   4292   4296   4308     1  180.0000771  2.0083200  2
   4299   4292   4296   4308     1  0.0000000  1.2552000  3
   4299   4302   4311   4320     1  0.0000000  0.6508444  3
   4305   4317   8411   8407     1  180.0000771  0.4184000  2
   4305   4317   8411   8407     1  0.0000000  1.6024720  3
   4308   4314   8388   8384     1  180.0000771  0.4184000  2
   4308   4314   8388   8384     1  0.0000000  1.6024720  3
   4314   8388   8384   8383     1  180.0000771  0.4184000  2
   4314   8388   8384   8383     1  0.0000000  1.6024720  3
   4314   8388   8384   8400     1  180.0000771  5.6484000  1
   4314   8388   8384   8400     1  180.0000771  3.5564000  2
   4314   8388   8384   8400     1  0.0000000  0.4184000  3
   4317   8411   8407   8423     1  180.0000771  5.6484000  1
   4317   8411   8407   8423     1  180.0000771  3.5564000  2
   4317   8411   8407   8423     1  0.0000000  0.4184000  3
   4317   8411   8407   8406     1  180.0000771  0.4184000  2
   4317   8411   8407   8406     1  0.0000000  1.6024720  3
   4321   4322   4334   4346     1  0.0000000  0.6508444  3
   4321   4325   4337   4343     1  0.0000000  0.6508444  3
   4321   4328   4331   4340     1  0.0000000  0.6508444  3
   4322   4321   4325   4337     1  180.0000771  2.0083200  2
   4322   4321   4325   4337     1  0.0000000  1.2552000  3
   4322   4321   4328   4331     1  180.0000771  2.0083200  2
   4322   4321   4328   4331     1  0.0000000  1.2552000  3
   4322   4334   4346   8457     1  0.0000000  0.6508444  3
   4325   4321   4322   4334     1  180.0000771  2.0083200  2
   4325   4321   4322   4334     1  0.0000000  1.2552000  3
   4325   4321   4328   4331     1  180.0000771  2.0083200  2
   4325   4321   4328   4331     1  0.0000000  1.2552000  3
   4325   4337   4343   8434     1  0.0000000  0.6508444  3
   4328   4321   4322   4334     1  180.0000771  2.0083200  2
   4328   4321   4322   4334     1  0.0000000  1.2552000  3
   4328   4321   4325   4337     1  180.0000771  2.0083200  2
   4328   4321   4325   4337     1  0.0000000  1.2552000  3
   4328   4331   4340   4349     1  0.0000000  0.6508444  3
   4334   4346   8457   8453     1  180.0000771  0.4184000  2
   4334   4346   8457   8453     1  0.0000000  1.6024720  3
   4337   4343   8434   8430     1  180.0000771  0.4184000  2
   4337   4343   8434   8430     1  0.0000000  1.6024720  3
   4343   8434   8430   8429     1  180.0000771  0.4184000  2
   4343   8434   8430   8429     1  0.0000000  1.6024720  3
   4343   8434   8430   8446     1  180.0000771  5.6484000  1
   4343   8434   8430   8446     1  180.0000771  3.5564000  2
   4343   8434   8430   8446     1  0.0000000  0.4184000  3
   4346   8457   8453   8469     1  180.0000771  5.6484000  1
   4346   8457   8453   8469     1  180.0000771  3.5564000  2
   4346   8457   8453   8469     1  0.0000000  0.4184000  3
   4346   8457   8453   8452     1  180.0000771  0.4184000  2
   4346   8457   8453   8452     1  0.0000000  1.6024720  3
   4350   4351   4363   4375     1  0.0000000  0.6508444  3
   4350   4354   4366   4372     1  0.0000000  0.6508444  3
   4350   4357   4360   4369     1  0.0000000  0.6508444  3
   4351   4350   4354   4366     1  180.0000771  2.0083200  2
   4351   4350   4354   4366     1  0.0000000  1.2552000  3
   4351   4350   4357   4360     1  180.0000771  2.0083200  2
   4351   4350   4357   4360     1  0.0000000  1.2552000  3
   4351   4363   4375   8503     1  0.0000000  0.6508444  3
   4354   4350   4351   4363     1  180.0000771  2.0083200  2
   4354   4350   4351   4363     1  0.0000000  1.2552000  3
   4354   4350   4357   4360     1  180.0000771  2.0083200  2
   4354   4350   4357   4360     1  0.0000000  1.2552000  3
   4354   4366   4372   8480     1  0.0000000  0.6508444  3
   4357   4350   4351   4363     1  180.0000771  2.0083200  2
   4357   4350   4351   4363     1  0.0000000  1.2552000  3
   4357   4350   4354   4366     1  180.0000771  2.0083200  2
   4357   4350   4354   4366     1  0.0000000  1.2552000  3
   4357   4360   4369   4378     1  0.0000000  0.6508444  3
   4363   4375   8503   8499     1  180.0000771  0.4184000  2
   4363   4375   8503   8499     1  0.0000000  1.6024720  3
   4366   4372   8480   8476     1  180.0000771  0.4184000  2
   4366   4372   8480   8476     1  0.0000000  1.6024720  3
   4372   8480   8476   8475     1  180.0000771  0.4184000  2
   4372   8480   8476   8475     1  0.0000000  1.6024720  3
   4372   8480   8476   8492     1  180.0000771  5.6484000  1
   4372   8480   8476   8492     1  180.0000771  3.5564000  2
   4372   8480   8476   8492     1  0.0000000  0.4184000  3
   4375   8503   8499   8515     1  180.0000771  5.6484000  1
   4375   8503   8499   8515     1  180.0000771  3.5564000  2
   4375   8503   8499   8515     1  0.0000000  0.4184000  3
   4375   8503   8499   8498     1  180.0000771  0.4184000  2
   4375   8503   8499   8498     1  0.0000000  1.6024720  3
   4379   4380   4392   4404     1  0.0000000  0.6508444  3
   4379   4383   4395   4401     1  0.0000000  0.6508444  3
   4379   4386   4389   4398     1  0.0000000  0.6508444  3
   4380   4379   4383   4395     1  180.0000771  2.0083200  2
   4380   4379   4383   4395     1  0.0000000  1.2552000  3
   4380   4379   4386   4389     1  180.0000771  2.0083200  2
   4380   4379   4386   4389     1  0.0000000  1.2552000  3
   4380   4392   4404   8549     1  0.0000000  0.6508444  3
   4383   4379   4380   4392     1  180.0000771  2.0083200  2
   4383   4379   4380   4392     1  0.0000000  1.2552000  3
   4383   4379   4386   4389     1  180.0000771  2.0083200  2
   4383   4379   4386   4389     1  0.0000000  1.2552000  3
   4383   4395   4401   8526     1  0.0000000  0.6508444  3
   4386   4379   4380   4392     1  180.0000771  2.0083200  2
   4386   4379   4380   4392     1  0.0000000  1.2552000  3
   4386   4379   4383   4395     1  180.0000771  2.0083200  2
   4386   4379   4383   4395     1  0.0000000  1.2552000  3
   4386   4389   4398   4407     1  0.0000000  0.6508444  3
   4392   4404   8549   8545     1  180.0000771  0.4184000  2
   4392   4404   8549   8545     1  0.0000000  1.6024720  3
   4395   4401   8526   8522     1  180.0000771  0.4184000  2
   4395   4401   8526   8522     1  0.0000000  1.6024720  3
   4401   8526   8522   8521     1  180.0000771  0.4184000  2
   4401   8526   8522   8521     1  0.0000000  1.6024720  3
   4401   8526   8522   8538     1  180.0000771  5.6484000  1
   4401   8526   8522   8538     1  180.0000771  3.5564000  2
   4401   8526   8522   8538     1  0.0000000  0.4184000  3
   4404   8549   8545   8561     1  180.0000771  5.6484000  1
   4404   8549   8545   8561     1  180.0000771  3.5564000  2
   4404   8549   8545   8561     1  0.0000000  0.4184000  3
   4404   8549   8545   8544     1  180.0000771  0.4184000  2
   4404   8549   8545   8544     1  0.0000000  1.6024720  3
   4408   4409   4421   4433     1  0.0000000  0.6508444  3
   4408   4412   4424   4430     1  0.0000000  0.6508444  3
   4408   4415   4418   4427     1  0.0000000  0.6508444  3
   4409   4408   4412   4424     1  180.0000771  2.0083200  2
   4409   4408   4412   4424     1  0.0000000  1.2552000  3
   4409   4408   4415   4418     1  180.0000771  2.0083200  2
   4409   4408   4415   4418     1  0.0000000  1.2552000  3
   4409   4421   4433   8595     1  0.0000000  0.6508444  3
   4412   4408   4409   4421     1  180.0000771  2.0083200  2
   4412   4408   4409   4421     1  0.0000000  1.2552000  3
   4412   4408   4415   4418     1  180.0000771  2.0083200  2
   4412   4408   4415   4418     1  0.0000000  1.2552000  3
   4412   4424   4430   8572     1  0.0000000  0.6508444  3
   4415   4408   4409   4421     1  180.0000771  2.0083200  2
   4415   4408   4409   4421     1  0.0000000  1.2552000  3
   4415   4408   4412   4424     1  180.0000771  2.0083200  2
   4415   4408   4412   4424     1  0.0000000  1.2552000  3
   4415   4418   4427   4436     1  0.0000000  0.6508444  3
   4421   4433   8595   8591     1  180.0000771  0.4184000  2
   4421   4433   8595   8591     1  0.0000000  1.6024720  3
   4424   4430   8572   8568     1  180.0000771  0.4184000  2
   4424   4430   8572   8568     1  0.0000000  1.6024720  3
   4430   8572   8568   8567     1  180.0000771  0.4184000  2
   4430   8572   8568   8567     1  0.0000000  1.6024720  3
   4430   8572   8568   8584     1  180.0000771  5.6484000  1
   4430   8572   8568   8584     1  180.0000771  3.5564000  2
   4430   8572   8568   8584     1  0.0000000  0.4184000  3
   4433   8595   8591   8607     1  180.0000771  5.6484000  1
   4433   8595   8591   8607     1  180.0000771  3.5564000  2
   4433   8595   8591   8607     1  0.0000000  0.4184000  3
   4433   8595   8591   8590     1  180.0000771  0.4184000  2
   4433   8595   8591   8590     1  0.0000000  1.6024720  3
   4437   4438   4450   4462     1  0.0000000  0.6508444  3
   4437   4441   4453   4459     1  0.0000000  0.6508444  3
   4437   4444   4447   4456     1  0.0000000  0.6508444  3
   4438   4437   4441   4453     1  180.0000771  2.0083200  2
   4438   4437   4441   4453     1  0.0000000  1.2552000  3
   4438   4437   4444   4447     1  180.0000771  2.0083200  2
   4438   4437   4444   4447     1  0.0000000  1.2552000  3
   4438   4450   4462   8641     1  0.0000000  0.6508444  3
   4441   4437   4438   4450     1  180.0000771  2.0083200  2
   4441   4437   4438   4450     1  0.0000000  1.2552000  3
   4441   4437   4444   4447     1  180.0000771  2.0083200  2
   4441   4437   4444   4447     1  0.0000000  1.2552000  3
   4441   4453   4459   8618     1  0.0000000  0.6508444  3
   4444   4437   4438   4450     1  180.0000771  2.0083200  2
   4444   4437   4438   4450     1  0.0000000  1.2552000  3
   4444   4437   4441   4453     1  180.0000771  2.0083200  2
   4444   4437   4441   4453     1  0.0000000  1.2552000  3
   4444   4447   4456   4465     1  0.0000000  0.6508444  3
   4450   4462   8641   8637     1  180.0000771  0.4184000  2
   4450   4462   8641   8637     1  0.0000000  1.6024720  3
   4453   4459   8618   8614     1  180.0000771  0.4184000  2
   4453   4459   8618   8614     1  0.0000000  1.6024720  3
   4459   8618   8614   8613     1  180.0000771  0.4184000  2
   4459   8618   8614   8613     1  0.0000000  1.6024720  3
   4459   8618   8614   8630     1  180.0000771  5.6484000  1
   4459   8618   8614   8630     1  180.0000771  3.5564000  2
   4459   8618   8614   8630     1  0.0000000  0.4184000  3
   4462   8641   8637   8653     1  180.0000771  5.6484000  1
   4462   8641   8637   8653     1  180.0000771  3.5564000  2
   4462   8641   8637   8653     1  0.0000000  0.4184000  3
   4462   8641   8637   8636     1  180.0000771  0.4184000  2
   4462   8641   8637   8636     1  0.0000000  1.6024720  3
   4466   4467   4479   4491     1  0.0000000  0.6508444  3
   4466   4470   4482   4488     1  0.0000000  0.6508444  3
   4466   4473   4476   4485     1  0.0000000  0.6508444  3
   4467   4466   4470   4482     1  180.0000771  2.0083200  2
   4467   4466   4470   4482     1  0.0000000  1.2552000  3
   4467   4466   4473   4476     1  180.0000771  2.0083200  2
   4467   4466   4473   4476     1  0.0000000  1.2552000  3
   4467   4479   4491   8687     1  0.0000000  0.6508444  3
   4470   4466   4467   4479     1  180.0000771  2.0083200  2
   4470   4466   4467   4479     1  0.0000000  1.2552000  3
   4470   4466   4473   4476     1  180.0000771  2.0083200  2
   4470   4466   4473   4476     1  0.0000000  1.2552000  3
   4470   4482   4488   8664     1  0.0000000  0.6508444  3
   4473   4466   4467   4479     1  180.0000771  2.0083200  2
   4473   4466   4467   4479     1  0.0000000  1.2552000  3
   4473   4466   4470   4482     1  180.0000771  2.0083200  2
   4473   4466   4470   4482     1  0.0000000  1.2552000  3
   4473   4476   4485   4494     1  0.0000000  0.6508444  3
   4479   4491   8687   8683     1  180.0000771  0.4184000  2
   4479   4491   8687   8683     1  0.0000000  1.6024720  3
   4482   4488   8664   8660     1  180.0000771  0.4184000  2
   4482   4488   8664   8660     1  0.0000000  1.6024720  3
   4488   8664   8660   8659     1  180.0000771  0.4184000  2
   4488   8664   8660   8659     1  0.0000000  1.6024720  3
   4488   8664   8660   8676     1  180.0000771  5.6484000  1
   4488   8664   8660   8676     1  180.0000771  3.5564000  2
   4488   8664   8660   8676     1  0.0000000  0.4184000  3
   4491   8687   8683   8699     1  180.0000771  5.6484000  1
   4491   8687   8683   8699     1  180.0000771  3.5564000  2
   4491   8687   8683   8699     1  0.0000000  0.4184000  3
   4491   8687   8683   8682     1  180.0000771  0.4184000  2
   4491   8687   8683   8682     1  0.0000000  1.6024720  3
   4495   4496   4508   4520     1  0.0000000  0.6508444  3
   4495   4499   4511   4517     1  0.0000000  0.6508444  3
   4495   4502   4505   4514     1  0.0000000  0.6508444  3
   4496   4495   4499   4511     1  180.0000771  2.0083200  2
   4496   4495   4499   4511     1  0.0000000  1.2552000  3
   4496   4495   4502   4505     1  180.0000771  2.0083200  2
   4496   4495   4502   4505     1  0.0000000  1.2552000  3
   4496   4508   4520   8733     1  0.0000000  0.6508444  3
   4499   4495   4496   4508     1  180.0000771  2.0083200  2
   4499   4495   4496   4508     1  0.0000000  1.2552000  3
   4499   4495   4502   4505     1  180.0000771  2.0083200  2
   4499   4495   4502   4505     1  0.0000000  1.2552000  3
   4499   4511   4517   8710     1  0.0000000  0.6508444  3
   4502   4495   4496   4508     1  180.0000771  2.0083200  2
   4502   4495   4496   4508     1  0.0000000  1.2552000  3
   4502   4495   4499   4511     1  180.0000771  2.0083200  2
   4502   4495   4499   4511     1  0.0000000  1.2552000  3
   4502   4505   4514   4523     1  0.0000000  0.6508444  3
   4508   4520   8733   8729     1  180.0000771  0.4184000  2
   4508   4520   8733   8729     1  0.0000000  1.6024720  3
   4511   4517   8710   8706     1  180.0000771  0.4184000  2
   4511   4517   8710   8706     1  0.0000000  1.6024720  3
   4517   8710   8706   8705     1  180.0000771  0.4184000  2
   4517   8710   8706   8705     1  0.0000000  1.6024720  3
   4517   8710   8706   8722     1  180.0000771  5.6484000  1
   4517   8710   8706   8722     1  180.0000771  3.5564000  2
   4517   8710   8706   8722     1  0.0000000  0.4184000  3
   4520   8733   8729   8745     1  180.0000771  5.6484000  1
   4520   8733   8729   8745     1  180.0000771  3.5564000  2
   4520   8733   8729   8745     1  0.0000000  0.4184000  3
   4520   8733   8729   8728     1  180.0000771  0.4184000  2
   4520   8733   8729   8728     1  0.0000000  1.6024720  3
   4524   4525   4537   4549     1  0.0000000  0.6508444  3
   4524   4528   4540   4546     1  0.0000000  0.6508444  3
   4524   4531   4534   4543     1  0.0000000  0.6508444  3
   4525   4524   4528   4540     1  180.0000771  2.0083200  2
   4525   4524   4528   4540     1  0.0000000  1.2552000  3
   4525   4524   4531   4534     1  180.0000771  2.0083200  2
   4525   4524   4531   4534     1  0.0000000  1.2552000  3
   4525   4537   4549   8779     1  0.0000000  0.6508444  3
   4528   4524   4525   4537     1  180.0000771  2.0083200  2
   4528   4524   4525   4537     1  0.0000000  1.2552000  3
   4528   4524   4531   4534     1  180.0000771  2.0083200  2
   4528   4524   4531   4534     1  0.0000000  1.2552000  3
   4528   4540   4546   8756     1  0.0000000  0.6508444  3
   4531   4524   4525   4537     1  180.0000771  2.0083200  2
   4531   4524   4525   4537     1  0.0000000  1.2552000  3
   4531   4524   4528   4540     1  180.0000771  2.0083200  2
   4531   4524   4528   4540     1  0.0000000  1.2552000  3
   4531   4534   4543   4552     1  0.0000000  0.6508444  3
   4537   4549   8779   8775     1  180.0000771  0.4184000  2
   4537   4549   8779   8775     1  0.0000000  1.6024720  3
   4540   4546   8756   8752     1  180.0000771  0.4184000  2
   4540   4546   8756   8752     1  0.0000000  1.6024720  3
   4546   8756   8752   8751     1  180.0000771  0.4184000  2
   4546   8756   8752   8751     1  0.0000000  1.6024720  3
   4546   8756   8752   8768     1  180.0000771  5.6484000  1
   4546   8756   8752   8768     1  180.0000771  3.5564000  2
   4546   8756   8752   8768     1  0.0000000  0.4184000  3
   4549   8779   8775   8791     1  180.0000771  5.6484000  1
   4549   8779   8775   8791     1  180.0000771  3.5564000  2
   4549   8779   8775   8791     1  0.0000000  0.4184000  3
   4549   8779   8775   8774     1  180.0000771  0.4184000  2
   4549   8779   8775   8774     1  0.0000000  1.6024720  3
   4553   4554   4566   4578     1  0.0000000  0.6508444  3
   4553   4557   4569   4575     1  0.0000000  0.6508444  3
   4553   4560   4563   4572     1  0.0000000  0.6508444  3
   4554   4553   4557   4569     1  180.0000771  2.0083200  2
   4554   4553   4557   4569     1  0.0000000  1.2552000  3
   4554   4553   4560   4563     1  180.0000771  2.0083200  2
   4554   4553   4560   4563     1  0.0000000  1.2552000  3
   4554   4566   4578   8825     1  0.0000000  0.6508444  3
   4557   4553   4554   4566     1  180.0000771  2.0083200  2
   4557   4553   4554   4566     1  0.0000000  1.2552000  3
   4557   4553   4560   4563     1  180.0000771  2.0083200  2
   4557   4553   4560   4563     1  0.0000000  1.2552000  3
   4557   4569   4575   8802     1  0.0000000  0.6508444  3
   4560   4553   4554   4566     1  180.0000771  2.0083200  2
   4560   4553   4554   4566     1  0.0000000  1.2552000  3
   4560   4553   4557   4569     1  180.0000771  2.0083200  2
   4560   4553   4557   4569     1  0.0000000  1.2552000  3
   4560   4563   4572   4581     1  0.0000000  0.6508444  3
   4566   4578   8825   8821     1  180.0000771  0.4184000  2
   4566   4578   8825   8821     1  0.0000000  1.6024720  3
   4569   4575   8802   8798     1  180.0000771  0.4184000  2
   4569   4575   8802   8798     1  0.0000000  1.6024720  3
   4575   8802   8798   8797     1  180.0000771  0.4184000  2
   4575   8802   8798   8797     1  0.0000000  1.6024720  3
   4575   8802   8798   8814     1  180.0000771  5.6484000  1
   4575   8802   8798   8814     1  180.0000771  3.5564000  2
   4575   8802   8798   8814     1  0.0000000  0.4184000  3
   4578   8825   8821   8837     1  180.0000771  5.6484000  1
   4578   8825   8821   8837     1  180.0000771  3.5564000  2
   4578   8825   8821   8837     1  0.0000000  0.4184000  3
   4578   8825   8821   8820     1  180.0000771  0.4184000  2
   4578   8825   8821   8820     1  0.0000000  1.6024720  3
   4582   4583   4595   4607     1  0.0000000  0.6508444  3
   4582   4586   4598   4604     1  0.0000000  0.6508444  3
   4582   4589   4592   4601     1  0.0000000  0.6508444  3
   4583   4582   4586   4598     1  180.0000771  2.0083200  2
   4583   4582   4586   4598     1  0.0000000  1.2552000  3
   4583   4582   4589   4592     1  180.0000771  2.0083200  2
   4583   4582   4589   4592     1  0.0000000  1.2552000  3
   4583   4595   4607   8871     1  0.0000000  0.6508444  3
   4586   4582   4583   4595     1  180.0000771  2.0083200  2
   4586   4582   4583   4595     1  0.0000000  1.2552000  3
   4586   4582   4589   4592     1  180.0000771  2.0083200  2
   4586   4582   4589   4592     1  0.0000000  1.2552000  3
   4586   4598   4604   8848     1  0.0000000  0.6508444  3
   4589   4582   4583   4595     1  180.0000771  2.0083200  2
   4589   4582   4583   4595     1  0.0000000  1.2552000  3
   4589   4582   4586   4598     1  180.0000771  2.0083200  2
   4589   4582   4586   4598     1  0.0000000  1.2552000  3
   4589   4592   4601   4610     1  0.0000000  0.6508444  3
   4595   4607   8871   8867     1  180.0000771  0.4184000  2
   4595   4607   8871   8867     1  0.0000000  1.6024720  3
   4598   4604   8848   8844     1  180.0000771  0.4184000  2
   4598   4604   8848   8844     1  0.0000000  1.6024720  3
   4604   8848   8844   8843     1  180.0000771  0.4184000  2
   4604   8848   8844   8843     1  0.0000000  1.6024720  3
   4604   8848   8844   8860     1  180.0000771  5.6484000  1
   4604   8848   8844   8860     1  180.0000771  3.5564000  2
   4604   8848   8844   8860     1  0.0000000  0.4184000  3
   4607   8871   8867   8883     1  180.0000771  5.6484000  1
   4607   8871   8867   8883     1  180.0000771  3.5564000  2
   4607   8871   8867   8883     1  0.0000000  0.4184000  3
   4607   8871   8867   8866     1  180.0000771  0.4184000  2
   4607   8871   8867   8866     1  0.0000000  1.6024720  3
   4611   4612   4624   4636     1  0.0000000  0.6508444  3
   4611   4615   4627   4633     1  0.0000000  0.6508444  3
   4611   4618   4621   4630     1  0.0000000  0.6508444  3
   4612   4611   4615   4627     1  180.0000771  2.0083200  2
   4612   4611   4615   4627     1  0.0000000  1.2552000  3
   4612   4611   4618   4621     1  180.0000771  2.0083200  2
   4612   4611   4618   4621     1  0.0000000  1.2552000  3
   4612   4624   4636   8917     1  0.0000000  0.6508444  3
   4615   4611   4612   4624     1  180.0000771  2.0083200  2
   4615   4611   4612   4624     1  0.0000000  1.2552000  3
   4615   4611   4618   4621     1  180.0000771  2.0083200  2
   4615   4611   4618   4621     1  0.0000000  1.2552000  3
   4615   4627   4633   8894     1  0.0000000  0.6508444  3
   4618   4611   4612   4624     1  180.0000771  2.0083200  2
   4618   4611   4612   4624     1  0.0000000  1.2552000  3
   4618   4611   4615   4627     1  180.0000771  2.0083200  2
   4618   4611   4615   4627     1  0.0000000  1.2552000  3
   4618   4621   4630   4639     1  0.0000000  0.6508444  3
   4624   4636   8917   8913     1  180.0000771  0.4184000  2
   4624   4636   8917   8913     1  0.0000000  1.6024720  3
   4627   4633   8894   8890     1  180.0000771  0.4184000  2
   4627   4633   8894   8890     1  0.0000000  1.6024720  3
   4633   8894   8890   8889     1  180.0000771  0.4184000  2
   4633   8894   8890   8889     1  0.0000000  1.6024720  3
   4633   8894   8890   8906     1  180.0000771  5.6484000  1
   4633   8894   8890   8906     1  180.0000771  3.5564000  2
   4633   8894   8890   8906     1  0.0000000  0.4184000  3
   4636   8917   8913   8929     1  180.0000771  5.6484000  1
   4636   8917   8913   8929     1  180.0000771  3.5564000  2
   4636   8917   8913   8929     1  0.0000000  0.4184000  3
   4636   8917   8913   8912     1  180.0000771  0.4184000  2
   4636   8917   8913   8912     1  0.0000000  1.6024720  3
   4640   4641   4653   4665     1  0.0000000  0.6508444  3
   4640   4644   4656   4662     1  0.0000000  0.6508444  3
   4640   4647   4650   4659     1  0.0000000  0.6508444  3
   4641   4640   4644   4656     1  180.0000771  2.0083200  2
   4641   4640   4644   4656     1  0.0000000  1.2552000  3
   4641   4640   4647   4650     1  180.0000771  2.0083200  2
   4641   4640   4647   4650     1  0.0000000  1.2552000  3
   4641   4653   4665   8963     1  0.0000000  0.6508444  3
   4644   4640   4641   4653     1  180.0000771  2.0083200  2
   4644   4640   4641   4653     1  0.0000000  1.2552000  3
   4644   4640   4647   4650     1  180.0000771  2.0083200  2
   4644   4640   4647   4650     1  0.0000000  1.2552000  3
   4644   4656   4662   8940     1  0.0000000  0.6508444  3
   4647   4640   4641   4653     1  180.0000771  2.0083200  2
   4647   4640   4641   4653     1  0.0000000  1.2552000  3
   4647   4640   4644   4656     1  180.0000771  2.0083200  2
   4647   4640   4644   4656     1  0.0000000  1.2552000  3
   4647   4650   4659   4668     1  0.0000000  0.6508444  3
   4653   4665   8963   8959     1  180.0000771  0.4184000  2
   4653   4665   8963   8959     1  0.0000000  1.6024720  3
   4656   4662   8940   8936     1  180.0000771  0.4184000  2
   4656   4662   8940   8936     1  0.0000000  1.6024720  3
   4662   8940   8936   8935     1  180.0000771  0.4184000  2
   4662   8940   8936   8935     1  0.0000000  1.6024720  3
   4662   8940   8936   8952     1  180.0000771  5.6484000  1
   4662   8940   8936   8952     1  180.0000771  3.5564000  2
   4662   8940   8936   8952     1  0.0000000  0.4184000  3
   4665   8963   8959   8975     1  180.0000771  5.6484000  1
   4665   8963   8959   8975     1  180.0000771  3.5564000  2
   4665   8963   8959   8975     1  0.0000000  0.4184000  3
   4665   8963   8959   8958     1  180.0000771  0.4184000  2
   4665   8963   8959   8958     1  0.0000000  1.6024720  3
   4669   4670   4682   4694     1  0.0000000  0.6508444  3
   4669   4673   4685   4691     1  0.0000000  0.6508444  3
   4669   4676   4679   4688     1  0.0000000  0.6508444  3
   4670   4669   4673   4685     1  180.0000771  2.0083200  2
   4670   4669   4673   4685     1  0.0000000  1.2552000  3
   4670   4669   4676   4679     1  180.0000771  2.0083200  2
   4670   4669   4676   4679     1  0.0000000  1.2552000  3
   4670   4682   4694   9009     1  0.0000000  0.6508444  3
   4673   4669   4670   4682     1  180.0000771  2.0083200  2
   4673   4669   4670   4682     1  0.0000000  1.2552000  3
   4673   4669   4676   4679     1  180.0000771  2.0083200  2
   4673   4669   4676   4679     1  0.0000000  1.2552000  3
   4673   4685   4691   8986     1  0.0000000  0.6508444  3
   4676   4669   4670   4682     1  180.0000771  2.0083200  2
   4676   4669   4670   4682     1  0.0000000  1.2552000  3
   4676   4669   4673   4685     1  180.0000771  2.0083200  2
   4676   4669   4673   4685     1  0.0000000  1.2552000  3
   4676   4679   4688   4697     1  0.0000000  0.6508444  3
   4682   4694   9009   9005     1  180.0000771  0.4184000  2
   4682   4694   9009   9005     1  0.0000000  1.6024720  3
   4685   4691   8986   8982     1  180.0000771  0.4184000  2
   4685   4691   8986   8982     1  0.0000000  1.6024720  3
   4691   8986   8982   8981     1  180.0000771  0.4184000  2
   4691   8986   8982   8981     1  0.0000000  1.6024720  3
   4691   8986   8982   8998     1  180.0000771  5.6484000  1
   4691   8986   8982   8998     1  180.0000771  3.5564000  2
   4691   8986   8982   8998     1  0.0000000  0.4184000  3
   4694   9009   9005   9021     1  180.0000771  5.6484000  1
   4694   9009   9005   9021     1  180.0000771  3.5564000  2
   4694   9009   9005   9021     1  0.0000000  0.4184000  3
   4694   9009   9005   9004     1  180.0000771  0.4184000  2
   4694   9009   9005   9004     1  0.0000000  1.6024720  3
   4698   4699   4711   4723     1  0.0000000  0.6508444  3
   4698   4702   4714   4720     1  0.0000000  0.6508444  3
   4698   4705   4708   4717     1  0.0000000  0.6508444  3
   4699   4698   4702   4714     1  180.0000771  2.0083200  2
   4699   4698   4702   4714     1  0.0000000  1.2552000  3
   4699   4698   4705   4708     1  180.0000771  2.0083200  2
   4699   4698   4705   4708     1  0.0000000  1.2552000  3
   4699   4711   4723   9055     1  0.0000000  0.6508444  3
   4702   4698   4699   4711     1  180.0000771  2.0083200  2
   4702   4698   4699   4711     1  0.0000000  1.2552000  3
   4702   4698   4705   4708     1  180.0000771  2.0083200  2
   4702   4698   4705   4708     1  0.0000000  1.2552000  3
   4702   4714   4720   9032     1  0.0000000  0.6508444  3
   4705   4698   4699   4711     1  180.0000771  2.0083200  2
   4705   4698   4699   4711     1  0.0000000  1.2552000  3
   4705   4698   4702   4714     1  180.0000771  2.0083200  2
   4705   4698   4702   4714     1  0.0000000  1.2552000  3
   4705   4708   4717   4726     1  0.0000000  0.6508444  3
   4711   4723   9055   9051     1  180.0000771  0.4184000  2
   4711   4723   9055   9051     1  0.0000000  1.6024720  3
   4714   4720   9032   9028     1  180.0000771  0.4184000  2
   4714   4720   9032   9028     1  0.0000000  1.6024720  3
   4720   9032   9028   9027     1  180.0000771  0.4184000  2
   4720   9032   9028   9027     1  0.0000000  1.6024720  3
   4720   9032   9028   9044     1  180.0000771  5.6484000  1
   4720   9032   9028   9044     1  180.0000771  3.5564000  2
   4720   9032   9028   9044     1  0.0000000  0.4184000  3
   4723   9055   9051   9067     1  180.0000771  5.6484000  1
   4723   9055   9051   9067     1  180.0000771  3.5564000  2
   4723   9055   9051   9067     1  0.0000000  0.4184000  3
   4723   9055   9051   9050     1  180.0000771  0.4184000  2
   4723   9055   9051   9050     1  0.0000000  1.6024720  3
   4727   4728   4740   4752     1  0.0000000  0.6508444  3
   4727   4731   4743   4749     1  0.0000000  0.6508444  3
   4727   4734   4737   4746     1  0.0000000  0.6508444  3
   4728   4727   4731   4743     1  180.0000771  2.0083200  2
   4728   4727   4731   4743     1  0.0000000  1.2552000  3
   4728   4727   4734   4737     1  180.0000771  2.0083200  2
   4728   4727   4734   4737     1  0.0000000  1.2552000  3
   4728   4740   4752   9101     1  0.0000000  0.6508444  3
   4731   4727   4728   4740     1  180.0000771  2.0083200  2
   4731   4727   4728   4740     1  0.0000000  1.2552000  3
   4731   4727   4734   4737     1  180.0000771  2.0083200  2
   4731   4727   4734   4737     1  0.0000000  1.2552000  3
   4731   4743   4749   9078     1  0.0000000  0.6508444  3
   4734   4727   4728   4740     1  180.0000771  2.0083200  2
   4734   4727   4728   4740     1  0.0000000  1.2552000  3
   4734   4727   4731   4743     1  180.0000771  2.0083200  2
   4734   4727   4731   4743     1  0.0000000  1.2552000  3
   4734   4737   4746   4755     1  0.0000000  0.6508444  3
   4740   4752   9101   9097     1  180.0000771  0.4184000  2
   4740   4752   9101   9097     1  0.0000000  1.6024720  3
   4743   4749   9078   9074     1  180.0000771  0.4184000  2
   4743   4749   9078   9074     1  0.0000000  1.6024720  3
   4749   9078   9074   9073     1  180.0000771  0.4184000  2
   4749   9078   9074   9073     1  0.0000000  1.6024720  3
   4749   9078   9074   9090     1  180.0000771  5.6484000  1
   4749   9078   9074   9090     1  180.0000771  3.5564000  2
   4749   9078   9074   9090     1  0.0000000  0.4184000  3
   4752   9101   9097   9113     1  180.0000771  5.6484000  1
   4752   9101   9097   9113     1  180.0000771  3.5564000  2
   4752   9101   9097   9113     1  0.0000000  0.4184000  3
   4752   9101   9097   9096     1  180.0000771  0.4184000  2
   4752   9101   9097   9096     1  0.0000000  1.6024720  3
   4756   4757   4769   4781     1  0.0000000  0.6508444  3
   4756   4760   4772   4778     1  0.0000000  0.6508444  3
   4756   4763   4766   4775     1  0.0000000  0.6508444  3
   4757   4756   4760   4772     1  180.0000771  2.0083200  2
   4757   4756   4760   4772     1  0.0000000  1.2552000  3
   4757   4756   4763   4766     1  180.0000771  2.0083200  2
   4757   4756   4763   4766     1  0.0000000  1.2552000  3
   4757   4769   4781   9147     1  0.0000000  0.6508444  3
   4760   4756   4757   4769     1  180.0000771  2.0083200  2
   4760   4756   4757   4769     1  0.0000000  1.2552000  3
   4760   4756   4763   4766     1  180.0000771  2.0083200  2
   4760   4756   4763   4766     1  0.0000000  1.2552000  3
   4760   4772   4778   9124     1  0.0000000  0.6508444  3
   4763   4756   4757   4769     1  180.0000771  2.0083200  2
   4763   4756   4757   4769     1  0.0000000  1.2552000  3
   4763   4756   4760   4772     1  180.0000771  2.0083200  2
   4763   4756   4760   4772     1  0.0000000  1.2552000  3
   4763   4766   4775   4784     1  0.0000000  0.6508444  3
   4769   4781   9147   9143     1  180.0000771  0.4184000  2
   4769   4781   9147   9143     1  0.0000000  1.6024720  3
   4772   4778   9124   9120     1  180.0000771  0.4184000  2
   4772   4778   9124   9120     1  0.0000000  1.6024720  3
   4778   9124   9120   9119     1  180.0000771  0.4184000  2
   4778   9124   9120   9119     1  0.0000000  1.6024720  3
   4778   9124   9120   9136     1  180.0000771  5.6484000  1
   4778   9124   9120   9136     1  180.0000771  3.5564000  2
   4778   9124   9120   9136     1  0.0000000  0.4184000  3
   4781   9147   9143   9159     1  180.0000771  5.6484000  1
   4781   9147   9143   9159     1  180.0000771  3.5564000  2
   4781   9147   9143   9159     1  0.0000000  0.4184000  3
   4781   9147   9143   9142     1  180.0000771  0.4184000  2
   4781   9147   9143   9142     1  0.0000000  1.6024720  3
   4785   4786   4798   4810     1  0.0000000  0.6508444  3
   4785   4789   4801   4807     1  0.0000000  0.6508444  3
   4785   4792   4795   4804     1  0.0000000  0.6508444  3
   4786   4785   4789   4801     1  180.0000771  2.0083200  2
   4786   4785   4789   4801     1  0.0000000  1.2552000  3
   4786   4785   4792   4795     1  180.0000771  2.0083200  2
   4786   4785   4792   4795     1  0.0000000  1.2552000  3
   4786   4798   4810   9193     1  0.0000000  0.6508444  3
   4789   4785   4786   4798     1  180.0000771  2.0083200  2
   4789   4785   4786   4798     1  0.0000000  1.2552000  3
   4789   4785   4792   4795     1  180.0000771  2.0083200  2
   4789   4785   4792   4795     1  0.0000000  1.2552000  3
   4789   4801   4807   9170     1  0.0000000  0.6508444  3
   4792   4785   4786   4798     1  180.0000771  2.0083200  2
   4792   4785   4786   4798     1  0.0000000  1.2552000  3
   4792   4785   4789   4801     1  180.0000771  2.0083200  2
   4792   4785   4789   4801     1  0.0000000  1.2552000  3
   4792   4795   4804   4813     1  0.0000000  0.6508444  3
   4798   4810   9193   9189     1  180.0000771  0.4184000  2
   4798   4810   9193   9189     1  0.0000000  1.6024720  3
   4801   4807   9170   9166     1  180.0000771  0.4184000  2
   4801   4807   9170   9166     1  0.0000000  1.6024720  3
   4807   9170   9166   9165     1  180.0000771  0.4184000  2
   4807   9170   9166   9165     1  0.0000000  1.6024720  3
   4807   9170   9166   9182     1  180.0000771  5.6484000  1
   4807   9170   9166   9182     1  180.0000771  3.5564000  2
   4807   9170   9166   9182     1  0.0000000  0.4184000  3
   4810   9193   9189   9205     1  180.0000771  5.6484000  1
   4810   9193   9189   9205     1  180.0000771  3.5564000  2
   4810   9193   9189   9205     1  0.0000000  0.4184000  3
   4810   9193   9189   9188     1  180.0000771  0.4184000  2
   4810   9193   9189   9188     1  0.0000000  1.6024720  3
   4814   4815   4827   4839     1  0.0000000  0.6508444  3
   4814   4818   4830   4836     1  0.0000000  0.6508444  3
   4814   4821   4824   4833     1  0.0000000  0.6508444  3
   4815   4814   4818   4830     1  180.0000771  2.0083200  2
   4815   4814   4818   4830     1  0.0000000  1.2552000  3
   4815   4814   4821   4824     1  180.0000771  2.0083200  2
   4815   4814   4821   4824     1  0.0000000  1.2552000  3
   4815   4827   4839   9239     1  0.0000000  0.6508444  3
   4818   4814   4815   4827     1  180.0000771  2.0083200  2
   4818   4814   4815   4827     1  0.0000000  1.2552000  3
   4818   4814   4821   4824     1  180.0000771  2.0083200  2
   4818   4814   4821   4824     1  0.0000000  1.2552000  3
   4818   4830   4836   9216     1  0.0000000  0.6508444  3
   4821   4814   4815   4827     1  180.0000771  2.0083200  2
   4821   4814   4815   4827     1  0.0000000  1.2552000  3
   4821   4814   4818   4830     1  180.0000771  2.0083200  2
   4821   4814   4818   4830     1  0.0000000  1.2552000  3
   4821   4824   4833   4842     1  0.0000000  0.6508444  3
   4827   4839   9239   9235     1  180.0000771  0.4184000  2
   4827   4839   9239   9235     1  0.0000000  1.6024720  3
   4830   4836   9216   9212     1  180.0000771  0.4184000  2
   4830   4836   9216   9212     1  0.0000000  1.6024720  3
   4836   9216   9212   9211     1  180.0000771  0.4184000  2
   4836   9216   9212   9211     1  0.0000000  1.6024720  3
   4836   9216   9212   9228     1  180.0000771  5.6484000  1
   4836   9216   9212   9228     1  180.0000771  3.5564000  2
   4836   9216   9212   9228     1  0.0000000  0.4184000  3
   4839   9239   9235   9251     1  180.0000771  5.6484000  1
   4839   9239   9235   9251     1  180.0000771  3.5564000  2
   4839   9239   9235   9251     1  0.0000000  0.4184000  3
   4839   9239   9235   9234     1  180.0000771  0.4184000  2
   4839   9239   9235   9234     1  0.0000000  1.6024720  3
   4843   4844   4856   4868     1  0.0000000  0.6508444  3
   4843   4847   4859   4865     1  0.0000000  0.6508444  3
   4843   4850   4853   4862     1  0.0000000  0.6508444  3
   4844   4843   4847   4859     1  180.0000771  2.0083200  2
   4844   4843   4847   4859     1  0.0000000  1.2552000  3
   4844   4843   4850   4853     1  180.0000771  2.0083200  2
   4844   4843   4850   4853     1  0.0000000  1.2552000  3
   4844   4856   4868   9285     1  0.0000000  0.6508444  3
   4847   4843   4844   4856     1  180.0000771  2.0083200  2
   4847   4843   4844   4856     1  0.0000000  1.2552000  3
   4847   4843   4850   4853     1  180.0000771  2.0083200  2
   4847   4843   4850   4853     1  0.0000000  1.2552000  3
   4847   4859   4865   9262     1  0.0000000  0.6508444  3
   4850   4843   4844   4856     1  180.0000771  2.0083200  2
   4850   4843   4844   4856     1  0.0000000  1.2552000  3
   4850   4843   4847   4859     1  180.0000771  2.0083200  2
   4850   4843   4847   4859     1  0.0000000  1.2552000  3
   4850   4853   4862   4871     1  0.0000000  0.6508444  3
   4856   4868   9285   9281     1  180.0000771  0.4184000  2
   4856   4868   9285   9281     1  0.0000000  1.6024720  3
   4859   4865   9262   9258     1  180.0000771  0.4184000  2
   4859   4865   9262   9258     1  0.0000000  1.6024720  3
   4865   9262   9258   9257     1  180.0000771  0.4184000  2
   4865   9262   9258   9257     1  0.0000000  1.6024720  3
   4865   9262   9258   9274     1  180.0000771  5.6484000  1
   4865   9262   9258   9274     1  180.0000771  3.5564000  2
   4865   9262   9258   9274     1  0.0000000  0.4184000  3
   4868   9285   9281   9297     1  180.0000771  5.6484000  1
   4868   9285   9281   9297     1  180.0000771  3.5564000  2
   4868   9285   9281   9297     1  0.0000000  0.4184000  3
   4868   9285   9281   9280     1  180.0000771  0.4184000  2
   4868   9285   9281   9280     1  0.0000000  1.6024720  3
   4872   4873   4885   4897     1  0.0000000  0.6508444  3
   4872   4876   4888   4894     1  0.0000000  0.6508444  3
   4872   4879   4882   4891     1  0.0000000  0.6508444  3
   4873   4872   4876   4888     1  180.0000771  2.0083200  2
   4873   4872   4876   4888     1  0.0000000  1.2552000  3
   4873   4872   4879   4882     1  180.0000771  2.0083200  2
   4873   4872   4879   4882     1  0.0000000  1.2552000  3
   4873   4885   4897   9331     1  0.0000000  0.6508444  3
   4876   4872   4873   4885     1  180.0000771  2.0083200  2
   4876   4872   4873   4885     1  0.0000000  1.2552000  3
   4876   4872   4879   4882     1  180.0000771  2.0083200  2
   4876   4872   4879   4882     1  0.0000000  1.2552000  3
   4876   4888   4894   9308     1  0.0000000  0.6508444  3
   4879   4872   4873   4885     1  180.0000771  2.0083200  2
   4879   4872   4873   4885     1  0.0000000  1.2552000  3
   4879   4872   4876   4888     1  180.0000771  2.0083200  2
   4879   4872   4876   4888     1  0.0000000  1.2552000  3
   4879   4882   4891   4900     1  0.0000000  0.6508444  3
   4885   4897   9331   9327     1  180.0000771  0.4184000  2
   4885   4897   9331   9327     1  0.0000000  1.6024720  3
   4888   4894   9308   9304     1  180.0000771  0.4184000  2
   4888   4894   9308   9304     1  0.0000000  1.6024720  3
   4894   9308   9304   9303     1  180.0000771  0.4184000  2
   4894   9308   9304   9303     1  0.0000000  1.6024720  3
   4894   9308   9304   9320     1  180.0000771  5.6484000  1
   4894   9308   9304   9320     1  180.0000771  3.5564000  2
   4894   9308   9304   9320     1  0.0000000  0.4184000  3
   4897   9331   9327   9343     1  180.0000771  5.6484000  1
   4897   9331   9327   9343     1  180.0000771  3.5564000  2
   4897   9331   9327   9343     1  0.0000000  0.4184000  3
   4897   9331   9327   9326     1  180.0000771  0.4184000  2
   4897   9331   9327   9326     1  0.0000000  1.6024720  3
   4901   4902   4914   4926     1  0.0000000  0.6508444  3
   4901   4905   4917   4923     1  0.0000000  0.6508444  3
   4901   4908   4911   4920     1  0.0000000  0.6508444  3
   4902   4901   4905   4917     1  180.0000771  2.0083200  2
   4902   4901   4905   4917     1  0.0000000  1.2552000  3
   4902   4901   4908   4911     1  180.0000771  2.0083200  2
   4902   4901   4908   4911     1  0.0000000  1.2552000  3
   4902   4914   4926   9377     1  0.0000000  0.6508444  3
   4905   4901   4902   4914     1  180.0000771  2.0083200  2
   4905   4901   4902   4914     1  0.0000000  1.2552000  3
   4905   4901   4908   4911     1  180.0000771  2.0083200  2
   4905   4901   4908   4911     1  0.0000000  1.2552000  3
   4905   4917   4923   9354     1  0.0000000  0.6508444  3
   4908   4901   4902   4914     1  180.0000771  2.0083200  2
   4908   4901   4902   4914     1  0.0000000  1.2552000  3
   4908   4901   4905   4917     1  180.0000771  2.0083200  2
   4908   4901   4905   4917     1  0.0000000  1.2552000  3
   4908   4911   4920   4929     1  0.0000000  0.6508444  3
   4914   4926   9377   9373     1  180.0000771  0.4184000  2
   4914   4926   9377   9373     1  0.0000000  1.6024720  3
   4917   4923   9354   9350     1  180.0000771  0.4184000  2
   4917   4923   9354   9350     1  0.0000000  1.6024720  3
   4923   9354   9350   9349     1  180.0000771  0.4184000  2
   4923   9354   9350   9349     1  0.0000000  1.6024720  3
   4923   9354   9350   9366     1  180.0000771  5.6484000  1
   4923   9354   9350   9366     1  180.0000771  3.5564000  2
   4923   9354   9350   9366     1  0.0000000  0.4184000  3
   4926   9377   9373   9389     1  180.0000771  5.6484000  1
   4926   9377   9373   9389     1  180.0000771  3.5564000  2
   4926   9377   9373   9389     1  0.0000000  0.4184000  3
   4926   9377   9373   9372     1  180.0000771  0.4184000  2
   4926   9377   9373   9372     1  0.0000000  1.6024720  3
   4930   4931   4943   4955     1  0.0000000  0.6508444  3
   4930   4934   4946   4952     1  0.0000000  0.6508444  3
   4930   4937   4940   4949     1  0.0000000  0.6508444  3
   4931   4930   4934   4946     1  180.0000771  2.0083200  2
   4931   4930   4934   4946     1  0.0000000  1.2552000  3
   4931   4930   4937   4940     1  180.0000771  2.0083200  2
   4931   4930   4937   4940     1  0.0000000  1.2552000  3
   4931   4943   4955   9423     1  0.0000000  0.6508444  3
   4934   4930   4931   4943     1  180.0000771  2.0083200  2
   4934   4930   4931   4943     1  0.0000000  1.2552000  3
   4934   4930   4937   4940     1  180.0000771  2.0083200  2
   4934   4930   4937   4940     1  0.0000000  1.2552000  3
   4934   4946   4952   9400     1  0.0000000  0.6508444  3
   4937   4930   4931   4943     1  180.0000771  2.0083200  2
   4937   4930   4931   4943     1  0.0000000  1.2552000  3
   4937   4930   4934   4946     1  180.0000771  2.0083200  2
   4937   4930   4934   4946     1  0.0000000  1.2552000  3
   4937   4940   4949   4958     1  0.0000000  0.6508444  3
   4943   4955   9423   9419     1  180.0000771  0.4184000  2
   4943   4955   9423   9419     1  0.0000000  1.6024720  3
   4946   4952   9400   9396     1  180.0000771  0.4184000  2
   4946   4952   9400   9396     1  0.0000000  1.6024720  3
   4952   9400   9396   9395     1  180.0000771  0.4184000  2
   4952   9400   9396   9395     1  0.0000000  1.6024720  3
   4952   9400   9396   9412     1  180.0000771  5.6484000  1
   4952   9400   9396   9412     1  180.0000771  3.5564000  2
   4952   9400   9396   9412     1  0.0000000  0.4184000  3
   4955   9423   9419   9435     1  180.0000771  5.6484000  1
   4955   9423   9419   9435     1  180.0000771  3.5564000  2
   4955   9423   9419   9435     1  0.0000000  0.4184000  3
   4955   9423   9419   9418     1  180.0000771  0.4184000  2
   4955   9423   9419   9418     1  0.0000000  1.6024720  3
   4959   4960   4972   4984     1  0.0000000  0.6508444  3
   4959   4963   4975   4981     1  0.0000000  0.6508444  3
   4959   4966   4969   4978     1  0.0000000  0.6508444  3
   4960   4959   4963   4975     1  180.0000771  2.0083200  2
   4960   4959   4963   4975     1  0.0000000  1.2552000  3
   4960   4959   4966   4969     1  180.0000771  2.0083200  2
   4960   4959   4966   4969     1  0.0000000  1.2552000  3
   4960   4972   4984   9469     1  0.0000000  0.6508444  3
   4963   4959   4960   4972     1  180.0000771  2.0083200  2
   4963   4959   4960   4972     1  0.0000000  1.2552000  3
   4963   4959   4966   4969     1  180.0000771  2.0083200  2
   4963   4959   4966   4969     1  0.0000000  1.2552000  3
   4963   4975   4981   9446     1  0.0000000  0.6508444  3
   4966   4959   4960   4972     1  180.0000771  2.0083200  2
   4966   4959   4960   4972     1  0.0000000  1.2552000  3
   4966   4959   4963   4975     1  180.0000771  2.0083200  2
   4966   4959   4963   4975     1  0.0000000  1.2552000  3
   4966   4969   4978   4987     1  0.0000000  0.6508444  3
   4972   4984   9469   9465     1  180.0000771  0.4184000  2
   4972   4984   9469   9465     1  0.0000000  1.6024720  3
   4975   4981   9446   9442     1  180.0000771  0.4184000  2
   4975   4981   9446   9442     1  0.0000000  1.6024720  3
   4981   9446   9442   9441     1  180.0000771  0.4184000  2
   4981   9446   9442   9441     1  0.0000000  1.6024720  3
   4981   9446   9442   9458     1  180.0000771  5.6484000  1
   4981   9446   9442   9458     1  180.0000771  3.5564000  2
   4981   9446   9442   9458     1  0.0000000  0.4184000  3
   4984   9469   9465   9481     1  180.0000771  5.6484000  1
   4984   9469   9465   9481     1  180.0000771  3.5564000  2
   4984   9469   9465   9481     1  0.0000000  0.4184000  3
   4984   9469   9465   9464     1  180.0000771  0.4184000  2
   4984   9469   9465   9464     1  0.0000000  1.6024720  3
   4988   4989   5001   5013     1  0.0000000  0.6508444  3
   4988   4992   5004   5010     1  0.0000000  0.6508444  3
   4988   4995   4998   5007     1  0.0000000  0.6508444  3
   4989   4988   4992   5004     1  180.0000771  2.0083200  2
   4989   4988   4992   5004     1  0.0000000  1.2552000  3
   4989   4988   4995   4998     1  180.0000771  2.0083200  2
   4989   4988   4995   4998     1  0.0000000  1.2552000  3
   4989   5001   5013   9515     1  0.0000000  0.6508444  3
   4992   4988   4989   5001     1  180.0000771  2.0083200  2
   4992   4988   4989   5001     1  0.0000000  1.2552000  3
   4992   4988   4995   4998     1  180.0000771  2.0083200  2
   4992   4988   4995   4998     1  0.0000000  1.2552000  3
   4992   5004   5010   9492     1  0.0000000  0.6508444  3
   4995   4988   4989   5001     1  180.0000771  2.0083200  2
   4995   4988   4989   5001     1  0.0000000  1.2552000  3
   4995   4988   4992   5004     1  180.0000771  2.0083200  2
   4995   4988   4992   5004     1  0.0000000  1.2552000  3
   4995   4998   5007   5016     1  0.0000000  0.6508444  3
   5001   5013   9515   9511     1  180.0000771  0.4184000  2
   5001   5013   9515   9511     1  0.0000000  1.6024720  3
   5004   5010   9492   9488     1  180.0000771  0.4184000  2
   5004   5010   9492   9488     1  0.0000000  1.6024720  3
   5010   9492   9488   9487     1  180.0000771  0.4184000  2
   5010   9492   9488   9487     1  0.0000000  1.6024720  3
   5010   9492   9488   9504     1  180.0000771  5.6484000  1
   5010   9492   9488   9504     1  180.0000771  3.5564000  2
   5010   9492   9488   9504     1  0.0000000  0.4184000  3
   5013   9515   9511   9527     1  180.0000771  5.6484000  1
   5013   9515   9511   9527     1  180.0000771  3.5564000  2
   5013   9515   9511   9527     1  0.0000000  0.4184000  3
   5013   9515   9511   9510     1  180.0000771  0.4184000  2
   5013   9515   9511   9510     1  0.0000000  1.6024720  3
   5017   5018   5030   5042     1  0.0000000  0.6508444  3
   5017   5021   5033   5039     1  0.0000000  0.6508444  3
   5017   5024   5027   5036     1  0.0000000  0.6508444  3
   5018   5017   5021   5033     1  180.0000771  2.0083200  2
   5018   5017   5021   5033     1  0.0000000  1.2552000  3
   5018   5017   5024   5027     1  180.0000771  2.0083200  2
   5018   5017   5024   5027     1  0.0000000  1.2552000  3
   5018   5030   5042   9561     1  0.0000000  0.6508444  3
   5021   5017   5018   5030     1  180.0000771  2.0083200  2
   5021   5017   5018   5030     1  0.0000000  1.2552000  3
   5021   5017   5024   5027     1  180.0000771  2.0083200  2
   5021   5017   5024   5027     1  0.0000000  1.2552000  3
   5021   5033   5039   9538     1  0.0000000  0.6508444  3
   5024   5017   5018   5030     1  180.0000771  2.0083200  2
   5024   5017   5018   5030     1  0.0000000  1.2552000  3
   5024   5017   5021   5033     1  180.0000771  2.0083200  2
   5024   5017   5021   5033     1  0.0000000  1.2552000  3
   5024   5027   5036   5045     1  0.0000000  0.6508444  3
   5030   5042   9561   9557     1  180.0000771  0.4184000  2
   5030   5042   9561   9557     1  0.0000000  1.6024720  3
   5033   5039   9538   9534     1  180.0000771  0.4184000  2
   5033   5039   9538   9534     1  0.0000000  1.6024720  3
   5039   9538   9534   9533     1  180.0000771  0.4184000  2
   5039   9538   9534   9533     1  0.0000000  1.6024720  3
   5039   9538   9534   9550     1  180.0000771  5.6484000  1
   5039   9538   9534   9550     1  180.0000771  3.5564000  2
   5039   9538   9534   9550     1  0.0000000  0.4184000  3
   5042   9561   9557   9573     1  180.0000771  5.6484000  1
   5042   9561   9557   9573     1  180.0000771  3.5564000  2
   5042   9561   9557   9573     1  0.0000000  0.4184000  3
   5042   9561   9557   9556     1  180.0000771  0.4184000  2
   5042   9561   9557   9556     1  0.0000000  1.6024720  3
   5046   5047   5059   5071     1  0.0000000  0.6508444  3
   5046   5050   5062   5068     1  0.0000000  0.6508444  3
   5046   5053   5056   5065     1  0.0000000  0.6508444  3
   5047   5046   5050   5062     1  180.0000771  2.0083200  2
   5047   5046   5050   5062     1  0.0000000  1.2552000  3
   5047   5046   5053   5056     1  180.0000771  2.0083200  2
   5047   5046   5053   5056     1  0.0000000  1.2552000  3
   5047   5059   5071   9607     1  0.0000000  0.6508444  3
   5050   5046   5047   5059     1  180.0000771  2.0083200  2
   5050   5046   5047   5059     1  0.0000000  1.2552000  3
   5050   5046   5053   5056     1  180.0000771  2.0083200  2
   5050   5046   5053   5056     1  0.0000000  1.2552000  3
   5050   5062   5068   9584     1  0.0000000  0.6508444  3
   5053   5046   5047   5059     1  180.0000771  2.0083200  2
   5053   5046   5047   5059     1  0.0000000  1.2552000  3
   5053   5046   5050   5062     1  180.0000771  2.0083200  2
   5053   5046   5050   5062     1  0.0000000  1.2552000  3
   5053   5056   5065   5074     1  0.0000000  0.6508444  3
   5059   5071   9607   9603     1  180.0000771  0.4184000  2
   5059   5071   9607   9603     1  0.0000000  1.6024720  3
   5062   5068   9584   9580     1  180.0000771  0.4184000  2
   5062   5068   9584   9580     1  0.0000000  1.6024720  3
   5068   9584   9580   9579     1  180.0000771  0.4184000  2
   5068   9584   9580   9579     1  0.0000000  1.6024720  3
   5068   9584   9580   9596     1  180.0000771  5.6484000  1
   5068   9584   9580   9596     1  180.0000771  3.5564000  2
   5068   9584   9580   9596     1  0.0000000  0.4184000  3
   5071   9607   9603   9619     1  180.0000771  5.6484000  1
   5071   9607   9603   9619     1  180.0000771  3.5564000  2
   5071   9607   9603   9619     1  0.0000000  0.4184000  3
   5071   9607   9603   9602     1  180.0000771  0.4184000  2
   5071   9607   9603   9602     1  0.0000000  1.6024720  3
   5075   5076   5088   5100     1  0.0000000  0.6508444  3
   5075   5079   5091   5097     1  0.0000000  0.6508444  3
   5075   5082   5085   5094     1  0.0000000  0.6508444  3
   5076   5075   5079   5091     1  180.0000771  2.0083200  2
   5076   5075   5079   5091     1  0.0000000  1.2552000  3
   5076   5075   5082   5085     1  180.0000771  2.0083200  2
   5076   5075   5082   5085     1  0.0000000  1.2552000  3
   5076   5088   5100   9653     1  0.0000000  0.6508444  3
   5079   5075   5076   5088     1  180.0000771  2.0083200  2
   5079   5075   5076   5088     1  0.0000000  1.2552000  3
   5079   5075   5082   5085     1  180.0000771  2.0083200  2
   5079   5075   5082   5085     1  0.0000000  1.2552000  3
   5079   5091   5097   9630     1  0.0000000  0.6508444  3
   5082   5075   5076   5088     1  180.0000771  2.0083200  2
   5082   5075   5076   5088     1  0.0000000  1.2552000  3
   5082   5075   5079   5091     1  180.0000771  2.0083200  2
   5082   5075   5079   5091     1  0.0000000  1.2552000  3
   5082   5085   5094   5103     1  0.0000000  0.6508444  3
   5088   5100   9653   9649     1  180.0000771  0.4184000  2
   5088   5100   9653   9649     1  0.0000000  1.6024720  3
   5091   5097   9630   9626     1  180.0000771  0.4184000  2
   5091   5097   9630   9626     1  0.0000000  1.6024720  3
   5097   9630   9626   9625     1  180.0000771  0.4184000  2
   5097   9630   9626   9625     1  0.0000000  1.6024720  3
   5097   9630   9626   9642     1  180.0000771  5.6484000  1
   5097   9630   9626   9642     1  180.0000771  3.5564000  2
   5097   9630   9626   9642     1  0.0000000  0.4184000  3
   5100   9653   9649   9665     1  180.0000771  5.6484000  1
   5100   9653   9649   9665     1  180.0000771  3.5564000  2
   5100   9653   9649   9665     1  0.0000000  0.4184000  3
   5100   9653   9649   9648     1  180.0000771  0.4184000  2
   5100   9653   9649   9648     1  0.0000000  1.6024720  3
   5104   5105   5117   5129     1  0.0000000  0.6508444  3
   5104   5108   5120   5126     1  0.0000000  0.6508444  3
   5104   5111   5114   5123     1  0.0000000  0.6508444  3
   5105   5104   5108   5120     1  180.0000771  2.0083200  2
   5105   5104   5108   5120     1  0.0000000  1.2552000  3
   5105   5104   5111   5114     1  180.0000771  2.0083200  2
   5105   5104   5111   5114     1  0.0000000  1.2552000  3
   5105   5117   5129   9699     1  0.0000000  0.6508444  3
   5108   5104   5105   5117     1  180.0000771  2.0083200  2
   5108   5104   5105   5117     1  0.0000000  1.2552000  3
   5108   5104   5111   5114     1  180.0000771  2.0083200  2
   5108   5104   5111   5114     1  0.0000000  1.2552000  3
   5108   5120   5126   9676     1  0.0000000  0.6508444  3
   5111   5104   5105   5117     1  180.0000771  2.0083200  2
   5111   5104   5105   5117     1  0.0000000  1.2552000  3
   5111   5104   5108   5120     1  180.0000771  2.0083200  2
   5111   5104   5108   5120     1  0.0000000  1.2552000  3
   5111   5114   5123   5132     1  0.0000000  0.6508444  3
   5117   5129   9699   9695     1  180.0000771  0.4184000  2
   5117   5129   9699   9695     1  0.0000000  1.6024720  3
   5120   5126   9676   9672     1  180.0000771  0.4184000  2
   5120   5126   9676   9672     1  0.0000000  1.6024720  3
   5126   9676   9672   9671     1  180.0000771  0.4184000  2
   5126   9676   9672   9671     1  0.0000000  1.6024720  3
   5126   9676   9672   9688     1  180.0000771  5.6484000  1
   5126   9676   9672   9688     1  180.0000771  3.5564000  2
   5126   9676   9672   9688     1  0.0000000  0.4184000  3
   5129   9699   9695   9711     1  180.0000771  5.6484000  1
   5129   9699   9695   9711     1  180.0000771  3.5564000  2
   5129   9699   9695   9711     1  0.0000000  0.4184000  3
   5129   9699   9695   9694     1  180.0000771  0.4184000  2
   5129   9699   9695   9694     1  0.0000000  1.6024720  3
   5133   5134   5146   5158     1  0.0000000  0.6508444  3
   5133   5137   5149   5155     1  0.0000000  0.6508444  3
   5133   5140   5143   5152     1  0.0000000  0.6508444  3
   5134   5133   5137   5149     1  180.0000771  2.0083200  2
   5134   5133   5137   5149     1  0.0000000  1.2552000  3
   5134   5133   5140   5143     1  180.0000771  2.0083200  2
   5134   5133   5140   5143     1  0.0000000  1.2552000  3
   5134   5146   5158   9745     1  0.0000000  0.6508444  3
   5137   5133   5134   5146     1  180.0000771  2.0083200  2
   5137   5133   5134   5146     1  0.0000000  1.2552000  3
   5137   5133   5140   5143     1  180.0000771  2.0083200  2
   5137   5133   5140   5143     1  0.0000000  1.2552000  3
   5137   5149   5155   9722     1  0.0000000  0.6508444  3
   5140   5133   5134   5146     1  180.0000771  2.0083200  2
   5140   5133   5134   5146     1  0.0000000  1.2552000  3
   5140   5133   5137   5149     1  180.0000771  2.0083200  2
   5140   5133   5137   5149     1  0.0000000  1.2552000  3
   5140   5143   5152   5161     1  0.0000000  0.6508444  3
   5146   5158   9745   9741     1  180.0000771  0.4184000  2
   5146   5158   9745   9741     1  0.0000000  1.6024720  3
   5149   5155   9722   9718     1  180.0000771  0.4184000  2
   5149   5155   9722   9718     1  0.0000000  1.6024720  3
   5155   9722   9718   9717     1  180.0000771  0.4184000  2
   5155   9722   9718   9717     1  0.0000000  1.6024720  3
   5155   9722   9718   9734     1  180.0000771  5.6484000  1
   5155   9722   9718   9734     1  180.0000771  3.5564000  2
   5155   9722   9718   9734     1  0.0000000  0.4184000  3
   5158   9745   9741   9757     1  180.0000771  5.6484000  1
   5158   9745   9741   9757     1  180.0000771  3.5564000  2
   5158   9745   9741   9757     1  0.0000000  0.4184000  3
   5158   9745   9741   9740     1  180.0000771  0.4184000  2
   5158   9745   9741   9740     1  0.0000000  1.6024720  3
   5162   5163   5175   5187     1  0.0000000  0.6508444  3
   5162   5166   5178   5184     1  0.0000000  0.6508444  3
   5162   5169   5172   5181     1  0.0000000  0.6508444  3
   5163   5162   5166   5178     1  180.0000771  2.0083200  2
   5163   5162   5166   5178     1  0.0000000  1.2552000  3
   5163   5162   5169   5172     1  180.0000771  2.0083200  2
   5163   5162   5169   5172     1  0.0000000  1.2552000  3
   5163   5175   5187   9791     1  0.0000000  0.6508444  3
   5166   5162   5163   5175     1  180.0000771  2.0083200  2
   5166   5162   5163   5175     1  0.0000000  1.2552000  3
   5166   5162   5169   5172     1  180.0000771  2.0083200  2
   5166   5162   5169   5172     1  0.0000000  1.2552000  3
   5166   5178   5184   9768     1  0.0000000  0.6508444  3
   5169   5162   5163   5175     1  180.0000771  2.0083200  2
   5169   5162   5163   5175     1  0.0000000  1.2552000  3
   5169   5162   5166   5178     1  180.0000771  2.0083200  2
   5169   5162   5166   5178     1  0.0000000  1.2552000  3
   5169   5172   5181   5190     1  0.0000000  0.6508444  3
   5175   5187   9791   9787     1  180.0000771  0.4184000  2
   5175   5187   9791   9787     1  0.0000000  1.6024720  3
   5178   5184   9768   9764     1  180.0000771  0.4184000  2
   5178   5184   9768   9764     1  0.0000000  1.6024720  3
   5184   9768   9764   9763     1  180.0000771  0.4184000  2
   5184   9768   9764   9763     1  0.0000000  1.6024720  3
   5184   9768   9764   9780     1  180.0000771  5.6484000  1
   5184   9768   9764   9780     1  180.0000771  3.5564000  2
   5184   9768   9764   9780     1  0.0000000  0.4184000  3
   5187   9791   9787   9803     1  180.0000771  5.6484000  1
   5187   9791   9787   9803     1  180.0000771  3.5564000  2
   5187   9791   9787   9803     1  0.0000000  0.4184000  3
   5187   9791   9787   9786     1  180.0000771  0.4184000  2
   5187   9791   9787   9786     1  0.0000000  1.6024720  3
   5191   5192   5204   5216     1  0.0000000  0.6508444  3
   5191   5195   5207   5213     1  0.0000000  0.6508444  3
   5191   5198   5201   5210     1  0.0000000  0.6508444  3
   5192   5191   5195   5207     1  180.0000771  2.0083200  2
   5192   5191   5195   5207     1  0.0000000  1.2552000  3
   5192   5191   5198   5201     1  180.0000771  2.0083200  2
   5192   5191   5198   5201     1  0.0000000  1.2552000  3
   5192   5204   5216   9837     1  0.0000000  0.6508444  3
   5195   5191   5192   5204     1  180.0000771  2.0083200  2
   5195   5191   5192   5204     1  0.0000000  1.2552000  3
   5195   5191   5198   5201     1  180.0000771  2.0083200  2
   5195   5191   5198   5201     1  0.0000000  1.2552000  3
   5195   5207   5213   9814     1  0.0000000  0.6508444  3
   5198   5191   5192   5204     1  180.0000771  2.0083200  2
   5198   5191   5192   5204     1  0.0000000  1.2552000  3
   5198   5191   5195   5207     1  180.0000771  2.0083200  2
   5198   5191   5195   5207     1  0.0000000  1.2552000  3
   5198   5201   5210   5219     1  0.0000000  0.6508444  3
   5204   5216   9837   9833     1  180.0000771  0.4184000  2
   5204   5216   9837   9833     1  0.0000000  1.6024720  3
   5207   5213   9814   9810     1  180.0000771  0.4184000  2
   5207   5213   9814   9810     1  0.0000000  1.6024720  3
   5213   9814   9810   9809     1  180.0000771  0.4184000  2
   5213   9814   9810   9809     1  0.0000000  1.6024720  3
   5213   9814   9810   9826     1  180.0000771  5.6484000  1
   5213   9814   9810   9826     1  180.0000771  3.5564000  2
   5213   9814   9810   9826     1  0.0000000  0.4184000  3
   5216   9837   9833   9849     1  180.0000771  5.6484000  1
   5216   9837   9833   9849     1  180.0000771  3.5564000  2
   5216   9837   9833   9849     1  0.0000000  0.4184000  3
   5216   9837   9833   9832     1  180.0000771  0.4184000  2
   5216   9837   9833   9832     1  0.0000000  1.6024720  3
   5220   5221   5233   5245     1  0.0000000  0.6508444  3
   5220   5224   5236   5242     1  0.0000000  0.6508444  3
   5220   5227   5230   5239     1  0.0000000  0.6508444  3
   5221   5220   5224   5236     1  180.0000771  2.0083200  2
   5221   5220   5224   5236     1  0.0000000  1.2552000  3
   5221   5220   5227   5230     1  180.0000771  2.0083200  2
   5221   5220   5227   5230     1  0.0000000  1.2552000  3
   5221   5233   5245   9883     1  0.0000000  0.6508444  3
   5224   5220   5221   5233     1  180.0000771  2.0083200  2
   5224   5220   5221   5233     1  0.0000000  1.2552000  3
   5224   5220   5227   5230     1  180.0000771  2.0083200  2
   5224   5220   5227   5230     1  0.0000000  1.2552000  3
   5224   5236   5242   9860     1  0.0000000  0.6508444  3
   5227   5220   5221   5233     1  180.0000771  2.0083200  2
   5227   5220   5221   5233     1  0.0000000  1.2552000  3
   5227   5220   5224   5236     1  180.0000771  2.0083200  2
   5227   5220   5224   5236     1  0.0000000  1.2552000  3
   5227   5230   5239   5248     1  0.0000000  0.6508444  3
   5233   5245   9883   9879     1  180.0000771  0.4184000  2
   5233   5245   9883   9879     1  0.0000000  1.6024720  3
   5236   5242   9860   9856     1  180.0000771  0.4184000  2
   5236   5242   9860   9856     1  0.0000000  1.6024720  3
   5242   9860   9856   9855     1  180.0000771  0.4184000  2
   5242   9860   9856   9855     1  0.0000000  1.6024720  3
   5242   9860   9856   9872     1  180.0000771  5.6484000  1
   5242   9860   9856   9872     1  180.0000771  3.5564000  2
   5242   9860   9856   9872     1  0.0000000  0.4184000  3
   5245   9883   9879   9895     1  180.0000771  5.6484000  1
   5245   9883   9879   9895     1  180.0000771  3.5564000  2
   5245   9883   9879   9895     1  0.0000000  0.4184000  3
   5245   9883   9879   9878     1  180.0000771  0.4184000  2
   5245   9883   9879   9878     1  0.0000000  1.6024720  3
   5249   5250   5262   5274     1  0.0000000  0.6508444  3
   5249   5253   5265   5271     1  0.0000000  0.6508444  3
   5249   5256   5259   5268     1  0.0000000  0.6508444  3
   5250   5249   5253   5265     1  180.0000771  2.0083200  2
   5250   5249   5253   5265     1  0.0000000  1.2552000  3
   5250   5249   5256   5259     1  180.0000771  2.0083200  2
   5250   5249   5256   5259     1  0.0000000  1.2552000  3
   5250   5262   5274   9929     1  0.0000000  0.6508444  3
   5253   5249   5250   5262     1  180.0000771  2.0083200  2
   5253   5249   5250   5262     1  0.0000000  1.2552000  3
   5253   5249   5256   5259     1  180.0000771  2.0083200  2
   5253   5249   5256   5259     1  0.0000000  1.2552000  3
   5253   5265   5271   9906     1  0.0000000  0.6508444  3
   5256   5249   5250   5262     1  180.0000771  2.0083200  2
   5256   5249   5250   5262     1  0.0000000  1.2552000  3
   5256   5249   5253   5265     1  180.0000771  2.0083200  2
   5256   5249   5253   5265     1  0.0000000  1.2552000  3
   5256   5259   5268   5277     1  0.0000000  0.6508444  3
   5262   5274   9929   9925     1  180.0000771  0.4184000  2
   5262   5274   9929   9925     1  0.0000000  1.6024720  3
   5265   5271   9906   9902     1  180.0000771  0.4184000  2
   5265   5271   9906   9902     1  0.0000000  1.6024720  3
   5271   9906   9902   9901     1  180.0000771  0.4184000  2
   5271   9906   9902   9901     1  0.0000000  1.6024720  3
   5271   9906   9902   9918     1  180.0000771  5.6484000  1
   5271   9906   9902   9918     1  180.0000771  3.5564000  2
   5271   9906   9902   9918     1  0.0000000  0.4184000  3
   5274   9929   9925   9941     1  180.0000771  5.6484000  1
   5274   9929   9925   9941     1  180.0000771  3.5564000  2
   5274   9929   9925   9941     1  0.0000000  0.4184000  3
   5274   9929   9925   9924     1  180.0000771  0.4184000  2
   5274   9929   9925   9924     1  0.0000000  1.6024720  3
   5278   5279   5291   5303     1  0.0000000  0.6508444  3
   5278   5282   5294   5300     1  0.0000000  0.6508444  3
   5278   5285   5288   5297     1  0.0000000  0.6508444  3
   5279   5278   5282   5294     1  180.0000771  2.0083200  2
   5279   5278   5282   5294     1  0.0000000  1.2552000  3
   5279   5278   5285   5288     1  180.0000771  2.0083200  2
   5279   5278   5285   5288     1  0.0000000  1.2552000  3
   5279   5291   5303   9975     1  0.0000000  0.6508444  3
   5282   5278   5279   5291     1  180.0000771  2.0083200  2
   5282   5278   5279   5291     1  0.0000000  1.2552000  3
   5282   5278   5285   5288     1  180.0000771  2.0083200  2
   5282   5278   5285   5288     1  0.0000000  1.2552000  3
   5282   5294   5300   9952     1  0.0000000  0.6508444  3
   5285   5278   5279   5291     1  180.0000771  2.0083200  2
   5285   5278   5279   5291     1  0.0000000  1.2552000  3
   5285   5278   5282   5294     1  180.0000771  2.0083200  2
   5285   5278   5282   5294     1  0.0000000  1.2552000  3
   5285   5288   5297   5306     1  0.0000000  0.6508444  3
   5291   5303   9975   9971     1  180.0000771  0.4184000  2
   5291   5303   9975   9971     1  0.0000000  1.6024720  3
   5294   5300   9952   9948     1  180.0000771  0.4184000  2
   5294   5300   9952   9948     1  0.0000000  1.6024720  3
   5300   9952   9948   9947     1  180.0000771  0.4184000  2
   5300   9952   9948   9947     1  0.0000000  1.6024720  3
   5300   9952   9948   9964     1  180.0000771  5.6484000  1
   5300   9952   9948   9964     1  180.0000771  3.5564000  2
   5300   9952   9948   9964     1  0.0000000  0.4184000  3
   5303   9975   9971   9987     1  180.0000771  5.6484000  1
   5303   9975   9971   9987     1  180.0000771  3.5564000  2
   5303   9975   9971   9987     1  0.0000000  0.4184000  3
   5303   9975   9971   9970     1  180.0000771  0.4184000  2
   5303   9975   9971   9970     1  0.0000000  1.6024720  3
   5307   5308   5320   5332     1  0.0000000  0.6508444  3
   5307   5311   5323   5329     1  0.0000000  0.6508444  3
   5307   5314   5317   5326     1  0.0000000  0.6508444  3
   5308   5307   5311   5323     1  180.0000771  2.0083200  2
   5308   5307   5311   5323     1  0.0000000  1.2552000  3
   5308   5307   5314   5317     1  180.0000771  2.0083200  2
   5308   5307   5314   5317     1  0.0000000  1.2552000  3
   5308   5320   5332  10021     1  0.0000000  0.6508444  3
   5311   5307   5308   5320     1  180.0000771  2.0083200  2
   5311   5307   5308   5320     1  0.0000000  1.2552000  3
   5311   5307   5314   5317     1  180.0000771  2.0083200  2
   5311   5307   5314   5317     1  0.0000000  1.2552000  3
   5311   5323   5329   9998     1  0.0000000  0.6508444  3
   5314   5307   5308   5320     1  180.0000771  2.0083200  2
   5314   5307   5308   5320     1  0.0000000  1.2552000  3
   5314   5307   5311   5323     1  180.0000771  2.0083200  2
   5314   5307   5311   5323     1  0.0000000  1.2552000  3
   5314   5317   5326   5335     1  0.0000000  0.6508444  3
   5320   5332  10021  10017     1  180.0000771  0.4184000  2
   5320   5332  10021  10017     1  0.0000000  1.6024720  3
   5323   5329   9998   9994     1  180.0000771  0.4184000  2
   5323   5329   9998   9994     1  0.0000000  1.6024720  3
   5329   9998   9994   9993     1  180.0000771  0.4184000  2
   5329   9998   9994   9993     1  0.0000000  1.6024720  3
   5329   9998   9994  10010     1  180.0000771  5.6484000  1
   5329   9998   9994  10010     1  180.0000771  3.5564000  2
   5329   9998   9994  10010     1  0.0000000  0.4184000  3
   5332  10021  10017  10033     1  180.0000771  5.6484000  1
   5332  10021  10017  10033     1  180.0000771  3.5564000  2
   5332  10021  10017  10033     1  0.0000000  0.4184000  3
   5332  10021  10017  10016     1  180.0000771  0.4184000  2
   5332  10021  10017  10016     1  0.0000000  1.6024720  3
   5336   5337   5349   5361     1  0.0000000  0.6508444  3
   5336   5340   5352   5358     1  0.0000000  0.6508444  3
   5336   5343   5346   5355     1  0.0000000  0.6508444  3
   5337   5336   5340   5352     1  180.0000771  2.0083200  2
   5337   5336   5340   5352     1  0.0000000  1.2552000  3
   5337   5336   5343   5346     1  180.0000771  2.0083200  2
   5337   5336   5343   5346     1  0.0000000  1.2552000  3
   5337   5349   5361  10067     1  0.0000000  0.6508444  3
   5340   5336   5337   5349     1  180.0000771  2.0083200  2
   5340   5336   5337   5349     1  0.0000000  1.2552000  3
   5340   5336   5343   5346     1  180.0000771  2.0083200  2
   5340   5336   5343   5346     1  0.0000000  1.2552000  3
   5340   5352   5358  10044     1  0.0000000  0.6508444  3
   5343   5336   5337   5349     1  180.0000771  2.0083200  2
   5343   5336   5337   5349     1  0.0000000  1.2552000  3
   5343   5336   5340   5352     1  180.0000771  2.0083200  2
   5343   5336   5340   5352     1  0.0000000  1.2552000  3
   5343   5346   5355   5364     1  0.0000000  0.6508444  3
   5349   5361  10067  10063     1  180.0000771  0.4184000  2
   5349   5361  10067  10063     1  0.0000000  1.6024720  3
   5352   5358  10044  10040     1  180.0000771  0.4184000  2
   5352   5358  10044  10040     1  0.0000000  1.6024720  3
   5358  10044  10040  10039     1  180.0000771  0.4184000  2
   5358  10044  10040  10039     1  0.0000000  1.6024720  3
   5358  10044  10040  10056     1  180.0000771  5.6484000  1
   5358  10044  10040  10056     1  180.0000771  3.5564000  2
   5358  10044  10040  10056     1  0.0000000  0.4184000  3
   5361  10067  10063  10079     1  180.0000771  5.6484000  1
   5361  10067  10063  10079     1  180.0000771  3.5564000  2
   5361  10067  10063  10079     1  0.0000000  0.4184000  3
   5361  10067  10063  10062     1  180.0000771  0.4184000  2
   5361  10067  10063  10062     1  0.0000000  1.6024720  3
   5365   5366   5378   5390     1  0.0000000  0.6508444  3
   5365   5369   5381   5387     1  0.0000000  0.6508444  3
   5365   5372   5375   5384     1  0.0000000  0.6508444  3
   5366   5365   5369   5381     1  180.0000771  2.0083200  2
   5366   5365   5369   5381     1  0.0000000  1.2552000  3
   5366   5365   5372   5375     1  180.0000771  2.0083200  2
   5366   5365   5372   5375     1  0.0000000  1.2552000  3
   5366   5378   5390  10113     1  0.0000000  0.6508444  3
   5369   5365   5366   5378     1  180.0000771  2.0083200  2
   5369   5365   5366   5378     1  0.0000000  1.2552000  3
   5369   5365   5372   5375     1  180.0000771  2.0083200  2
   5369   5365   5372   5375     1  0.0000000  1.2552000  3
   5369   5381   5387  10090     1  0.0000000  0.6508444  3
   5372   5365   5366   5378     1  180.0000771  2.0083200  2
   5372   5365   5366   5378     1  0.0000000  1.2552000  3
   5372   5365   5369   5381     1  180.0000771  2.0083200  2
   5372   5365   5369   5381     1  0.0000000  1.2552000  3
   5372   5375   5384   5393     1  0.0000000  0.6508444  3
   5378   5390  10113  10109     1  180.0000771  0.4184000  2
   5378   5390  10113  10109     1  0.0000000  1.6024720  3
   5381   5387  10090  10086     1  180.0000771  0.4184000  2
   5381   5387  10090  10086     1  0.0000000  1.6024720  3
   5387  10090  10086  10085     1  180.0000771  0.4184000  2
   5387  10090  10086  10085     1  0.0000000  1.6024720  3
   5387  10090  10086  10102     1  180.0000771  5.6484000  1
   5387  10090  10086  10102     1  180.0000771  3.5564000  2
   5387  10090  10086  10102     1  0.0000000  0.4184000  3
   5390  10113  10109  10125     1  180.0000771  5.6484000  1
   5390  10113  10109  10125     1  180.0000771  3.5564000  2
   5390  10113  10109  10125     1  0.0000000  0.4184000  3
   5390  10113  10109  10108     1  180.0000771  0.4184000  2
   5390  10113  10109  10108     1  0.0000000  1.6024720  3
   5394   5395   5407   5419     1  0.0000000  0.6508444  3
   5394   5398   5410   5416     1  0.0000000  0.6508444  3
   5394   5401   5404   5413     1  0.0000000  0.6508444  3
   5395   5394   5398   5410     1  180.0000771  2.0083200  2
   5395   5394   5398   5410     1  0.0000000  1.2552000  3
   5395   5394   5401   5404     1  180.0000771  2.0083200  2
   5395   5394   5401   5404     1  0.0000000  1.2552000  3
   5395   5407   5419  10159     1  0.0000000  0.6508444  3
   5398   5394   5395   5407     1  180.0000771  2.0083200  2
   5398   5394   5395   5407     1  0.0000000  1.2552000  3
   5398   5394   5401   5404     1  180.0000771  2.0083200  2
   5398   5394   5401   5404     1  0.0000000  1.2552000  3
   5398   5410   5416  10136     1  0.0000000  0.6508444  3
   5401   5394   5395   5407     1  180.0000771  2.0083200  2
   5401   5394   5395   5407     1  0.0000000  1.2552000  3
   5401   5394   5398   5410     1  180.0000771  2.0083200  2
   5401   5394   5398   5410     1  0.0000000  1.2552000  3
   5401   5404   5413   5422     1  0.0000000  0.6508444  3
   5407   5419  10159  10155     1  180.0000771  0.4184000  2
   5407   5419  10159  10155     1  0.0000000  1.6024720  3
   5410   5416  10136  10132     1  180.0000771  0.4184000  2
   5410   5416  10136  10132     1  0.0000000  1.6024720  3
   5416  10136  10132  10131     1  180.0000771  0.4184000  2
   5416  10136  10132  10131     1  0.0000000  1.6024720  3
   5416  10136  10132  10148     1  180.0000771  5.6484000  1
   5416  10136  10132  10148     1  180.0000771  3.5564000  2
   5416  10136  10132  10148     1  0.0000000  0.4184000  3
   5419  10159  10155  10171     1  180.0000771  5.6484000  1
   5419  10159  10155  10171     1  180.0000771  3.5564000  2
   5419  10159  10155  10171     1  0.0000000  0.4184000  3
   5419  10159  10155  10154     1  180.0000771  0.4184000  2
   5419  10159  10155  10154     1  0.0000000  1.6024720  3
   5423   5424   5436   5448     1  0.0000000  0.6508444  3
   5423   5427   5439   5445     1  0.0000000  0.6508444  3
   5423   5430   5433   5442     1  0.0000000  0.6508444  3
   5424   5423   5427   5439     1  180.0000771  2.0083200  2
   5424   5423   5427   5439     1  0.0000000  1.2552000  3
   5424   5423   5430   5433     1  180.0000771  2.0083200  2
   5424   5423   5430   5433     1  0.0000000  1.2552000  3
   5424   5436   5448  10205     1  0.0000000  0.6508444  3
   5427   5423   5424   5436     1  180.0000771  2.0083200  2
   5427   5423   5424   5436     1  0.0000000  1.2552000  3
   5427   5423   5430   5433     1  180.0000771  2.0083200  2
   5427   5423   5430   5433     1  0.0000000  1.2552000  3
   5427   5439   5445  10182     1  0.0000000  0.6508444  3
   5430   5423   5424   5436     1  180.0000771  2.0083200  2
   5430   5423   5424   5436     1  0.0000000  1.2552000  3
   5430   5423   5427   5439     1  180.0000771  2.0083200  2
   5430   5423   5427   5439     1  0.0000000  1.2552000  3
   5430   5433   5442   5451     1  0.0000000  0.6508444  3
   5436   5448  10205  10201     1  180.0000771  0.4184000  2
   5436   5448  10205  10201     1  0.0000000  1.6024720  3
   5439   5445  10182  10178     1  180.0000771  0.4184000  2
   5439   5445  10182  10178     1  0.0000000  1.6024720  3
   5445  10182  10178  10177     1  180.0000771  0.4184000  2
   5445  10182  10178  10177     1  0.0000000  1.6024720  3
   5445  10182  10178  10194     1  180.0000771  5.6484000  1
   5445  10182  10178  10194     1  180.0000771  3.5564000  2
   5445  10182  10178  10194     1  0.0000000  0.4184000  3
   5448  10205  10201  10217     1  180.0000771  5.6484000  1
   5448  10205  10201  10217     1  180.0000771  3.5564000  2
   5448  10205  10201  10217     1  0.0000000  0.4184000  3
   5448  10205  10201  10200     1  180.0000771  0.4184000  2
   5448  10205  10201  10200     1  0.0000000  1.6024720  3
   5452   5453   5465   5477     1  0.0000000  0.6508444  3
   5452   5456   5468   5474     1  0.0000000  0.6508444  3
   5452   5459   5462   5471     1  0.0000000  0.6508444  3
   5453   5452   5456   5468     1  180.0000771  2.0083200  2
   5453   5452   5456   5468     1  0.0000000  1.2552000  3
   5453   5452   5459   5462     1  180.0000771  2.0083200  2
   5453   5452   5459   5462     1  0.0000000  1.2552000  3
   5453   5465   5477  10251     1  0.0000000  0.6508444  3
   5456   5452   5453   5465     1  180.0000771  2.0083200  2
   5456   5452   5453   5465     1  0.0000000  1.2552000  3
   5456   5452   5459   5462     1  180.0000771  2.0083200  2
   5456   5452   5459   5462     1  0.0000000  1.2552000  3
   5456   5468   5474  10228     1  0.0000000  0.6508444  3
   5459   5452   5453   5465     1  180.0000771  2.0083200  2
   5459   5452   5453   5465     1  0.0000000  1.2552000  3
   5459   5452   5456   5468     1  180.0000771  2.0083200  2
   5459   5452   5456   5468     1  0.0000000  1.2552000  3
   5459   5462   5471   5480     1  0.0000000  0.6508444  3
   5465   5477  10251  10247     1  180.0000771  0.4184000  2
   5465   5477  10251  10247     1  0.0000000  1.6024720  3
   5468   5474  10228  10224     1  180.0000771  0.4184000  2
   5468   5474  10228  10224     1  0.0000000  1.6024720  3
   5474  10228  10224  10223     1  180.0000771  0.4184000  2
   5474  10228  10224  10223     1  0.0000000  1.6024720  3
   5474  10228  10224  10240     1  180.0000771  5.6484000  1
   5474  10228  10224  10240     1  180.0000771  3.5564000  2
   5474  10228  10224  10240     1  0.0000000  0.4184000  3
   5477  10251  10247  10263     1  180.0000771  5.6484000  1
   5477  10251  10247  10263     1  180.0000771  3.5564000  2
   5477  10251  10247  10263     1  0.0000000  0.4184000  3
   5477  10251  10247  10246     1  180.0000771  0.4184000  2
   5477  10251  10247  10246     1  0.0000000  1.6024720  3
   5481   5482   5494   5506     1  0.0000000  0.6508444  3
   5481   5485   5497   5503     1  0.0000000  0.6508444  3
   5481   5488   5491   5500     1  0.0000000  0.6508444  3
   5482   5481   5485   5497     1  180.0000771  2.0083200  2
   5482   5481   5485   5497     1  0.0000000  1.2552000  3
   5482   5481   5488   5491     1  180.0000771  2.0083200  2
   5482   5481   5488   5491     1  0.0000000  1.2552000  3
   5482   5494   5506  10297     1  0.0000000  0.6508444  3
   5485   5481   5482   5494     1  180.0000771  2.0083200  2
   5485   5481   5482   5494     1  0.0000000  1.2552000  3
   5485   5481   5488   5491     1  180.0000771  2.0083200  2
   5485   5481   5488   5491     1  0.0000000  1.2552000  3
   5485   5497   5503  10274     1  0.0000000  0.6508444  3
   5488   5481   5482   5494     1  180.0000771  2.0083200  2
   5488   5481   5482   5494     1  0.0000000  1.2552000  3
   5488   5481   5485   5497     1  180.0000771  2.0083200  2
   5488   5481   5485   5497     1  0.0000000  1.2552000  3
   5488   5491   5500   5509     1  0.0000000  0.6508444  3
   5494   5506  10297  10293     1  180.0000771  0.4184000  2
   5494   5506  10297  10293     1  0.0000000  1.6024720  3
   5497   5503  10274  10270     1  180.0000771  0.4184000  2
   5497   5503  10274  10270     1  0.0000000  1.6024720  3
   5503  10274  10270  10269     1  180.0000771  0.4184000  2
   5503  10274  10270  10269     1  0.0000000  1.6024720  3
   5503  10274  10270  10286     1  180.0000771  5.6484000  1
   5503  10274  10270  10286     1  180.0000771  3.5564000  2
   5503  10274  10270  10286     1  0.0000000  0.4184000  3
   5506  10297  10293  10309     1  180.0000771  5.6484000  1
   5506  10297  10293  10309     1  180.0000771  3.5564000  2
   5506  10297  10293  10309     1  0.0000000  0.4184000  3
   5506  10297  10293  10292     1  180.0000771  0.4184000  2
   5506  10297  10293  10292     1  0.0000000  1.6024720  3
   5510   5511   5523   5535     1  0.0000000  0.6508444  3
   5510   5514   5526   5532     1  0.0000000  0.6508444  3
   5510   5517   5520   5529     1  0.0000000  0.6508444  3
   5511   5510   5514   5526     1  180.0000771  2.0083200  2
   5511   5510   5514   5526     1  0.0000000  1.2552000  3
   5511   5510   5517   5520     1  180.0000771  2.0083200  2
   5511   5510   5517   5520     1  0.0000000  1.2552000  3
   5511   5523   5535  10343     1  0.0000000  0.6508444  3
   5514   5510   5511   5523     1  180.0000771  2.0083200  2
   5514   5510   5511   5523     1  0.0000000  1.2552000  3
   5514   5510   5517   5520     1  180.0000771  2.0083200  2
   5514   5510   5517   5520     1  0.0000000  1.2552000  3
   5514   5526   5532  10320     1  0.0000000  0.6508444  3
   5517   5510   5511   5523     1  180.0000771  2.0083200  2
   5517   5510   5511   5523     1  0.0000000  1.2552000  3
   5517   5510   5514   5526     1  180.0000771  2.0083200  2
   5517   5510   5514   5526     1  0.0000000  1.2552000  3
   5517   5520   5529   5538     1  0.0000000  0.6508444  3
   5523   5535  10343  10339     1  180.0000771  0.4184000  2
   5523   5535  10343  10339     1  0.0000000  1.6024720  3
   5526   5532  10320  10316     1  180.0000771  0.4184000  2
   5526   5532  10320  10316     1  0.0000000  1.6024720  3
   5532  10320  10316  10315     1  180.0000771  0.4184000  2
   5532  10320  10316  10315     1  0.0000000  1.6024720  3
   5532  10320  10316  10332     1  180.0000771  5.6484000  1
   5532  10320  10316  10332     1  180.0000771  3.5564000  2
   5532  10320  10316  10332     1  0.0000000  0.4184000  3
   5535  10343  10339  10355     1  180.0000771  5.6484000  1
   5535  10343  10339  10355     1  180.0000771  3.5564000  2
   5535  10343  10339  10355     1  0.0000000  0.4184000  3
   5535  10343  10339  10338     1  180.0000771  0.4184000  2
   5535  10343  10339  10338     1  0.0000000  1.6024720  3
   5539   5540   5552   5564     1  0.0000000  0.6508444  3
   5539   5543   5555   5561     1  0.0000000  0.6508444  3
   5539   5546   5549   5558     1  0.0000000  0.6508444  3
   5540   5539   5543   5555     1  180.0000771  2.0083200  2
   5540   5539   5543   5555     1  0.0000000  1.2552000  3
   5540   5539   5546   5549     1  180.0000771  2.0083200  2
   5540   5539   5546   5549     1  0.0000000  1.2552000  3
   5540   5552   5564  10389     1  0.0000000  0.6508444  3
   5543   5539   5540   5552     1  180.0000771  2.0083200  2
   5543   5539   5540   5552     1  0.0000000  1.2552000  3
   5543   5539   5546   5549     1  180.0000771  2.0083200  2
   5543   5539   5546   5549     1  0.0000000  1.2552000  3
   5543   5555   5561  10366     1  0.0000000  0.6508444  3
   5546   5539   5540   5552     1  180.0000771  2.0083200  2
   5546   5539   5540   5552     1  0.0000000  1.2552000  3
   5546   5539   5543   5555     1  180.0000771  2.0083200  2
   5546   5539   5543   5555     1  0.0000000  1.2552000  3
   5546   5549   5558   5567     1  0.0000000  0.6508444  3
   5552   5564  10389  10385     1  180.0000771  0.4184000  2
   5552   5564  10389  10385     1  0.0000000  1.6024720  3
   5555   5561  10366  10362     1  180.0000771  0.4184000  2
   5555   5561  10366  10362     1  0.0000000  1.6024720  3
   5561  10366  10362  10361     1  180.0000771  0.4184000  2
   5561  10366  10362  10361     1  0.0000000  1.6024720  3
   5561  10366  10362  10378     1  180.0000771  5.6484000  1
   5561  10366  10362  10378     1  180.0000771  3.5564000  2
   5561  10366  10362  10378     1  0.0000000  0.4184000  3
   5564  10389  10385  10401     1  180.0000771  5.6484000  1
   5564  10389  10385  10401     1  180.0000771  3.5564000  2
   5564  10389  10385  10401     1  0.0000000  0.4184000  3
   5564  10389  10385  10384     1  180.0000771  0.4184000  2
   5564  10389  10385  10384     1  0.0000000  1.6024720  3
   5568   5569   5581   5593     1  0.0000000  0.6508444  3
   5568   5572   5584   5590     1  0.0000000  0.6508444  3
   5568   5575   5578   5587     1  0.0000000  0.6508444  3
   5569   5568   5572   5584     1  180.0000771  2.0083200  2
   5569   5568   5572   5584     1  0.0000000  1.2552000  3
   5569   5568   5575   5578     1  180.0000771  2.0083200  2
   5569   5568   5575   5578     1  0.0000000  1.2552000  3
   5569   5581   5593  10435     1  0.0000000  0.6508444  3
   5572   5568   5569   5581     1  180.0000771  2.0083200  2
   5572   5568   5569   5581     1  0.0000000  1.2552000  3
   5572   5568   5575   5578     1  180.0000771  2.0083200  2
   5572   5568   5575   5578     1  0.0000000  1.2552000  3
   5572   5584   5590  10412     1  0.0000000  0.6508444  3
   5575   5568   5569   5581     1  180.0000771  2.0083200  2
   5575   5568   5569   5581     1  0.0000000  1.2552000  3
   5575   5568   5572   5584     1  180.0000771  2.0083200  2
   5575   5568   5572   5584     1  0.0000000  1.2552000  3
   5575   5578   5587   5596     1  0.0000000  0.6508444  3
   5581   5593  10435  10431     1  180.0000771  0.4184000  2
   5581   5593  10435  10431     1  0.0000000  1.6024720  3
   5584   5590  10412  10408     1  180.0000771  0.4184000  2
   5584   5590  10412  10408     1  0.0000000  1.6024720  3
   5590  10412  10408  10407     1  180.0000771  0.4184000  2
   5590  10412  10408  10407     1  0.0000000  1.6024720  3
   5590  10412  10408  10424     1  180.0000771  5.6484000  1
   5590  10412  10408  10424     1  180.0000771  3.5564000  2
   5590  10412  10408  10424     1  0.0000000  0.4184000  3
   5593  10435  10431  10447     1  180.0000771  5.6484000  1
   5593  10435  10431  10447     1  180.0000771  3.5564000  2
   5593  10435  10431  10447     1  0.0000000  0.4184000  3
   5593  10435  10431  10430     1  180.0000771  0.4184000  2
   5593  10435  10431  10430     1  0.0000000  1.6024720  3
   5597   5598   5610   5622     1  0.0000000  0.6508444  3
   5597   5601   5613   5619     1  0.0000000  0.6508444  3
   5597   5604   5607   5616     1  0.0000000  0.6508444  3
   5598   5597   5601   5613     1  180.0000771  2.0083200  2
   5598   5597   5601   5613     1  0.0000000  1.2552000  3
   5598   5597   5604   5607     1  180.0000771  2.0083200  2
   5598   5597   5604   5607     1  0.0000000  1.2552000  3
   5598   5610   5622  10481     1  0.0000000  0.6508444  3
   5601   5597   5598   5610     1  180.0000771  2.0083200  2
   5601   5597   5598   5610     1  0.0000000  1.2552000  3
   5601   5597   5604   5607     1  180.0000771  2.0083200  2
   5601   5597   5604   5607     1  0.0000000  1.2552000  3
   5601   5613   5619  10458     1  0.0000000  0.6508444  3
   5604   5597   5598   5610     1  180.0000771  2.0083200  2
   5604   5597   5598   5610     1  0.0000000  1.2552000  3
   5604   5597   5601   5613     1  180.0000771  2.0083200  2
   5604   5597   5601   5613     1  0.0000000  1.2552000  3
   5604   5607   5616   5625     1  0.0000000  0.6508444  3
   5610   5622  10481  10477     1  180.0000771  0.4184000  2
   5610   5622  10481  10477     1  0.0000000  1.6024720  3
   5613   5619  10458  10454     1  180.0000771  0.4184000  2
   5613   5619  10458  10454     1  0.0000000  1.6024720  3
   5619  10458  10454  10453     1  180.0000771  0.4184000  2
   5619  10458  10454  10453     1  0.0000000  1.6024720  3
   5619  10458  10454  10470     1  180.0000771  5.6484000  1
   5619  10458  10454  10470     1  180.0000771  3.5564000  2
   5619  10458  10454  10470     1  0.0000000  0.4184000  3
   5622  10481  10477  10493     1  180.0000771  5.6484000  1
   5622  10481  10477  10493     1  180.0000771  3.5564000  2
   5622  10481  10477  10493     1  0.0000000  0.4184000  3
   5622  10481  10477  10476     1  180.0000771  0.4184000  2
   5622  10481  10477  10476     1  0.0000000  1.6024720  3
   5626   5627   5639   5651     1  0.0000000  0.6508444  3
   5626   5630   5642   5648     1  0.0000000  0.6508444  3
   5626   5633   5636   5645     1  0.0000000  0.6508444  3
   5627   5626   5630   5642     1  180.0000771  2.0083200  2
   5627   5626   5630   5642     1  0.0000000  1.2552000  3
   5627   5626   5633   5636     1  180.0000771  2.0083200  2
   5627   5626   5633   5636     1  0.0000000  1.2552000  3
   5627   5639   5651  10527     1  0.0000000  0.6508444  3
   5630   5626   5627   5639     1  180.0000771  2.0083200  2
   5630   5626   5627   5639     1  0.0000000  1.2552000  3
   5630   5626   5633   5636     1  180.0000771  2.0083200  2
   5630   5626   5633   5636     1  0.0000000  1.2552000  3
   5630   5642   5648  10504     1  0.0000000  0.6508444  3
   5633   5626   5627   5639     1  180.0000771  2.0083200  2
   5633   5626   5627   5639     1  0.0000000  1.2552000  3
   5633   5626   5630   5642     1  180.0000771  2.0083200  2
   5633   5626   5630   5642     1  0.0000000  1.2552000  3
   5633   5636   5645   5654     1  0.0000000  0.6508444  3
   5639   5651  10527  10523     1  180.0000771  0.4184000  2
   5639   5651  10527  10523     1  0.0000000  1.6024720  3
   5642   5648  10504  10500     1  180.0000771  0.4184000  2
   5642   5648  10504  10500     1  0.0000000  1.6024720  3
   5648  10504  10500  10499     1  180.0000771  0.4184000  2
   5648  10504  10500  10499     1  0.0000000  1.6024720  3
   5648  10504  10500  10516     1  180.0000771  5.6484000  1
   5648  10504  10500  10516     1  180.0000771  3.5564000  2
   5648  10504  10500  10516     1  0.0000000  0.4184000  3
   5651  10527  10523  10539     1  180.0000771  5.6484000  1
   5651  10527  10523  10539     1  180.0000771  3.5564000  2
   5651  10527  10523  10539     1  0.0000000  0.4184000  3
   5651  10527  10523  10522     1  180.0000771  0.4184000  2
   5651  10527  10523  10522     1  0.0000000  1.6024720  3
   5655   5656   5668   5680     1  0.0000000  0.6508444  3
   5655   5659   5671   5677     1  0.0000000  0.6508444  3
   5655   5662   5665   5674     1  0.0000000  0.6508444  3
   5656   5655   5659   5671     1  180.0000771  2.0083200  2
   5656   5655   5659   5671     1  0.0000000  1.2552000  3
   5656   5655   5662   5665     1  180.0000771  2.0083200  2
   5656   5655   5662   5665     1  0.0000000  1.2552000  3
   5656   5668   5680  10573     1  0.0000000  0.6508444  3
   5659   5655   5656   5668     1  180.0000771  2.0083200  2
   5659   5655   5656   5668     1  0.0000000  1.2552000  3
   5659   5655   5662   5665     1  180.0000771  2.0083200  2
   5659   5655   5662   5665     1  0.0000000  1.2552000  3
   5659   5671   5677  10550     1  0.0000000  0.6508444  3
   5662   5655   5656   5668     1  180.0000771  2.0083200  2
   5662   5655   5656   5668     1  0.0000000  1.2552000  3
   5662   5655   5659   5671     1  180.0000771  2.0083200  2
   5662   5655   5659   5671     1  0.0000000  1.2552000  3
   5662   5665   5674   5683     1  0.0000000  0.6508444  3
   5668   5680  10573  10569     1  180.0000771  0.4184000  2
   5668   5680  10573  10569     1  0.0000000  1.6024720  3
   5671   5677  10550  10546     1  180.0000771  0.4184000  2
   5671   5677  10550  10546     1  0.0000000  1.6024720  3
   5677  10550  10546  10545     1  180.0000771  0.4184000  2
   5677  10550  10546  10545     1  0.0000000  1.6024720  3
   5677  10550  10546  10562     1  180.0000771  5.6484000  1
   5677  10550  10546  10562     1  180.0000771  3.5564000  2
   5677  10550  10546  10562     1  0.0000000  0.4184000  3
   5680  10573  10569  10585     1  180.0000771  5.6484000  1
   5680  10573  10569  10585     1  180.0000771  3.5564000  2
   5680  10573  10569  10585     1  0.0000000  0.4184000  3
   5680  10573  10569  10568     1  180.0000771  0.4184000  2
   5680  10573  10569  10568     1  0.0000000  1.6024720  3
   5684   5685   5697   5709     1  0.0000000  0.6508444  3
   5684   5688   5700   5706     1  0.0000000  0.6508444  3
   5684   5691   5694   5703     1  0.0000000  0.6508444  3
   5685   5684   5688   5700     1  180.0000771  2.0083200  2
   5685   5684   5688   5700     1  0.0000000  1.2552000  3
   5685   5684   5691   5694     1  180.0000771  2.0083200  2
   5685   5684   5691   5694     1  0.0000000  1.2552000  3
   5685   5697   5709  10619     1  0.0000000  0.6508444  3
   5688   5684   5685   5697     1  180.0000771  2.0083200  2
   5688   5684   5685   5697     1  0.0000000  1.2552000  3
   5688   5684   5691   5694     1  180.0000771  2.0083200  2
   5688   5684   5691   5694     1  0.0000000  1.2552000  3
   5688   5700   5706  10596     1  0.0000000  0.6508444  3
   5691   5684   5685   5697     1  180.0000771  2.0083200  2
   5691   5684   5685   5697     1  0.0000000  1.2552000  3
   5691   5684   5688   5700     1  180.0000771  2.0083200  2
   5691   5684   5688   5700     1  0.0000000  1.2552000  3
   5691   5694   5703   5712     1  0.0000000  0.6508444  3
   5697   5709  10619  10615     1  180.0000771  0.4184000  2
   5697   5709  10619  10615     1  0.0000000  1.6024720  3
   5700   5706  10596  10592     1  180.0000771  0.4184000  2
   5700   5706  10596  10592     1  0.0000000  1.6024720  3
   5706  10596  10592  10591     1  180.0000771  0.4184000  2
   5706  10596  10592  10591     1  0.0000000  1.6024720  3
   5706  10596  10592  10608     1  180.0000771  5.6484000  1
   5706  10596  10592  10608     1  180.0000771  3.5564000  2
   5706  10596  10592  10608     1  0.0000000  0.4184000  3
   5709  10619  10615  10631     1  180.0000771  5.6484000  1
   5709  10619  10615  10631     1  180.0000771  3.5564000  2
   5709  10619  10615  10631     1  0.0000000  0.4184000  3
   5709  10619  10615  10614     1  180.0000771  0.4184000  2
   5709  10619  10615  10614     1  0.0000000  1.6024720  3
   5713   5714   5726   5738     1  0.0000000  0.6508444  3
   5713   5717   5729   5735     1  0.0000000  0.6508444  3
   5713   5720   5723   5732     1  0.0000000  0.6508444  3
   5714   5713   5717   5729     1  180.0000771  2.0083200  2
   5714   5713   5717   5729     1  0.0000000  1.2552000  3
   5714   5713   5720   5723     1  180.0000771  2.0083200  2
   5714   5713   5720   5723     1  0.0000000  1.2552000  3
   5714   5726   5738  10665     1  0.0000000  0.6508444  3
   5717   5713   5714   5726     1  180.0000771  2.0083200  2
   5717   5713   5714   5726     1  0.0000000  1.2552000  3
   5717   5713   5720   5723     1  180.0000771  2.0083200  2
   5717   5713   5720   5723     1  0.0000000  1.2552000  3
   5717   5729   5735  10642     1  0.0000000  0.6508444  3
   5720   5713   5714   5726     1  180.0000771  2.0083200  2
   5720   5713   5714   5726     1  0.0000000  1.2552000  3
   5720   5713   5717   5729     1  180.0000771  2.0083200  2
   5720   5713   5717   5729     1  0.0000000  1.2552000  3
   5720   5723   5732   5741     1  0.0000000  0.6508444  3
   5726   5738  10665  10661     1  180.0000771  0.4184000  2
   5726   5738  10665  10661     1  0.0000000  1.6024720  3
   5729   5735  10642  10638     1  180.0000771  0.4184000  2
   5729   5735  10642  10638     1  0.0000000  1.6024720  3
   5735  10642  10638  10637     1  180.0000771  0.4184000  2
   5735  10642  10638  10637     1  0.0000000  1.6024720  3
   5735  10642  10638  10654     1  180.0000771  5.6484000  1
   5735  10642  10638  10654     1  180.0000771  3.5564000  2
   5735  10642  10638  10654     1  0.0000000  0.4184000  3
   5738  10665  10661  10677     1  180.0000771  5.6484000  1
   5738  10665  10661  10677     1  180.0000771  3.5564000  2
   5738  10665  10661  10677     1  0.0000000  0.4184000  3
   5738  10665  10661  10660     1  180.0000771  0.4184000  2
   5738  10665  10661  10660     1  0.0000000  1.6024720  3
   5742   5743   5755   5767     1  0.0000000  0.6508444  3
   5742   5746   5758   5764     1  0.0000000  0.6508444  3
   5742   5749   5752   5761     1  0.0000000  0.6508444  3
   5743   5742   5746   5758     1  180.0000771  2.0083200  2
   5743   5742   5746   5758     1  0.0000000  1.2552000  3
   5743   5742   5749   5752     1  180.0000771  2.0083200  2
   5743   5742   5749   5752     1  0.0000000  1.2552000  3
   5743   5755   5767  10711     1  0.0000000  0.6508444  3
   5746   5742   5743   5755     1  180.0000771  2.0083200  2
   5746   5742   5743   5755     1  0.0000000  1.2552000  3
   5746   5742   5749   5752     1  180.0000771  2.0083200  2
   5746   5742   5749   5752     1  0.0000000  1.2552000  3
   5746   5758   5764  10688     1  0.0000000  0.6508444  3
   5749   5742   5743   5755     1  180.0000771  2.0083200  2
   5749   5742   5743   5755     1  0.0000000  1.2552000  3
   5749   5742   5746   5758     1  180.0000771  2.0083200  2
   5749   5742   5746   5758     1  0.0000000  1.2552000  3
   5749   5752   5761   5770     1  0.0000000  0.6508444  3
   5755   5767  10711  10707     1  180.0000771  0.4184000  2
   5755   5767  10711  10707     1  0.0000000  1.6024720  3
   5758   5764  10688  10684     1  180.0000771  0.4184000  2
   5758   5764  10688  10684     1  0.0000000  1.6024720  3
   5764  10688  10684  10683     1  180.0000771  0.4184000  2
   5764  10688  10684  10683     1  0.0000000  1.6024720  3
   5764  10688  10684  10700     1  180.0000771  5.6484000  1
   5764  10688  10684  10700     1  180.0000771  3.5564000  2
   5764  10688  10684  10700     1  0.0000000  0.4184000  3
   5767  10711  10707  10723     1  180.0000771  5.6484000  1
   5767  10711  10707  10723     1  180.0000771  3.5564000  2
   5767  10711  10707  10723     1  0.0000000  0.4184000  3
   5767  10711  10707  10706     1  180.0000771  0.4184000  2
   5767  10711  10707  10706     1  0.0000000  1.6024720  3
   5771   5772   5784   5796     1  0.0000000  0.6508444  3
   5771   5775   5787   5793     1  0.0000000  0.6508444  3
   5771   5778   5781   5790     1  0.0000000  0.6508444  3
   5772   5771   5775   5787     1  180.0000771  2.0083200  2
   5772   5771   5775   5787     1  0.0000000  1.2552000  3
   5772   5771   5778   5781     1  180.0000771  2.0083200  2
   5772   5771   5778   5781     1  0.0000000  1.2552000  3
   5772   5784   5796  10757     1  0.0000000  0.6508444  3
   5775   5771   5772   5784     1  180.0000771  2.0083200  2
   5775   5771   5772   5784     1  0.0000000  1.2552000  3
   5775   5771   5778   5781     1  180.0000771  2.0083200  2
   5775   5771   5778   5781     1  0.0000000  1.2552000  3
   5775   5787   5793  10734     1  0.0000000  0.6508444  3
   5778   5771   5772   5784     1  180.0000771  2.0083200  2
   5778   5771   5772   5784     1  0.0000000  1.2552000  3
   5778   5771   5775   5787     1  180.0000771  2.0083200  2
   5778   5771   5775   5787     1  0.0000000  1.2552000  3
   5778   5781   5790   5799     1  0.0000000  0.6508444  3
   5784   5796  10757  10753     1  180.0000771  0.4184000  2
   5784   5796  10757  10753     1  0.0000000  1.6024720  3
   5787   5793  10734  10730     1  180.0000771  0.4184000  2
   5787   5793  10734  10730     1  0.0000000  1.6024720  3
   5793  10734  10730  10729     1  180.0000771  0.4184000  2
   5793  10734  10730  10729     1  0.0000000  1.6024720  3
   5793  10734  10730  10746     1  180.0000771  5.6484000  1
   5793  10734  10730  10746     1  180.0000771  3.5564000  2
   5793  10734  10730  10746     1  0.0000000  0.4184000  3
   5796  10757  10753  10769     1  180.0000771  5.6484000  1
   5796  10757  10753  10769     1  180.0000771  3.5564000  2
   5796  10757  10753  10769     1  0.0000000  0.4184000  3
   5796  10757  10753  10752     1  180.0000771  0.4184000  2
   5796  10757  10753  10752     1  0.0000000  1.6024720  3
   5800   5801   5813   5825     1  0.0000000  0.6508444  3
   5800   5804   5816   5822     1  0.0000000  0.6508444  3
   5800   5807   5810   5819     1  0.0000000  0.6508444  3
   5801   5800   5804   5816     1  180.0000771  2.0083200  2
   5801   5800   5804   5816     1  0.0000000  1.2552000  3
   5801   5800   5807   5810     1  180.0000771  2.0083200  2
   5801   5800   5807   5810     1  0.0000000  1.2552000  3
   5801   5813   5825  10803     1  0.0000000  0.6508444  3
   5804   5800   5801   5813     1  180.0000771  2.0083200  2
   5804   5800   5801   5813     1  0.0000000  1.2552000  3
   5804   5800   5807   5810     1  180.0000771  2.0083200  2
   5804   5800   5807   5810     1  0.0000000  1.2552000  3
   5804   5816   5822  10780     1  0.0000000  0.6508444  3
   5807   5800   5801   5813     1  180.0000771  2.0083200  2
   5807   5800   5801   5813     1  0.0000000  1.2552000  3
   5807   5800   5804   5816     1  180.0000771  2.0083200  2
   5807   5800   5804   5816     1  0.0000000  1.2552000  3
   5807   5810   5819   5828     1  0.0000000  0.6508444  3
   5813   5825  10803  10799     1  180.0000771  0.4184000  2
   5813   5825  10803  10799     1  0.0000000  1.6024720  3
   5816   5822  10780  10776     1  180.0000771  0.4184000  2
   5816   5822  10780  10776     1  0.0000000  1.6024720  3
   5822  10780  10776  10775     1  180.0000771  0.4184000  2
   5822  10780  10776  10775     1  0.0000000  1.6024720  3
   5822  10780  10776  10792     1  180.0000771  5.6484000  1
   5822  10780  10776  10792     1  180.0000771  3.5564000  2
   5822  10780  10776  10792     1  0.0000000  0.4184000  3
   5825  10803  10799  10815     1  180.0000771  5.6484000  1
   5825  10803  10799  10815     1  180.0000771  3.5564000  2
   5825  10803  10799  10815     1  0.0000000  0.4184000  3
   5825  10803  10799  10798     1  180.0000771  0.4184000  2
   5825  10803  10799  10798     1  0.0000000  1.6024720  3
   5829   5830   5842   5854     1  0.0000000  0.6508444  3
   5829   5833   5845   5851     1  0.0000000  0.6508444  3
   5829   5836   5839   5848     1  0.0000000  0.6508444  3
   5830   5829   5833   5845     1  180.0000771  2.0083200  2
   5830   5829   5833   5845     1  0.0000000  1.2552000  3
   5830   5829   5836   5839     1  180.0000771  2.0083200  2
   5830   5829   5836   5839     1  0.0000000  1.2552000  3
   5830   5842   5854  10849     1  0.0000000  0.6508444  3
   5833   5829   5830   5842     1  180.0000771  2.0083200  2
   5833   5829   5830   5842     1  0.0000000  1.2552000  3
   5833   5829   5836   5839     1  180.0000771  2.0083200  2
   5833   5829   5836   5839     1  0.0000000  1.2552000  3
   5833   5845   5851  10826     1  0.0000000  0.6508444  3
   5836   5829   5830   5842     1  180.0000771  2.0083200  2
   5836   5829   5830   5842     1  0.0000000  1.2552000  3
   5836   5829   5833   5845     1  180.0000771  2.0083200  2
   5836   5829   5833   5845     1  0.0000000  1.2552000  3
   5836   5839   5848   5857     1  0.0000000  0.6508444  3
   5842   5854  10849  10845     1  180.0000771  0.4184000  2
   5842   5854  10849  10845     1  0.0000000  1.6024720  3
   5845   5851  10826  10822     1  180.0000771  0.4184000  2
   5845   5851  10826  10822     1  0.0000000  1.6024720  3
   5851  10826  10822  10821     1  180.0000771  0.4184000  2
   5851  10826  10822  10821     1  0.0000000  1.6024720  3
   5851  10826  10822  10838     1  180.0000771  5.6484000  1
   5851  10826  10822  10838     1  180.0000771  3.5564000  2
   5851  10826  10822  10838     1  0.0000000  0.4184000  3
   5854  10849  10845  10861     1  180.0000771  5.6484000  1
   5854  10849  10845  10861     1  180.0000771  3.5564000  2
   5854  10849  10845  10861     1  0.0000000  0.4184000  3
   5854  10849  10845  10844     1  180.0000771  0.4184000  2
   5854  10849  10845  10844     1  0.0000000  1.6024720  3
   5858   5859   5871   5883     1  0.0000000  0.6508444  3
   5858   5862   5874   5880     1  0.0000000  0.6508444  3
   5858   5865   5868   5877     1  0.0000000  0.6508444  3
   5859   5858   5862   5874     1  180.0000771  2.0083200  2
   5859   5858   5862   5874     1  0.0000000  1.2552000  3
   5859   5858   5865   5868     1  180.0000771  2.0083200  2
   5859   5858   5865   5868     1  0.0000000  1.2552000  3
   5859   5871   5883  10895     1  0.0000000  0.6508444  3
   5862   5858   5859   5871     1  180.0000771  2.0083200  2
   5862   5858   5859   5871     1  0.0000000  1.2552000  3
   5862   5858   5865   5868     1  180.0000771  2.0083200  2
   5862   5858   5865   5868     1  0.0000000  1.2552000  3
   5862   5874   5880  10872     1  0.0000000  0.6508444  3
   5865   5858   5859   5871     1  180.0000771  2.0083200  2
   5865   5858   5859   5871     1  0.0000000  1.2552000  3
   5865   5858   5862   5874     1  180.0000771  2.0083200  2
   5865   5858   5862   5874     1  0.0000000  1.2552000  3
   5865   5868   5877   5886     1  0.0000000  0.6508444  3
   5871   5883  10895  10891     1  180.0000771  0.4184000  2
   5871   5883  10895  10891     1  0.0000000  1.6024720  3
   5874   5880  10872  10868     1  180.0000771  0.4184000  2
   5874   5880  10872  10868     1  0.0000000  1.6024720  3
   5880  10872  10868  10867     1  180.0000771  0.4184000  2
   5880  10872  10868  10867     1  0.0000000  1.6024720  3
   5880  10872  10868  10884     1  180.0000771  5.6484000  1
   5880  10872  10868  10884     1  180.0000771  3.5564000  2
   5880  10872  10868  10884     1  0.0000000  0.4184000  3
   5883  10895  10891  10907     1  180.0000771  5.6484000  1
   5883  10895  10891  10907     1  180.0000771  3.5564000  2
   5883  10895  10891  10907     1  0.0000000  0.4184000  3
   5883  10895  10891  10890     1  180.0000771  0.4184000  2
   5883  10895  10891  10890     1  0.0000000  1.6024720  3
   5887   5888   5900   5912     1  0.0000000  0.6508444  3
   5887   5891   5903   5909     1  0.0000000  0.6508444  3
   5887   5894   5897   5906     1  0.0000000  0.6508444  3
   5888   5887   5891   5903     1  180.0000771  2.0083200  2
   5888   5887   5891   5903     1  0.0000000  1.2552000  3
   5888   5887   5894   5897     1  180.0000771  2.0083200  2
   5888   5887   5894   5897     1  0.0000000  1.2552000  3
   5888   5900   5912  10941     1  0.0000000  0.6508444  3
   5891   5887   5888   5900     1  180.0000771  2.0083200  2
   5891   5887   5888   5900     1  0.0000000  1.2552000  3
   5891   5887   5894   5897     1  180.0000771  2.0083200  2
   5891   5887   5894   5897     1  0.0000000  1.2552000  3
   5891   5903   5909  10918     1  0.0000000  0.6508444  3
   5894   5887   5888   5900     1  180.0000771  2.0083200  2
   5894   5887   5888   5900     1  0.0000000  1.2552000  3
   5894   5887   5891   5903     1  180.0000771  2.0083200  2
   5894   5887   5891   5903     1  0.0000000  1.2552000  3
   5894   5897   5906   5915     1  0.0000000  0.6508444  3
   5900   5912  10941  10937     1  180.0000771  0.4184000  2
   5900   5912  10941  10937     1  0.0000000  1.6024720  3
   5903   5909  10918  10914     1  180.0000771  0.4184000  2
   5903   5909  10918  10914     1  0.0000000  1.6024720  3
   5909  10918  10914  10913     1  180.0000771  0.4184000  2
   5909  10918  10914  10913     1  0.0000000  1.6024720  3
   5909  10918  10914  10930     1  180.0000771  5.6484000  1
   5909  10918  10914  10930     1  180.0000771  3.5564000  2
   5909  10918  10914  10930     1  0.0000000  0.4184000  3
   5912  10941  10937  10953     1  180.0000771  5.6484000  1
   5912  10941  10937  10953     1  180.0000771  3.5564000  2
   5912  10941  10937  10953     1  0.0000000  0.4184000  3
   5912  10941  10937  10936     1  180.0000771  0.4184000  2
   5912  10941  10937  10936     1  0.0000000  1.6024720  3
   5916   5917   5929   5941     1  0.0000000  0.6508444  3
   5916   5920   5932   5938     1  0.0000000  0.6508444  3
   5916   5923   5926   5935     1  0.0000000  0.6508444  3
   5917   5916   5920   5932     1  180.0000771  2.0083200  2
   5917   5916   5920   5932     1  0.0000000  1.2552000  3
   5917   5916   5923   5926     1  180.0000771  2.0083200  2
   5917   5916   5923   5926     1  0.0000000  1.2552000  3
   5917   5929   5941  10987     1  0.0000000  0.6508444  3
   5920   5916   5917   5929     1  180.0000771  2.0083200  2
   5920   5916   5917   5929     1  0.0000000  1.2552000  3
   5920   5916   5923   5926     1  180.0000771  2.0083200  2
   5920   5916   5923   5926     1  0.0000000  1.2552000  3
   5920   5932   5938  10964     1  0.0000000  0.6508444  3
   5923   5916   5917   5929     1  180.0000771  2.0083200  2
   5923   5916   5917   5929     1  0.0000000  1.2552000  3
   5923   5916   5920   5932     1  180.0000771  2.0083200  2
   5923   5916   5920   5932     1  0.0000000  1.2552000  3
   5923   5926   5935   5944     1  0.0000000  0.6508444  3
   5929   5941  10987  10983     1  180.0000771  0.4184000  2
   5929   5941  10987  10983     1  0.0000000  1.6024720  3
   5932   5938  10964  10960     1  180.0000771  0.4184000  2
   5932   5938  10964  10960     1  0.0000000  1.6024720  3
   5938  10964  10960  10959     1  180.0000771  0.4184000  2
   5938  10964  10960  10959     1  0.0000000  1.6024720  3
   5938  10964  10960  10976     1  180.0000771  5.6484000  1
   5938  10964  10960  10976     1  180.0000771  3.5564000  2
   5938  10964  10960  10976     1  0.0000000  0.4184000  3
   5941  10987  10983  10999     1  180.0000771  5.6484000  1
   5941  10987  10983  10999     1  180.0000771  3.5564000  2
   5941  10987  10983  10999     1  0.0000000  0.4184000  3
   5941  10987  10983  10982     1  180.0000771  0.4184000  2
   5941  10987  10983  10982     1  0.0000000  1.6024720  3
   5945   5946   5958   5970     1  0.0000000  0.6508444  3
   5945   5949   5961   5967     1  0.0000000  0.6508444  3
   5945   5952   5955   5964     1  0.0000000  0.6508444  3
   5946   5945   5949   5961     1  180.0000771  2.0083200  2
   5946   5945   5949   5961     1  0.0000000  1.2552000  3
   5946   5945   5952   5955     1  180.0000771  2.0083200  2
   5946   5945   5952   5955     1  0.0000000  1.2552000  3
   5946   5958   5970  11033     1  0.0000000  0.6508444  3
   5949   5945   5946   5958     1  180.0000771  2.0083200  2
   5949   5945   5946   5958     1  0.0000000  1.2552000  3
   5949   5945   5952   5955     1  180.0000771  2.0083200  2
   5949   5945   5952   5955     1  0.0000000  1.2552000  3
   5949   5961   5967  11010     1  0.0000000  0.6508444  3
   5952   5945   5946   5958     1  180.0000771  2.0083200  2
   5952   5945   5946   5958     1  0.0000000  1.2552000  3
   5952   5945   5949   5961     1  180.0000771  2.0083200  2
   5952   5945   5949   5961     1  0.0000000  1.2552000  3
   5952   5955   5964   5973     1  0.0000000  0.6508444  3
   5958   5970  11033  11029     1  180.0000771  0.4184000  2
   5958   5970  11033  11029     1  0.0000000  1.6024720  3
   5961   5967  11010  11006     1  180.0000771  0.4184000  2
   5961   5967  11010  11006     1  0.0000000  1.6024720  3
   5967  11010  11006  11005     1  180.0000771  0.4184000  2
   5967  11010  11006  11005     1  0.0000000  1.6024720  3
   5967  11010  11006  11022     1  180.0000771  5.6484000  1
   5967  11010  11006  11022     1  180.0000771  3.5564000  2
   5967  11010  11006  11022     1  0.0000000  0.4184000  3
   5970  11033  11029  11045     1  180.0000771  5.6484000  1
   5970  11033  11029  11045     1  180.0000771  3.5564000  2
   5970  11033  11029  11045     1  0.0000000  0.4184000  3
   5970  11033  11029  11028     1  180.0000771  0.4184000  2
   5970  11033  11029  11028     1  0.0000000  1.6024720  3
   5974   5975   5987   5999     1  0.0000000  0.6508444  3
   5974   5978   5990   5996     1  0.0000000  0.6508444  3
   5974   5981   5984   5993     1  0.0000000  0.6508444  3
   5975   5974   5978   5990     1  180.0000771  2.0083200  2
   5975   5974   5978   5990     1  0.0000000  1.2552000  3
   5975   5974   5981   5984     1  180.0000771  2.0083200  2
   5975   5974   5981   5984     1  0.0000000  1.2552000  3
   5975   5987   5999  11079     1  0.0000000  0.6508444  3
   5978   5974   5975   5987     1  180.0000771  2.0083200  2
   5978   5974   5975   5987     1  0.0000000  1.2552000  3
   5978   5974   5981   5984     1  180.0000771  2.0083200  2
   5978   5974   5981   5984     1  0.0000000  1.2552000  3
   5978   5990   5996  11056     1  0.0000000  0.6508444  3
   5981   5974   5975   5987     1  180.0000771  2.0083200  2
   5981   5974   5975   5987     1  0.0000000  1.2552000  3
   5981   5974   5978   5990     1  180.0000771  2.0083200  2
   5981   5974   5978   5990     1  0.0000000  1.2552000  3
   5981   5984   5993   6002     1  0.0000000  0.6508444  3
   5987   5999  11079  11075     1  180.0000771  0.4184000  2
   5987   5999  11079  11075     1  0.0000000  1.6024720  3
   5990   5996  11056  11052     1  180.0000771  0.4184000  2
   5990   5996  11056  11052     1  0.0000000  1.6024720  3
   5996  11056  11052  11051     1  180.0000771  0.4184000  2
   5996  11056  11052  11051     1  0.0000000  1.6024720  3
   5996  11056  11052  11068     1  180.0000771  5.6484000  1
   5996  11056  11052  11068     1  180.0000771  3.5564000  2
   5996  11056  11052  11068     1  0.0000000  0.4184000  3
   5999  11079  11075  11091     1  180.0000771  5.6484000  1
   5999  11079  11075  11091     1  180.0000771  3.5564000  2
   5999  11079  11075  11091     1  0.0000000  0.4184000  3
   5999  11079  11075  11074     1  180.0000771  0.4184000  2
   5999  11079  11075  11074     1  0.0000000  1.6024720  3
   6003   6004   6016   6028     1  0.0000000  0.6508444  3
   6003   6007   6019   6025     1  0.0000000  0.6508444  3
   6003   6010   6013   6022     1  0.0000000  0.6508444  3
   6004   6003   6007   6019     1  180.0000771  2.0083200  2
   6004   6003   6007   6019     1  0.0000000  1.2552000  3
   6004   6003   6010   6013     1  180.0000771  2.0083200  2
   6004   6003   6010   6013     1  0.0000000  1.2552000  3
   6004   6016   6028  11125     1  0.0000000  0.6508444  3
   6007   6003   6004   6016     1  180.0000771  2.0083200  2
   6007   6003   6004   6016     1  0.0000000  1.2552000  3
   6007   6003   6010   6013     1  180.0000771  2.0083200  2
   6007   6003   6010   6013     1  0.0000000  1.2552000  3
   6007   6019   6025  11102     1  0.0000000  0.6508444  3
   6010   6003   6004   6016     1  180.0000771  2.0083200  2
   6010   6003   6004   6016     1  0.0000000  1.2552000  3
   6010   6003   6007   6019     1  180.0000771  2.0083200  2
   6010   6003   6007   6019     1  0.0000000  1.2552000  3
   6010   6013   6022   6031     1  0.0000000  0.6508444  3
   6016   6028  11125  11121     1  180.0000771  0.4184000  2
   6016   6028  11125  11121     1  0.0000000  1.6024720  3
   6019   6025  11102  11098     1  180.0000771  0.4184000  2
   6019   6025  11102  11098     1  0.0000000  1.6024720  3
   6025  11102  11098  11097     1  180.0000771  0.4184000  2
   6025  11102  11098  11097     1  0.0000000  1.6024720  3
   6025  11102  11098  11114     1  180.0000771  5.6484000  1
   6025  11102  11098  11114     1  180.0000771  3.5564000  2
   6025  11102  11098  11114     1  0.0000000  0.4184000  3
   6028  11125  11121  11137     1  180.0000771  5.6484000  1
   6028  11125  11121  11137     1  180.0000771  3.5564000  2
   6028  11125  11121  11137     1  0.0000000  0.4184000  3
   6028  11125  11121  11120     1  180.0000771  0.4184000  2
   6028  11125  11121  11120     1  0.0000000  1.6024720  3
   6032   6033   6045   6057     1  0.0000000  0.6508444  3
   6032   6036   6048   6054     1  0.0000000  0.6508444  3
   6032   6039   6042   6051     1  0.0000000  0.6508444  3
   6033   6032   6036   6048     1  180.0000771  2.0083200  2
   6033   6032   6036   6048     1  0.0000000  1.2552000  3
   6033   6032   6039   6042     1  180.0000771  2.0083200  2
   6033   6032   6039   6042     1  0.0000000  1.2552000  3
   6033   6045   6057  11171     1  0.0000000  0.6508444  3
   6036   6032   6033   6045     1  180.0000771  2.0083200  2
   6036   6032   6033   6045     1  0.0000000  1.2552000  3
   6036   6032   6039   6042     1  180.0000771  2.0083200  2
   6036   6032   6039   6042     1  0.0000000  1.2552000  3
   6036   6048   6054  11148     1  0.0000000  0.6508444  3
   6039   6032   6033   6045     1  180.0000771  2.0083200  2
   6039   6032   6033   6045     1  0.0000000  1.2552000  3
   6039   6032   6036   6048     1  180.0000771  2.0083200  2
   6039   6032   6036   6048     1  0.0000000  1.2552000  3
   6039   6042   6051   6060     1  0.0000000  0.6508444  3
   6045   6057  11171  11167     1  180.0000771  0.4184000  2
   6045   6057  11171  11167     1  0.0000000  1.6024720  3
   6048   6054  11148  11144     1  180.0000771  0.4184000  2
   6048   6054  11148  11144     1  0.0000000  1.6024720  3
   6054  11148  11144  11143     1  180.0000771  0.4184000  2
   6054  11148  11144  11143     1  0.0000000  1.6024720  3
   6054  11148  11144  11160     1  180.0000771  5.6484000  1
   6054  11148  11144  11160     1  180.0000771  3.5564000  2
   6054  11148  11144  11160     1  0.0000000  0.4184000  3
   6057  11171  11167  11183     1  180.0000771  5.6484000  1
   6057  11171  11167  11183     1  180.0000771  3.5564000  2
   6057  11171  11167  11183     1  0.0000000  0.4184000  3
   6057  11171  11167  11166     1  180.0000771  0.4184000  2
   6057  11171  11167  11166     1  0.0000000  1.6024720  3
   6061   6062   6074   6086     1  0.0000000  0.6508444  3
   6061   6065   6077   6083     1  0.0000000  0.6508444  3
   6061   6068   6071   6080     1  0.0000000  0.6508444  3
   6062   6061   6065   6077     1  180.0000771  2.0083200  2
   6062   6061   6065   6077     1  0.0000000  1.2552000  3
   6062   6061   6068   6071     1  180.0000771  2.0083200  2
   6062   6061   6068   6071     1  0.0000000  1.2552000  3
   6062   6074   6086  11217     1  0.0000000  0.6508444  3
   6065   6061   6062   6074     1  180.0000771  2.0083200  2
   6065   6061   6062   6074     1  0.0000000  1.2552000  3
   6065   6061   6068   6071     1  180.0000771  2.0083200  2
   6065   6061   6068   6071     1  0.0000000  1.2552000  3
   6065   6077   6083  11194     1  0.0000000  0.6508444  3
   6068   6061   6062   6074     1  180.0000771  2.0083200  2
   6068   6061   6062   6074     1  0.0000000  1.2552000  3
   6068   6061   6065   6077     1  180.0000771  2.0083200  2
   6068   6061   6065   6077     1  0.0000000  1.2552000  3
   6068   6071   6080   6089     1  0.0000000  0.6508444  3
   6074   6086  11217  11213     1  180.0000771  0.4184000  2
   6074   6086  11217  11213     1  0.0000000  1.6024720  3
   6077   6083  11194  11190     1  180.0000771  0.4184000  2
   6077   6083  11194  11190     1  0.0000000  1.6024720  3
   6083  11194  11190  11189     1  180.0000771  0.4184000  2
   6083  11194  11190  11189     1  0.0000000  1.6024720  3
   6083  11194  11190  11206     1  180.0000771  5.6484000  1
   6083  11194  11190  11206     1  180.0000771  3.5564000  2
   6083  11194  11190  11206     1  0.0000000  0.4184000  3
   6086  11217  11213  11229     1  180.0000771  5.6484000  1
   6086  11217  11213  11229     1  180.0000771  3.5564000  2
   6086  11217  11213  11229     1  0.0000000  0.4184000  3
   6086  11217  11213  11212     1  180.0000771  0.4184000  2
   6086  11217  11213  11212     1  0.0000000  1.6024720  3
   6090   6091   6103   6115     1  0.0000000  0.6508444  3
   6090   6094   6106   6112     1  0.0000000  0.6508444  3
   6090   6097   6100   6109     1  0.0000000  0.6508444  3
   6091   6090   6094   6106     1  180.0000771  2.0083200  2
   6091   6090   6094   6106     1  0.0000000  1.2552000  3
   6091   6090   6097   6100     1  180.0000771  2.0083200  2
   6091   6090   6097   6100     1  0.0000000  1.2552000  3
   6091   6103   6115  11263     1  0.0000000  0.6508444  3
   6094   6090   6091   6103     1  180.0000771  2.0083200  2
   6094   6090   6091   6103     1  0.0000000  1.2552000  3
   6094   6090   6097   6100     1  180.0000771  2.0083200  2
   6094   6090   6097   6100     1  0.0000000  1.2552000  3
   6094   6106   6112  11240     1  0.0000000  0.6508444  3
   6097   6090   6091   6103     1  180.0000771  2.0083200  2
   6097   6090   6091   6103     1  0.0000000  1.2552000  3
   6097   6090   6094   6106     1  180.0000771  2.0083200  2
   6097   6090   6094   6106     1  0.0000000  1.2552000  3
   6097   6100   6109   6118     1  0.0000000  0.6508444  3
   6103   6115  11263  11259     1  180.0000771  0.4184000  2
   6103   6115  11263  11259     1  0.0000000  1.6024720  3
   6106   6112  11240  11236     1  180.0000771  0.4184000  2
   6106   6112  11240  11236     1  0.0000000  1.6024720  3
   6112  11240  11236  11235     1  180.0000771  0.4184000  2
   6112  11240  11236  11235     1  0.0000000  1.6024720  3
   6112  11240  11236  11252     1  180.0000771  5.6484000  1
   6112  11240  11236  11252     1  180.0000771  3.5564000  2
   6112  11240  11236  11252     1  0.0000000  0.4184000  3
   6115  11263  11259  11275     1  180.0000771  5.6484000  1
   6115  11263  11259  11275     1  180.0000771  3.5564000  2
   6115  11263  11259  11275     1  0.0000000  0.4184000  3
   6115  11263  11259  11258     1  180.0000771  0.4184000  2
   6115  11263  11259  11258     1  0.0000000  1.6024720  3
   6119   6120   6132   6144     1  0.0000000  0.6508444  3
   6119   6123   6135   6141     1  0.0000000  0.6508444  3
   6119   6126   6129   6138     1  0.0000000  0.6508444  3
   6120   6119   6123   6135     1  180.0000771  2.0083200  2
   6120   6119   6123   6135     1  0.0000000  1.2552000  3
   6120   6119   6126   6129     1  180.0000771  2.0083200  2
   6120   6119   6126   6129     1  0.0000000  1.2552000  3
   6120   6132   6144  11309     1  0.0000000  0.6508444  3
   6123   6119   6120   6132     1  180.0000771  2.0083200  2
   6123   6119   6120   6132     1  0.0000000  1.2552000  3
   6123   6119   6126   6129     1  180.0000771  2.0083200  2
   6123   6119   6126   6129     1  0.0000000  1.2552000  3
   6123   6135   6141  11286     1  0.0000000  0.6508444  3
   6126   6119   6120   6132     1  180.0000771  2.0083200  2
   6126   6119   6120   6132     1  0.0000000  1.2552000  3
   6126   6119   6123   6135     1  180.0000771  2.0083200  2
   6126   6119   6123   6135     1  0.0000000  1.2552000  3
   6126   6129   6138   6147     1  0.0000000  0.6508444  3
   6132   6144  11309  11305     1  180.0000771  0.4184000  2
   6132   6144  11309  11305     1  0.0000000  1.6024720  3
   6135   6141  11286  11282     1  180.0000771  0.4184000  2
   6135   6141  11286  11282     1  0.0000000  1.6024720  3
   6141  11286  11282  11281     1  180.0000771  0.4184000  2
   6141  11286  11282  11281     1  0.0000000  1.6024720  3
   6141  11286  11282  11298     1  180.0000771  5.6484000  1
   6141  11286  11282  11298     1  180.0000771  3.5564000  2
   6141  11286  11282  11298     1  0.0000000  0.4184000  3
   6144  11309  11305  11321     1  180.0000771  5.6484000  1
   6144  11309  11305  11321     1  180.0000771  3.5564000  2
   6144  11309  11305  11321     1  0.0000000  0.4184000  3
   6144  11309  11305  11304     1  180.0000771  0.4184000  2
   6144  11309  11305  11304     1  0.0000000  1.6024720  3
   6148   6149   6161   6173     1  0.0000000  0.6508444  3
   6148   6152   6164   6170     1  0.0000000  0.6508444  3
   6148   6155   6158   6167     1  0.0000000  0.6508444  3
   6149   6148   6152   6164     1  180.0000771  2.0083200  2
   6149   6148   6152   6164     1  0.0000000  1.2552000  3
   6149   6148   6155   6158     1  180.0000771  2.0083200  2
   6149   6148   6155   6158     1  0.0000000  1.2552000  3
   6149   6161   6173  11355     1  0.0000000  0.6508444  3
   6152   6148   6149   6161     1  180.0000771  2.0083200  2
   6152   6148   6149   6161     1  0.0000000  1.2552000  3
   6152   6148   6155   6158     1  180.0000771  2.0083200  2
   6152   6148   6155   6158     1  0.0000000  1.2552000  3
   6152   6164   6170  11332     1  0.0000000  0.6508444  3
   6155   6148   6149   6161     1  180.0000771  2.0083200  2
   6155   6148   6149   6161     1  0.0000000  1.2552000  3
   6155   6148   6152   6164     1  180.0000771  2.0083200  2
   6155   6148   6152   6164     1  0.0000000  1.2552000  3
   6155   6158   6167   6176     1  0.0000000  0.6508444  3
   6161   6173  11355  11351     1  180.0000771  0.4184000  2
   6161   6173  11355  11351     1  0.0000000  1.6024720  3
   6164   6170  11332  11328     1  180.0000771  0.4184000  2
   6164   6170  11332  11328     1  0.0000000  1.6024720  3
   6170  11332  11328  11327     1  180.0000771  0.4184000  2
   6170  11332  11328  11327     1  0.0000000  1.6024720  3
   6170  11332  11328  11344     1  180.0000771  5.6484000  1
   6170  11332  11328  11344     1  180.0000771  3.5564000  2
   6170  11332  11328  11344     1  0.0000000  0.4184000  3
   6173  11355  11351  11367     1  180.0000771  5.6484000  1
   6173  11355  11351  11367     1  180.0000771  3.5564000  2
   6173  11355  11351  11367     1  0.0000000  0.4184000  3
   6173  11355  11351  11350     1  180.0000771  0.4184000  2
   6173  11355  11351  11350     1  0.0000000  1.6024720  3
   6177   6178   6190   6202     1  0.0000000  0.6508444  3
   6177   6181   6193   6199     1  0.0000000  0.6508444  3
   6177   6184   6187   6196     1  0.0000000  0.6508444  3
   6178   6177   6181   6193     1  180.0000771  2.0083200  2
   6178   6177   6181   6193     1  0.0000000  1.2552000  3
   6178   6177   6184   6187     1  180.0000771  2.0083200  2
   6178   6177   6184   6187     1  0.0000000  1.2552000  3
   6178   6190   6202  11401     1  0.0000000  0.6508444  3
   6181   6177   6178   6190     1  180.0000771  2.0083200  2
   6181   6177   6178   6190     1  0.0000000  1.2552000  3
   6181   6177   6184   6187     1  180.0000771  2.0083200  2
   6181   6177   6184   6187     1  0.0000000  1.2552000  3
   6181   6193   6199  11378     1  0.0000000  0.6508444  3
   6184   6177   6178   6190     1  180.0000771  2.0083200  2
   6184   6177   6178   6190     1  0.0000000  1.2552000  3
   6184   6177   6181   6193     1  180.0000771  2.0083200  2
   6184   6177   6181   6193     1  0.0000000  1.2552000  3
   6184   6187   6196   6205     1  0.0000000  0.6508444  3
   6190   6202  11401  11397     1  180.0000771  0.4184000  2
   6190   6202  11401  11397     1  0.0000000  1.6024720  3
   6193   6199  11378  11374     1  180.0000771  0.4184000  2
   6193   6199  11378  11374     1  0.0000000  1.6024720  3
   6199  11378  11374  11373     1  180.0000771  0.4184000  2
   6199  11378  11374  11373     1  0.0000000  1.6024720  3
   6199  11378  11374  11390     1  180.0000771  5.6484000  1
   6199  11378  11374  11390     1  180.0000771  3.5564000  2
   6199  11378  11374  11390     1  0.0000000  0.4184000  3
   6202  11401  11397  11413     1  180.0000771  5.6484000  1
   6202  11401  11397  11413     1  180.0000771  3.5564000  2
   6202  11401  11397  11413     1  0.0000000  0.4184000  3
   6202  11401  11397  11396     1  180.0000771  0.4184000  2
   6202  11401  11397  11396     1  0.0000000  1.6024720  3
   6206   6207   6219   6231     1  0.0000000  0.6508444  3
   6206   6210   6222   6228     1  0.0000000  0.6508444  3
   6206   6213   6216   6225     1  0.0000000  0.6508444  3
   6207   6206   6210   6222     1  180.0000771  2.0083200  2
   6207   6206   6210   6222     1  0.0000000  1.2552000  3
   6207   6206   6213   6216     1  180.0000771  2.0083200  2
   6207   6206   6213   6216     1  0.0000000  1.2552000  3
   6207   6219   6231  11447     1  0.0000000  0.6508444  3
   6210   6206   6207   6219     1  180.0000771  2.0083200  2
   6210   6206   6207   6219     1  0.0000000  1.2552000  3
   6210   6206   6213   6216     1  180.0000771  2.0083200  2
   6210   6206   6213   6216     1  0.0000000  1.2552000  3
   6210   6222   6228  11424     1  0.0000000  0.6508444  3
   6213   6206   6207   6219     1  180.0000771  2.0083200  2
   6213   6206   6207   6219     1  0.0000000  1.2552000  3
   6213   6206   6210   6222     1  180.0000771  2.0083200  2
   6213   6206   6210   6222     1  0.0000000  1.2552000  3
   6213   6216   6225   6234     1  0.0000000  0.6508444  3
   6219   6231  11447  11443     1  180.0000771  0.4184000  2
   6219   6231  11447  11443     1  0.0000000  1.6024720  3
   6222   6228  11424  11420     1  180.0000771  0.4184000  2
   6222   6228  11424  11420     1  0.0000000  1.6024720  3
   6228  11424  11420  11419     1  180.0000771  0.4184000  2
   6228  11424  11420  11419     1  0.0000000  1.6024720  3
   6228  11424  11420  11436     1  180.0000771  5.6484000  1
   6228  11424  11420  11436     1  180.0000771  3.5564000  2
   6228  11424  11420  11436     1  0.0000000  0.4184000  3
   6231  11447  11443  11459     1  180.0000771  5.6484000  1
   6231  11447  11443  11459     1  180.0000771  3.5564000  2
   6231  11447  11443  11459     1  0.0000000  0.4184000  3
   6231  11447  11443  11442     1  180.0000771  0.4184000  2
   6231  11447  11443  11442     1  0.0000000  1.6024720  3
   6235   6236   6248   6260     1  0.0000000  0.6508444  3
   6235   6239   6251   6257     1  0.0000000  0.6508444  3
   6235   6242   6245   6254     1  0.0000000  0.6508444  3
   6236   6235   6239   6251     1  180.0000771  2.0083200  2
   6236   6235   6239   6251     1  0.0000000  1.2552000  3
   6236   6235   6242   6245     1  180.0000771  2.0083200  2
   6236   6235   6242   6245     1  0.0000000  1.2552000  3
   6236   6248   6260  11493     1  0.0000000  0.6508444  3
   6239   6235   6236   6248     1  180.0000771  2.0083200  2
   6239   6235   6236   6248     1  0.0000000  1.2552000  3
   6239   6235   6242   6245     1  180.0000771  2.0083200  2
   6239   6235   6242   6245     1  0.0000000  1.2552000  3
   6239   6251   6257  11470     1  0.0000000  0.6508444  3
   6242   6235   6236   6248     1  180.0000771  2.0083200  2
   6242   6235   6236   6248     1  0.0000000  1.2552000  3
   6242   6235   6239   6251     1  180.0000771  2.0083200  2
   6242   6235   6239   6251     1  0.0000000  1.2552000  3
   6242   6245   6254   6263     1  0.0000000  0.6508444  3
   6248   6260  11493  11489     1  180.0000771  0.4184000  2
   6248   6260  11493  11489     1  0.0000000  1.6024720  3
   6251   6257  11470  11466     1  180.0000771  0.4184000  2
   6251   6257  11470  11466     1  0.0000000  1.6024720  3
   6257  11470  11466  11465     1  180.0000771  0.4184000  2
   6257  11470  11466  11465     1  0.0000000  1.6024720  3
   6257  11470  11466  11482     1  180.0000771  5.6484000  1
   6257  11470  11466  11482     1  180.0000771  3.5564000  2
   6257  11470  11466  11482     1  0.0000000  0.4184000  3
   6260  11493  11489  11505     1  180.0000771  5.6484000  1
   6260  11493  11489  11505     1  180.0000771  3.5564000  2
   6260  11493  11489  11505     1  0.0000000  0.4184000  3
   6260  11493  11489  11488     1  180.0000771  0.4184000  2
   6260  11493  11489  11488     1  0.0000000  1.6024720  3
   6264   6265   6277   6289     1  0.0000000  0.6508444  3
   6264   6268   6280   6286     1  0.0000000  0.6508444  3
   6264   6271   6274   6283     1  0.0000000  0.6508444  3
   6265   6264   6268   6280     1  180.0000771  2.0083200  2
   6265   6264   6268   6280     1  0.0000000  1.2552000  3
   6265   6264   6271   6274     1  180.0000771  2.0083200  2
   6265   6264   6271   6274     1  0.0000000  1.2552000  3
   6265   6277   6289  11539     1  0.0000000  0.6508444  3
   6268   6264   6265   6277     1  180.0000771  2.0083200  2
   6268   6264   6265   6277     1  0.0000000  1.2552000  3
   6268   6264   6271   6274     1  180.0000771  2.0083200  2
   6268   6264   6271   6274     1  0.0000000  1.2552000  3
   6268   6280   6286  11516     1  0.0000000  0.6508444  3
   6271   6264   6265   6277     1  180.0000771  2.0083200  2
   6271   6264   6265   6277     1  0.0000000  1.2552000  3
   6271   6264   6268   6280     1  180.0000771  2.0083200  2
   6271   6264   6268   6280     1  0.0000000  1.2552000  3
   6271   6274   6283   6292     1  0.0000000  0.6508444  3
   6277   6289  11539  11535     1  180.0000771  0.4184000  2
   6277   6289  11539  11535     1  0.0000000  1.6024720  3
   6280   6286  11516  11512     1  180.0000771  0.4184000  2
   6280   6286  11516  11512     1  0.0000000  1.6024720  3
   6286  11516  11512  11511     1  180.0000771  0.4184000  2
   6286  11516  11512  11511     1  0.0000000  1.6024720  3
   6286  11516  11512  11528     1  180.0000771  5.6484000  1
   6286  11516  11512  11528     1  180.0000771  3.5564000  2
   6286  11516  11512  11528     1  0.0000000  0.4184000  3
   6289  11539  11535  11551     1  180.0000771  5.6484000  1
   6289  11539  11535  11551     1  180.0000771  3.5564000  2
   6289  11539  11535  11551     1  0.0000000  0.4184000  3
   6289  11539  11535  11534     1  180.0000771  0.4184000  2
   6289  11539  11535  11534     1  0.0000000  1.6024720  3
   6293   6294   6306   6318     1  0.0000000  0.6508444  3
   6293   6297   6309   6315     1  0.0000000  0.6508444  3
   6293   6300   6303   6312     1  0.0000000  0.6508444  3
   6294   6293   6297   6309     1  180.0000771  2.0083200  2
   6294   6293   6297   6309     1  0.0000000  1.2552000  3
   6294   6293   6300   6303     1  180.0000771  2.0083200  2
   6294   6293   6300   6303     1  0.0000000  1.2552000  3
   6294   6306   6318  11585     1  0.0000000  0.6508444  3
   6297   6293   6294   6306     1  180.0000771  2.0083200  2
   6297   6293   6294   6306     1  0.0000000  1.2552000  3
   6297   6293   6300   6303     1  180.0000771  2.0083200  2
   6297   6293   6300   6303     1  0.0000000  1.2552000  3
   6297   6309   6315  11562     1  0.0000000  0.6508444  3
   6300   6293   6294   6306     1  180.0000771  2.0083200  2
   6300   6293   6294   6306     1  0.0000000  1.2552000  3
   6300   6293   6297   6309     1  180.0000771  2.0083200  2
   6300   6293   6297   6309     1  0.0000000  1.2552000  3
   6300   6303   6312   6321     1  0.0000000  0.6508444  3
   6306   6318  11585  11581     1  180.0000771  0.4184000  2
   6306   6318  11585  11581     1  0.0000000  1.6024720  3
   6309   6315  11562  11558     1  180.0000771  0.4184000  2
   6309   6315  11562  11558     1  0.0000000  1.6024720  3
   6315  11562  11558  11557     1  180.0000771  0.4184000  2
   6315  11562  11558  11557     1  0.0000000  1.6024720  3
   6315  11562  11558  11574     1  180.0000771  5.6484000  1
   6315  11562  11558  11574     1  180.0000771  3.5564000  2
   6315  11562  11558  11574     1  0.0000000  0.4184000  3
   6318  11585  11581  11597     1  180.0000771  5.6484000  1
   6318  11585  11581  11597     1  180.0000771  3.5564000  2
   6318  11585  11581  11597     1  0.0000000  0.4184000  3
   6318  11585  11581  11580     1  180.0000771  0.4184000  2
   6318  11585  11581  11580     1  0.0000000  1.6024720  3
   6322   6323   6335   6347     1  0.0000000  0.6508444  3
   6322   6326   6338   6344     1  0.0000000  0.6508444  3
   6322   6329   6332   6341     1  0.0000000  0.6508444  3
   6323   6322   6326   6338     1  180.0000771  2.0083200  2
   6323   6322   6326   6338     1  0.0000000  1.2552000  3
   6323   6322   6329   6332     1  180.0000771  2.0083200  2
   6323   6322   6329   6332     1  0.0000000  1.2552000  3
   6323   6335   6347  11631     1  0.0000000  0.6508444  3
   6326   6322   6323   6335     1  180.0000771  2.0083200  2
   6326   6322   6323   6335     1  0.0000000  1.2552000  3
   6326   6322   6329   6332     1  180.0000771  2.0083200  2
   6326   6322   6329   6332     1  0.0000000  1.2552000  3
   6326   6338   6344  11608     1  0.0000000  0.6508444  3
   6329   6322   6323   6335     1  180.0000771  2.0083200  2
   6329   6322   6323   6335     1  0.0000000  1.2552000  3
   6329   6322   6326   6338     1  180.0000771  2.0083200  2
   6329   6322   6326   6338     1  0.0000000  1.2552000  3
   6329   6332   6341   6350     1  0.0000000  0.6508444  3
   6335   6347  11631  11627     1  180.0000771  0.4184000  2
   6335   6347  11631  11627     1  0.0000000  1.6024720  3
   6338   6344  11608  11604     1  180.0000771  0.4184000  2
   6338   6344  11608  11604     1  0.0000000  1.6024720  3
   6344  11608  11604  11603     1  180.0000771  0.4184000  2
   6344  11608  11604  11603     1  0.0000000  1.6024720  3
   6344  11608  11604  11620     1  180.0000771  5.6484000  1
   6344  11608  11604  11620     1  180.0000771  3.5564000  2
   6344  11608  11604  11620     1  0.0000000  0.4184000  3
   6347  11631  11627  11643     1  180.0000771  5.6484000  1
   6347  11631  11627  11643     1  180.0000771  3.5564000  2
   6347  11631  11627  11643     1  0.0000000  0.4184000  3
   6347  11631  11627  11626     1  180.0000771  0.4184000  2
   6347  11631  11627  11626     1  0.0000000  1.6024720  3
   6351   6352   6364   6376     1  0.0000000  0.6508444  3
   6351   6355   6367   6373     1  0.0000000  0.6508444  3
   6351   6358   6361   6370     1  0.0000000  0.6508444  3
   6352   6351   6355   6367     1  180.0000771  2.0083200  2
   6352   6351   6355   6367     1  0.0000000  1.2552000  3
   6352   6351   6358   6361     1  180.0000771  2.0083200  2
   6352   6351   6358   6361     1  0.0000000  1.2552000  3
   6352   6364   6376  11677     1  0.0000000  0.6508444  3
   6355   6351   6352   6364     1  180.0000771  2.0083200  2
   6355   6351   6352   6364     1  0.0000000  1.2552000  3
   6355   6351   6358   6361     1  180.0000771  2.0083200  2
   6355   6351   6358   6361     1  0.0000000  1.2552000  3
   6355   6367   6373  11654     1  0.0000000  0.6508444  3
   6358   6351   6352   6364     1  180.0000771  2.0083200  2
   6358   6351   6352   6364     1  0.0000000  1.2552000  3
   6358   6351   6355   6367     1  180.0000771  2.0083200  2
   6358   6351   6355   6367     1  0.0000000  1.2552000  3
   6358   6361   6370   6379     1  0.0000000  0.6508444  3
   6364   6376  11677  11673     1  180.0000771  0.4184000  2
   6364   6376  11677  11673     1  0.0000000  1.6024720  3
   6367   6373  11654  11650     1  180.0000771  0.4184000  2
   6367   6373  11654  11650     1  0.0000000  1.6024720  3
   6373  11654  11650  11649     1  180.0000771  0.4184000  2
   6373  11654  11650  11649     1  0.0000000  1.6024720  3
   6373  11654  11650  11666     1  180.0000771  5.6484000  1
   6373  11654  11650  11666     1  180.0000771  3.5564000  2
   6373  11654  11650  11666     1  0.0000000  0.4184000  3
   6376  11677  11673  11689     1  180.0000771  5.6484000  1
   6376  11677  11673  11689     1  180.0000771  3.5564000  2
   6376  11677  11673  11689     1  0.0000000  0.4184000  3
   6376  11677  11673  11672     1  180.0000771  0.4184000  2
   6376  11677  11673  11672     1  0.0000000  1.6024720  3
   6380   6381   6393   6405     1  0.0000000  0.6508444  3
   6380   6384   6396   6402     1  0.0000000  0.6508444  3
   6380   6387   6390   6399     1  0.0000000  0.6508444  3
   6381   6380   6384   6396     1  180.0000771  2.0083200  2
   6381   6380   6384   6396     1  0.0000000  1.2552000  3
   6381   6380   6387   6390     1  180.0000771  2.0083200  2
   6381   6380   6387   6390     1  0.0000000  1.2552000  3
   6381   6393   6405  11723     1  0.0000000  0.6508444  3
   6384   6380   6381   6393     1  180.0000771  2.0083200  2
   6384   6380   6381   6393     1  0.0000000  1.2552000  3
   6384   6380   6387   6390     1  180.0000771  2.0083200  2
   6384   6380   6387   6390     1  0.0000000  1.2552000  3
   6384   6396   6402  11700     1  0.0000000  0.6508444  3
   6387   6380   6381   6393     1  180.0000771  2.0083200  2
   6387   6380   6381   6393     1  0.0000000  1.2552000  3
   6387   6380   6384   6396     1  180.0000771  2.0083200  2
   6387   6380   6384   6396     1  0.0000000  1.2552000  3
   6387   6390   6399   6408     1  0.0000000  0.6508444  3
   6393   6405  11723  11719     1  180.0000771  0.4184000  2
   6393   6405  11723  11719     1  0.0000000  1.6024720  3
   6396   6402  11700  11696     1  180.0000771  0.4184000  2
   6396   6402  11700  11696     1  0.0000000  1.6024720  3
   6402  11700  11696  11695     1  180.0000771  0.4184000  2
   6402  11700  11696  11695     1  0.0000000  1.6024720  3
   6402  11700  11696  11712     1  180.0000771  5.6484000  1
   6402  11700  11696  11712     1  180.0000771  3.5564000  2
   6402  11700  11696  11712     1  0.0000000  0.4184000  3
   6405  11723  11719  11735     1  180.0000771  5.6484000  1
   6405  11723  11719  11735     1  180.0000771  3.5564000  2
   6405  11723  11719  11735     1  0.0000000  0.4184000  3
   6405  11723  11719  11718     1  180.0000771  0.4184000  2
   6405  11723  11719  11718     1  0.0000000  1.6024720  3
   6409   6410   6422   6434     1  0.0000000  0.6508444  3
   6409   6413   6425   6431     1  0.0000000  0.6508444  3
   6409   6416   6419   6428     1  0.0000000  0.6508444  3
   6410   6409   6413   6425     1  180.0000771  2.0083200  2
   6410   6409   6413   6425     1  0.0000000  1.2552000  3
   6410   6409   6416   6419     1  180.0000771  2.0083200  2
   6410   6409   6416   6419     1  0.0000000  1.2552000  3
   6410   6422   6434  11769     1  0.0000000  0.6508444  3
   6413   6409   6410   6422     1  180.0000771  2.0083200  2
   6413   6409   6410   6422     1  0.0000000  1.2552000  3
   6413   6409   6416   6419     1  180.0000771  2.0083200  2
   6413   6409   6416   6419     1  0.0000000  1.2552000  3
   6413   6425   6431  11746     1  0.0000000  0.6508444  3
   6416   6409   6410   6422     1  180.0000771  2.0083200  2
   6416   6409   6410   6422     1  0.0000000  1.2552000  3
   6416   6409   6413   6425     1  180.0000771  2.0083200  2
   6416   6409   6413   6425     1  0.0000000  1.2552000  3
   6416   6419   6428   6437     1  0.0000000  0.6508444  3
   6422   6434  11769  11765     1  180.0000771  0.4184000  2
   6422   6434  11769  11765     1  0.0000000  1.6024720  3
   6425   6431  11746  11742     1  180.0000771  0.4184000  2
   6425   6431  11746  11742     1  0.0000000  1.6024720  3
   6431  11746  11742  11741     1  180.0000771  0.4184000  2
   6431  11746  11742  11741     1  0.0000000  1.6024720  3
   6431  11746  11742  11758     1  180.0000771  5.6484000  1
   6431  11746  11742  11758     1  180.0000771  3.5564000  2
   6431  11746  11742  11758     1  0.0000000  0.4184000  3
   6434  11769  11765  11781     1  180.0000771  5.6484000  1
   6434  11769  11765  11781     1  180.0000771  3.5564000  2
   6434  11769  11765  11781     1  0.0000000  0.4184000  3
   6434  11769  11765  11764     1  180.0000771  0.4184000  2
   6434  11769  11765  11764     1  0.0000000  1.6024720  3
   6438   6439   6451   6463     1  0.0000000  0.6508444  3
   6438   6442   6454   6460     1  0.0000000  0.6508444  3
   6438   6445   6448   6457     1  0.0000000  0.6508444  3
   6439   6438   6442   6454     1  180.0000771  2.0083200  2
   6439   6438   6442   6454     1  0.0000000  1.2552000  3
   6439   6438   6445   6448     1  180.0000771  2.0083200  2
   6439   6438   6445   6448     1  0.0000000  1.2552000  3
   6439   6451   6463  11815     1  0.0000000  0.6508444  3
   6442   6438   6439   6451     1  180.0000771  2.0083200  2
   6442   6438   6439   6451     1  0.0000000  1.2552000  3
   6442   6438   6445   6448     1  180.0000771  2.0083200  2
   6442   6438   6445   6448     1  0.0000000  1.2552000  3
   6442   6454   6460  11792     1  0.0000000  0.6508444  3
   6445   6438   6439   6451     1  180.0000771  2.0083200  2
   6445   6438   6439   6451     1  0.0000000  1.2552000  3
   6445   6438   6442   6454     1  180.0000771  2.0083200  2
   6445   6438   6442   6454     1  0.0000000  1.2552000  3
   6445   6448   6457   6466     1  0.0000000  0.6508444  3
   6451   6463  11815  11811     1  180.0000771  0.4184000  2
   6451   6463  11815  11811     1  0.0000000  1.6024720  3
   6454   6460  11792  11788     1  180.0000771  0.4184000  2
   6454   6460  11792  11788     1  0.0000000  1.6024720  3
   6460  11792  11788  11787     1  180.0000771  0.4184000  2
   6460  11792  11788  11787     1  0.0000000  1.6024720  3
   6460  11792  11788  11804     1  180.0000771  5.6484000  1
   6460  11792  11788  11804     1  180.0000771  3.5564000  2
   6460  11792  11788  11804     1  0.0000000  0.4184000  3
   6463  11815  11811  11827     1  180.0000771  5.6484000  1
   6463  11815  11811  11827     1  180.0000771  3.5564000  2
   6463  11815  11811  11827     1  0.0000000  0.4184000  3
   6463  11815  11811  11810     1  180.0000771  0.4184000  2
   6463  11815  11811  11810     1  0.0000000  1.6024720  3
   6467   6468   6480   6492     1  0.0000000  0.6508444  3
   6467   6471   6483   6489     1  0.0000000  0.6508444  3
   6467   6474   6477   6486     1  0.0000000  0.6508444  3
   6468   6467   6471   6483     1  180.0000771  2.0083200  2
   6468   6467   6471   6483     1  0.0000000  1.2552000  3
   6468   6467   6474   6477     1  180.0000771  2.0083200  2
   6468   6467   6474   6477     1  0.0000000  1.2552000  3
   6468   6480   6492  11861     1  0.0000000  0.6508444  3
   6471   6467   6468   6480     1  180.0000771  2.0083200  2
   6471   6467   6468   6480     1  0.0000000  1.2552000  3
   6471   6467   6474   6477     1  180.0000771  2.0083200  2
   6471   6467   6474   6477     1  0.0000000  1.2552000  3
   6471   6483   6489  11838     1  0.0000000  0.6508444  3
   6474   6467   6468   6480     1  180.0000771  2.0083200  2
   6474   6467   6468   6480     1  0.0000000  1.2552000  3
   6474   6467   6471   6483     1  180.0000771  2.0083200  2
   6474   6467   6471   6483     1  0.0000000  1.2552000  3
   6474   6477   6486   6495     1  0.0000000  0.6508444  3
   6480   6492  11861  11857     1  180.0000771  0.4184000  2
   6480   6492  11861  11857     1  0.0000000  1.6024720  3
   6483   6489  11838  11834     1  180.0000771  0.4184000  2
   6483   6489  11838  11834     1  0.0000000  1.6024720  3
   6489  11838  11834  11833     1  180.0000771  0.4184000  2
   6489  11838  11834  11833     1  0.0000000  1.6024720  3
   6489  11838  11834  11850     1  180.0000771  5.6484000  1
   6489  11838  11834  11850     1  180.0000771  3.5564000  2
   6489  11838  11834  11850     1  0.0000000  0.4184000  3
   6492  11861  11857  11873     1  180.0000771  5.6484000  1
   6492  11861  11857  11873     1  180.0000771  3.5564000  2
   6492  11861  11857  11873     1  0.0000000  0.4184000  3
   6492  11861  11857  11856     1  180.0000771  0.4184000  2
   6492  11861  11857  11856     1  0.0000000  1.6024720  3
   6496   6497   6509   6521     1  0.0000000  0.6508444  3
   6496   6500   6512   6518     1  0.0000000  0.6508444  3
   6496   6503   6506   6515     1  0.0000000  0.6508444  3
   6497   6496   6500   6512     1  180.0000771  2.0083200  2
   6497   6496   6500   6512     1  0.0000000  1.2552000  3
   6497   6496   6503   6506     1  180.0000771  2.0083200  2
   6497   6496   6503   6506     1  0.0000000  1.2552000  3
   6497   6509   6521  11907     1  0.0000000  0.6508444  3
   6500   6496   6497   6509     1  180.0000771  2.0083200  2
   6500   6496   6497   6509     1  0.0000000  1.2552000  3
   6500   6496   6503   6506     1  180.0000771  2.0083200  2
   6500   6496   6503   6506     1  0.0000000  1.2552000  3
   6500   6512   6518  11884     1  0.0000000  0.6508444  3
   6503   6496   6497   6509     1  180.0000771  2.0083200  2
   6503   6496   6497   6509     1  0.0000000  1.2552000  3
   6503   6496   6500   6512     1  180.0000771  2.0083200  2
   6503   6496   6500   6512     1  0.0000000  1.2552000  3
   6503   6506   6515   6524     1  0.0000000  0.6508444  3
   6509   6521  11907  11903     1  180.0000771  0.4184000  2
   6509   6521  11907  11903     1  0.0000000  1.6024720  3
   6512   6518  11884  11880     1  180.0000771  0.4184000  2
   6512   6518  11884  11880     1  0.0000000  1.6024720  3
   6518  11884  11880  11879     1  180.0000771  0.4184000  2
   6518  11884  11880  11879     1  0.0000000  1.6024720  3
   6518  11884  11880  11896     1  180.0000771  5.6484000  1
   6518  11884  11880  11896     1  180.0000771  3.5564000  2
   6518  11884  11880  11896     1  0.0000000  0.4184000  3
   6521  11907  11903  11919     1  180.0000771  5.6484000  1
   6521  11907  11903  11919     1  180.0000771  3.5564000  2
   6521  11907  11903  11919     1  0.0000000  0.4184000  3
   6521  11907  11903  11902     1  180.0000771  0.4184000  2
   6521  11907  11903  11902     1  0.0000000  1.6024720  3
   6525   6526   6538   6550     1  0.0000000  0.6508444  3
   6525   6529   6541   6547     1  0.0000000  0.6508444  3
   6525   6532   6535   6544     1  0.0000000  0.6508444  3
   6526   6525   6529   6541     1  180.0000771  2.0083200  2
   6526   6525   6529   6541     1  0.0000000  1.2552000  3
   6526   6525   6532   6535     1  180.0000771  2.0083200  2
   6526   6525   6532   6535     1  0.0000000  1.2552000  3
   6526   6538   6550  11953     1  0.0000000  0.6508444  3
   6529   6525   6526   6538     1  180.0000771  2.0083200  2
   6529   6525   6526   6538     1  0.0000000  1.2552000  3
   6529   6525   6532   6535     1  180.0000771  2.0083200  2
   6529   6525   6532   6535     1  0.0000000  1.2552000  3
   6529   6541   6547  11930     1  0.0000000  0.6508444  3
   6532   6525   6526   6538     1  180.0000771  2.0083200  2
   6532   6525   6526   6538     1  0.0000000  1.2552000  3
   6532   6525   6529   6541     1  180.0000771  2.0083200  2
   6532   6525   6529   6541     1  0.0000000  1.2552000  3
   6532   6535   6544   6553     1  0.0000000  0.6508444  3
   6538   6550  11953  11949     1  180.0000771  0.4184000  2
   6538   6550  11953  11949     1  0.0000000  1.6024720  3
   6541   6547  11930  11926     1  180.0000771  0.4184000  2
   6541   6547  11930  11926     1  0.0000000  1.6024720  3
   6547  11930  11926  11925     1  180.0000771  0.4184000  2
   6547  11930  11926  11925     1  0.0000000  1.6024720  3
   6547  11930  11926  11942     1  180.0000771  5.6484000  1
   6547  11930  11926  11942     1  180.0000771  3.5564000  2
   6547  11930  11926  11942     1  0.0000000  0.4184000  3
   6550  11953  11949  11965     1  180.0000771  5.6484000  1
   6550  11953  11949  11965     1  180.0000771  3.5564000  2
   6550  11953  11949  11965     1  0.0000000  0.4184000  3
   6550  11953  11949  11948     1  180.0000771  0.4184000  2
   6550  11953  11949  11948     1  0.0000000  1.6024720  3
   6554   6555   6567   6579     1  0.0000000  0.6508444  3
   6554   6558   6570   6576     1  0.0000000  0.6508444  3
   6554   6561   6564   6573     1  0.0000000  0.6508444  3
   6555   6554   6558   6570     1  180.0000771  2.0083200  2
   6555   6554   6558   6570     1  0.0000000  1.2552000  3
   6555   6554   6561   6564     1  180.0000771  2.0083200  2
   6555   6554   6561   6564     1  0.0000000  1.2552000  3
   6555   6567   6579  11999     1  0.0000000  0.6508444  3
   6558   6554   6555   6567     1  180.0000771  2.0083200  2
   6558   6554   6555   6567     1  0.0000000  1.2552000  3
   6558   6554   6561   6564     1  180.0000771  2.0083200  2
   6558   6554   6561   6564     1  0.0000000  1.2552000  3
   6558   6570   6576  11976     1  0.0000000  0.6508444  3
   6561   6554   6555   6567     1  180.0000771  2.0083200  2
   6561   6554   6555   6567     1  0.0000000  1.2552000  3
   6561   6554   6558   6570     1  180.0000771  2.0083200  2
   6561   6554   6558   6570     1  0.0000000  1.2552000  3
   6561   6564   6573   6582     1  0.0000000  0.6508444  3
   6567   6579  11999  11995     1  180.0000771  0.4184000  2
   6567   6579  11999  11995     1  0.0000000  1.6024720  3
   6570   6576  11976  11972     1  180.0000771  0.4184000  2
   6570   6576  11976  11972     1  0.0000000  1.6024720  3
   6576  11976  11972  11971     1  180.0000771  0.4184000  2
   6576  11976  11972  11971     1  0.0000000  1.6024720  3
   6576  11976  11972  11988     1  180.0000771  5.6484000  1
   6576  11976  11972  11988     1  180.0000771  3.5564000  2
   6576  11976  11972  11988     1  0.0000000  0.4184000  3
   6579  11999  11995  12011     1  180.0000771  5.6484000  1
   6579  11999  11995  12011     1  180.0000771  3.5564000  2
   6579  11999  11995  12011     1  0.0000000  0.4184000  3
   6579  11999  11995  11994     1  180.0000771  0.4184000  2
   6579  11999  11995  11994     1  0.0000000  1.6024720  3
   6583   6584   6596   6608     1  0.0000000  0.6508444  3
   6583   6587   6599   6605     1  0.0000000  0.6508444  3
   6583   6590   6593   6602     1  0.0000000  0.6508444  3
   6584   6583   6587   6599     1  180.0000771  2.0083200  2
   6584   6583   6587   6599     1  0.0000000  1.2552000  3
   6584   6583   6590   6593     1  180.0000771  2.0083200  2
   6584   6583   6590   6593     1  0.0000000  1.2552000  3
   6584   6596   6608  12045     1  0.0000000  0.6508444  3
   6587   6583   6584   6596     1  180.0000771  2.0083200  2
   6587   6583   6584   6596     1  0.0000000  1.2552000  3
   6587   6583   6590   6593     1  180.0000771  2.0083200  2
   6587   6583   6590   6593     1  0.0000000  1.2552000  3
   6587   6599   6605  12022     1  0.0000000  0.6508444  3
   6590   6583   6584   6596     1  180.0000771  2.0083200  2
   6590   6583   6584   6596     1  0.0000000  1.2552000  3
   6590   6583   6587   6599     1  180.0000771  2.0083200  2
   6590   6583   6587   6599     1  0.0000000  1.2552000  3
   6590   6593   6602   6611     1  0.0000000  0.6508444  3
   6596   6608  12045  12041     1  180.0000771  0.4184000  2
   6596   6608  12045  12041     1  0.0000000  1.6024720  3
   6599   6605  12022  12018     1  180.0000771  0.4184000  2
   6599   6605  12022  12018     1  0.0000000  1.6024720  3
   6605  12022  12018  12017     1  180.0000771  0.4184000  2
   6605  12022  12018  12017     1  0.0000000  1.6024720  3
   6605  12022  12018  12034     1  180.0000771  5.6484000  1
   6605  12022  12018  12034     1  180.0000771  3.5564000  2
   6605  12022  12018  12034     1  0.0000000  0.4184000  3
   6608  12045  12041  12057     1  180.0000771  5.6484000  1
   6608  12045  12041  12057     1  180.0000771  3.5564000  2
   6608  12045  12041  12057     1  0.0000000  0.4184000  3
   6608  12045  12041  12040     1  180.0000771  0.4184000  2
   6608  12045  12041  12040     1  0.0000000  1.6024720  3
   6612   6613   6625   6637     1  0.0000000  0.6508444  3
   6612   6616   6628   6634     1  0.0000000  0.6508444  3
   6612   6619   6622   6631     1  0.0000000  0.6508444  3
   6613   6612   6616   6628     1  180.0000771  2.0083200  2
   6613   6612   6616   6628     1  0.0000000  1.2552000  3
   6613   6612   6619   6622     1  180.0000771  2.0083200  2
   6613   6612   6619   6622     1  0.0000000  1.2552000  3
   6613   6625   6637  12091     1  0.0000000  0.6508444  3
   6616   6612   6613   6625     1  180.0000771  2.0083200  2
   6616   6612   6613   6625     1  0.0000000  1.2552000  3
   6616   6612   6619   6622     1  180.0000771  2.0083200  2
   6616   6612   6619   6622     1  0.0000000  1.2552000  3
   6616   6628   6634  12068     1  0.0000000  0.6508444  3
   6619   6612   6613   6625     1  180.0000771  2.0083200  2
   6619   6612   6613   6625     1  0.0000000  1.2552000  3
   6619   6612   6616   6628     1  180.0000771  2.0083200  2
   6619   6612   6616   6628     1  0.0000000  1.2552000  3
   6619   6622   6631   6640     1  0.0000000  0.6508444  3
   6625   6637  12091  12087     1  180.0000771  0.4184000  2
   6625   6637  12091  12087     1  0.0000000  1.6024720  3
   6628   6634  12068  12064     1  180.0000771  0.4184000  2
   6628   6634  12068  12064     1  0.0000000  1.6024720  3
   6634  12068  12064  12063     1  180.0000771  0.4184000  2
   6634  12068  12064  12063     1  0.0000000  1.6024720  3
   6634  12068  12064  12080     1  180.0000771  5.6484000  1
   6634  12068  12064  12080     1  180.0000771  3.5564000  2
   6634  12068  12064  12080     1  0.0000000  0.4184000  3
   6637  12091  12087  12103     1  180.0000771  5.6484000  1
   6637  12091  12087  12103     1  180.0000771  3.5564000  2
   6637  12091  12087  12103     1  0.0000000  0.4184000  3
   6637  12091  12087  12086     1  180.0000771  0.4184000  2
   6637  12091  12087  12086     1  0.0000000  1.6024720  3
   6641   6642   6654   6666     1  0.0000000  0.6508444  3
   6641   6645   6657   6663     1  0.0000000  0.6508444  3
   6641   6648   6651   6660     1  0.0000000  0.6508444  3
   6642   6641   6645   6657     1  180.0000771  2.0083200  2
   6642   6641   6645   6657     1  0.0000000  1.2552000  3
   6642   6641   6648   6651     1  180.0000771  2.0083200  2
   6642   6641   6648   6651     1  0.0000000  1.2552000  3
   6642   6654   6666  12137     1  0.0000000  0.6508444  3
   6645   6641   6642   6654     1  180.0000771  2.0083200  2
   6645   6641   6642   6654     1  0.0000000  1.2552000  3
   6645   6641   6648   6651     1  180.0000771  2.0083200  2
   6645   6641   6648   6651     1  0.0000000  1.2552000  3
   6645   6657   6663  12114     1  0.0000000  0.6508444  3
   6648   6641   6642   6654     1  180.0000771  2.0083200  2
   6648   6641   6642   6654     1  0.0000000  1.2552000  3
   6648   6641   6645   6657     1  180.0000771  2.0083200  2
   6648   6641   6645   6657     1  0.0000000  1.2552000  3
   6648   6651   6660   6669     1  0.0000000  0.6508444  3
   6654   6666  12137  12133     1  180.0000771  0.4184000  2
   6654   6666  12137  12133     1  0.0000000  1.6024720  3
   6657   6663  12114  12110     1  180.0000771  0.4184000  2
   6657   6663  12114  12110     1  0.0000000  1.6024720  3
   6663  12114  12110  12109     1  180.0000771  0.4184000  2
   6663  12114  12110  12109     1  0.0000000  1.6024720  3
   6663  12114  12110  12126     1  180.0000771  5.6484000  1
   6663  12114  12110  12126     1  180.0000771  3.5564000  2
   6663  12114  12110  12126     1  0.0000000  0.4184000  3
   6666  12137  12133  12149     1  180.0000771  5.6484000  1
   6666  12137  12133  12149     1  180.0000771  3.5564000  2
   6666  12137  12133  12149     1  0.0000000  0.4184000  3
   6666  12137  12133  12132     1  180.0000771  0.4184000  2
   6666  12137  12133  12132     1  0.0000000  1.6024720  3
   6670   6671   6683   6695     1  0.0000000  0.6508444  3
   6670   6674   6686   6692     1  0.0000000  0.6508444  3
   6670   6677   6680   6689     1  0.0000000  0.6508444  3
   6671   6670   6674   6686     1  180.0000771  2.0083200  2
   6671   6670   6674   6686     1  0.0000000  1.2552000  3
   6671   6670   6677   6680     1  180.0000771  2.0083200  2
   6671   6670   6677   6680     1  0.0000000  1.2552000  3
   6671   6683   6695  12183     1  0.0000000  0.6508444  3
   6674   6670   6671   6683     1  180.0000771  2.0083200  2
   6674   6670   6671   6683     1  0.0000000  1.2552000  3
   6674   6670   6677   6680     1  180.0000771  2.0083200  2
   6674   6670   6677   6680     1  0.0000000  1.2552000  3
   6674   6686   6692  12160     1  0.0000000  0.6508444  3
   6677   6670   6671   6683     1  180.0000771  2.0083200  2
   6677   6670   6671   6683     1  0.0000000  1.2552000  3
   6677   6670   6674   6686     1  180.0000771  2.0083200  2
   6677   6670   6674   6686     1  0.0000000  1.2552000  3
   6677   6680   6689   6698     1  0.0000000  0.6508444  3
   6683   6695  12183  12179     1  180.0000771  0.4184000  2
   6683   6695  12183  12179     1  0.0000000  1.6024720  3
   6686   6692  12160  12156     1  180.0000771  0.4184000  2
   6686   6692  12160  12156     1  0.0000000  1.6024720  3
   6692  12160  12156  12155     1  180.0000771  0.4184000  2
   6692  12160  12156  12155     1  0.0000000  1.6024720  3
   6692  12160  12156  12172     1  180.0000771  5.6484000  1
   6692  12160  12156  12172     1  180.0000771  3.5564000  2
   6692  12160  12156  12172     1  0.0000000  0.4184000  3
   6695  12183  12179  12195     1  180.0000771  5.6484000  1
   6695  12183  12179  12195     1  180.0000771  3.5564000  2
   6695  12183  12179  12195     1  0.0000000  0.4184000  3
   6695  12183  12179  12178     1  180.0000771  0.4184000  2
   6695  12183  12179  12178     1  0.0000000  1.6024720  3
   6699   6700   6712   6724     1  0.0000000  0.6508444  3
   6699   6703   6715   6721     1  0.0000000  0.6508444  3
   6699   6706   6709   6718     1  0.0000000  0.6508444  3
   6700   6699   6703   6715     1  180.0000771  2.0083200  2
   6700   6699   6703   6715     1  0.0000000  1.2552000  3
   6700   6699   6706   6709     1  180.0000771  2.0083200  2
   6700   6699   6706   6709     1  0.0000000  1.2552000  3
   6700   6712   6724  12229     1  0.0000000  0.6508444  3
   6703   6699   6700   6712     1  180.0000771  2.0083200  2
   6703   6699   6700   6712     1  0.0000000  1.2552000  3
   6703   6699   6706   6709     1  180.0000771  2.0083200  2
   6703   6699   6706   6709     1  0.0000000  1.2552000  3
   6703   6715   6721  12206     1  0.0000000  0.6508444  3
   6706   6699   6700   6712     1  180.0000771  2.0083200  2
   6706   6699   6700   6712     1  0.0000000  1.2552000  3
   6706   6699   6703   6715     1  180.0000771  2.0083200  2
   6706   6699   6703   6715     1  0.0000000  1.2552000  3
   6706   6709   6718   6727     1  0.0000000  0.6508444  3
   6712   6724  12229  12225     1  180.0000771  0.4184000  2
   6712   6724  12229  12225     1  0.0000000  1.6024720  3
   6715   6721  12206  12202     1  180.0000771  0.4184000  2
   6715   6721  12206  12202     1  0.0000000  1.6024720  3
   6721  12206  12202  12201     1  180.0000771  0.4184000  2
   6721  12206  12202  12201     1  0.0000000  1.6024720  3
   6721  12206  12202  12218     1  180.0000771  5.6484000  1
   6721  12206  12202  12218     1  180.0000771  3.5564000  2
   6721  12206  12202  12218     1  0.0000000  0.4184000  3
   6724  12229  12225  12241     1  180.0000771  5.6484000  1
   6724  12229  12225  12241     1  180.0000771  3.5564000  2
   6724  12229  12225  12241     1  0.0000000  0.4184000  3
   6724  12229  12225  12224     1  180.0000771  0.4184000  2
   6724  12229  12225  12224     1  0.0000000  1.6024720  3
   6728   6729   6741   6753     1  0.0000000  0.6508444  3
   6728   6732   6744   6750     1  0.0000000  0.6508444  3
   6728   6735   6738   6747     1  0.0000000  0.6508444  3
   6729   6728   6732   6744     1  180.0000771  2.0083200  2
   6729   6728   6732   6744     1  0.0000000  1.2552000  3
   6729   6728   6735   6738     1  180.0000771  2.0083200  2
   6729   6728   6735   6738     1  0.0000000  1.2552000  3
   6729   6741   6753  12275     1  0.0000000  0.6508444  3
   6732   6728   6729   6741     1  180.0000771  2.0083200  2
   6732   6728   6729   6741     1  0.0000000  1.2552000  3
   6732   6728   6735   6738     1  180.0000771  2.0083200  2
   6732   6728   6735   6738     1  0.0000000  1.2552000  3
   6732   6744   6750  12252     1  0.0000000  0.6508444  3
   6735   6728   6729   6741     1  180.0000771  2.0083200  2
   6735   6728   6729   6741     1  0.0000000  1.2552000  3
   6735   6728   6732   6744     1  180.0000771  2.0083200  2
   6735   6728   6732   6744     1  0.0000000  1.2552000  3
   6735   6738   6747   6756     1  0.0000000  0.6508444  3
   6741   6753  12275  12271     1  180.0000771  0.4184000  2
   6741   6753  12275  12271     1  0.0000000  1.6024720  3
   6744   6750  12252  12248     1  180.0000771  0.4184000  2
   6744   6750  12252  12248     1  0.0000000  1.6024720  3
   6750  12252  12248  12247     1  180.0000771  0.4184000  2
   6750  12252  12248  12247     1  0.0000000  1.6024720  3
   6750  12252  12248  12264     1  180.0000771  5.6484000  1
   6750  12252  12248  12264     1  180.0000771  3.5564000  2
   6750  12252  12248  12264     1  0.0000000  0.4184000  3
   6753  12275  12271  12287     1  180.0000771  5.6484000  1
   6753  12275  12271  12287     1  180.0000771  3.5564000  2
   6753  12275  12271  12287     1  0.0000000  0.4184000  3
   6753  12275  12271  12270     1  180.0000771  0.4184000  2
   6753  12275  12271  12270     1  0.0000000  1.6024720  3
   6757   6758   6770   6782     1  0.0000000  0.6508444  3
   6757   6761   6773   6779     1  0.0000000  0.6508444  3
   6757   6764   6767   6776     1  0.0000000  0.6508444  3
   6758   6757   6761   6773     1  180.0000771  2.0083200  2
   6758   6757   6761   6773     1  0.0000000  1.2552000  3
   6758   6757   6764   6767     1  180.0000771  2.0083200  2
   6758   6757   6764   6767     1  0.0000000  1.2552000  3
   6758   6770   6782  12321     1  0.0000000  0.6508444  3
   6761   6757   6758   6770     1  180.0000771  2.0083200  2
   6761   6757   6758   6770     1  0.0000000  1.2552000  3
   6761   6757   6764   6767     1  180.0000771  2.0083200  2
   6761   6757   6764   6767     1  0.0000000  1.2552000  3
   6761   6773   6779  12298     1  0.0000000  0.6508444  3
   6764   6757   6758   6770     1  180.0000771  2.0083200  2
   6764   6757   6758   6770     1  0.0000000  1.2552000  3
   6764   6757   6761   6773     1  180.0000771  2.0083200  2
   6764   6757   6761   6773     1  0.0000000  1.2552000  3
   6764   6767   6776   6785     1  0.0000000  0.6508444  3
   6770   6782  12321  12317     1  180.0000771  0.4184000  2
   6770   6782  12321  12317     1  0.0000000  1.6024720  3
   6773   6779  12298  12294     1  180.0000771  0.4184000  2
   6773   6779  12298  12294     1  0.0000000  1.6024720  3
   6779  12298  12294  12293     1  180.0000771  0.4184000  2
   6779  12298  12294  12293     1  0.0000000  1.6024720  3
   6779  12298  12294  12310     1  180.0000771  5.6484000  1
   6779  12298  12294  12310     1  180.0000771  3.5564000  2
   6779  12298  12294  12310     1  0.0000000  0.4184000  3
   6782  12321  12317  12333     1  180.0000771  5.6484000  1
   6782  12321  12317  12333     1  180.0000771  3.5564000  2
   6782  12321  12317  12333     1  0.0000000  0.4184000  3
   6782  12321  12317  12316     1  180.0000771  0.4184000  2
   6782  12321  12317  12316     1  0.0000000  1.6024720  3
   6786   6787   6799   6811     1  0.0000000  0.6508444  3
   6786   6790   6802   6808     1  0.0000000  0.6508444  3
   6786   6793   6796   6805     1  0.0000000  0.6508444  3
   6787   6786   6790   6802     1  180.0000771  2.0083200  2
   6787   6786   6790   6802     1  0.0000000  1.2552000  3
   6787   6786   6793   6796     1  180.0000771  2.0083200  2
   6787   6786   6793   6796     1  0.0000000  1.2552000  3
   6787   6799   6811  12367     1  0.0000000  0.6508444  3
   6790   6786   6787   6799     1  180.0000771  2.0083200  2
   6790   6786   6787   6799     1  0.0000000  1.2552000  3
   6790   6786   6793   6796     1  180.0000771  2.0083200  2
   6790   6786   6793   6796     1  0.0000000  1.2552000  3
   6790   6802   6808  12344     1  0.0000000  0.6508444  3
   6793   6786   6787   6799     1  180.0000771  2.0083200  2
   6793   6786   6787   6799     1  0.0000000  1.2552000  3
   6793   6786   6790   6802     1  180.0000771  2.0083200  2
   6793   6786   6790   6802     1  0.0000000  1.2552000  3
   6793   6796   6805   6814     1  0.0000000  0.6508444  3
   6799   6811  12367  12363     1  180.0000771  0.4184000  2
   6799   6811  12367  12363     1  0.0000000  1.6024720  3
   6802   6808  12344  12340     1  180.0000771  0.4184000  2
   6802   6808  12344  12340     1  0.0000000  1.6024720  3
   6808  12344  12340  12339     1  180.0000771  0.4184000  2
   6808  12344  12340  12339     1  0.0000000  1.6024720  3
   6808  12344  12340  12356     1  180.0000771  5.6484000  1
   6808  12344  12340  12356     1  180.0000771  3.5564000  2
   6808  12344  12340  12356     1  0.0000000  0.4184000  3
   6811  12367  12363  12379     1  180.0000771  5.6484000  1
   6811  12367  12363  12379     1  180.0000771  3.5564000  2
   6811  12367  12363  12379     1  0.0000000  0.4184000  3
   6811  12367  12363  12362     1  180.0000771  0.4184000  2
   6811  12367  12363  12362     1  0.0000000  1.6024720  3
   6815   6816   6828   6840     1  0.0000000  0.6508444  3
   6815   6819   6831   6837     1  0.0000000  0.6508444  3
   6815   6822   6825   6834     1  0.0000000  0.6508444  3
   6816   6815   6819   6831     1  180.0000771  2.0083200  2
   6816   6815   6819   6831     1  0.0000000  1.2552000  3
   6816   6815   6822   6825     1  180.0000771  2.0083200  2
   6816   6815   6822   6825     1  0.0000000  1.2552000  3
   6816   6828   6840  12413     1  0.0000000  0.6508444  3
   6819   6815   6816   6828     1  180.0000771  2.0083200  2
   6819   6815   6816   6828     1  0.0000000  1.2552000  3
   6819   6815   6822   6825     1  180.0000771  2.0083200  2
   6819   6815   6822   6825     1  0.0000000  1.2552000  3
   6819   6831   6837  12390     1  0.0000000  0.6508444  3
   6822   6815   6816   6828     1  180.0000771  2.0083200  2
   6822   6815   6816   6828     1  0.0000000  1.2552000  3
   6822   6815   6819   6831     1  180.0000771  2.0083200  2
   6822   6815   6819   6831     1  0.0000000  1.2552000  3
   6822   6825   6834   6843     1  0.0000000  0.6508444  3
   6828   6840  12413  12409     1  180.0000771  0.4184000  2
   6828   6840  12413  12409     1  0.0000000  1.6024720  3
   6831   6837  12390  12386     1  180.0000771  0.4184000  2
   6831   6837  12390  12386     1  0.0000000  1.6024720  3
   6837  12390  12386  12385     1  180.0000771  0.4184000  2
   6837  12390  12386  12385     1  0.0000000  1.6024720  3
   6837  12390  12386  12402     1  180.0000771  5.6484000  1
   6837  12390  12386  12402     1  180.0000771  3.5564000  2
   6837  12390  12386  12402     1  0.0000000  0.4184000  3
   6840  12413  12409  12425     1  180.0000771  5.6484000  1
   6840  12413  12409  12425     1  180.0000771  3.5564000  2
   6840  12413  12409  12425     1  0.0000000  0.4184000  3
   6840  12413  12409  12408     1  180.0000771  0.4184000  2
   6840  12413  12409  12408     1  0.0000000  1.6024720  3
   6844   6845   6857   6869     1  0.0000000  0.6508444  3
   6844   6848   6860   6866     1  0.0000000  0.6508444  3
   6844   6851   6854   6863     1  0.0000000  0.6508444  3
   6845   6844   6848   6860     1  180.0000771  2.0083200  2
   6845   6844   6848   6860     1  0.0000000  1.2552000  3
   6845   6844   6851   6854     1  180.0000771  2.0083200  2
   6845   6844   6851   6854     1  0.0000000  1.2552000  3
   6845   6857   6869  12459     1  0.0000000  0.6508444  3
   6848   6844   6845   6857     1  180.0000771  2.0083200  2
   6848   6844   6845   6857     1  0.0000000  1.2552000  3
   6848   6844   6851   6854     1  180.0000771  2.0083200  2
   6848   6844   6851   6854     1  0.0000000  1.2552000  3
   6848   6860   6866  12436     1  0.0000000  0.6508444  3
   6851   6844   6845   6857     1  180.0000771  2.0083200  2
   6851   6844   6845   6857     1  0.0000000  1.2552000  3
   6851   6844   6848   6860     1  180.0000771  2.0083200  2
   6851   6844   6848   6860     1  0.0000000  1.2552000  3
   6851   6854   6863   6872     1  0.0000000  0.6508444  3
   6857   6869  12459  12455     1  180.0000771  0.4184000  2
   6857   6869  12459  12455     1  0.0000000  1.6024720  3
   6860   6866  12436  12432     1  180.0000771  0.4184000  2
   6860   6866  12436  12432     1  0.0000000  1.6024720  3
   6866  12436  12432  12431     1  180.0000771  0.4184000  2
   6866  12436  12432  12431     1  0.0000000  1.6024720  3
   6866  12436  12432  12448     1  180.0000771  5.6484000  1
   6866  12436  12432  12448     1  180.0000771  3.5564000  2
   6866  12436  12432  12448     1  0.0000000  0.4184000  3
   6869  12459  12455  12471     1  180.0000771  5.6484000  1
   6869  12459  12455  12471     1  180.0000771  3.5564000  2
   6869  12459  12455  12471     1  0.0000000  0.4184000  3
   6869  12459  12455  12454     1  180.0000771  0.4184000  2
   6869  12459  12455  12454     1  0.0000000  1.6024720  3
   6873   6874   6886   6898     1  0.0000000  0.6508444  3
   6873   6877   6889   6895     1  0.0000000  0.6508444  3
   6873   6880   6883   6892     1  0.0000000  0.6508444  3
   6874   6873   6877   6889     1  180.0000771  2.0083200  2
   6874   6873   6877   6889     1  0.0000000  1.2552000  3
   6874   6873   6880   6883     1  180.0000771  2.0083200  2
   6874   6873   6880   6883     1  0.0000000  1.2552000  3
   6874   6886   6898  12505     1  0.0000000  0.6508444  3
   6877   6873   6874   6886     1  180.0000771  2.0083200  2
   6877   6873   6874   6886     1  0.0000000  1.2552000  3
   6877   6873   6880   6883     1  180.0000771  2.0083200  2
   6877   6873   6880   6883     1  0.0000000  1.2552000  3
   6877   6889   6895  12482     1  0.0000000  0.6508444  3
   6880   6873   6874   6886     1  180.0000771  2.0083200  2
   6880   6873   6874   6886     1  0.0000000  1.2552000  3
   6880   6873   6877   6889     1  180.0000771  2.0083200  2
   6880   6873   6877   6889     1  0.0000000  1.2552000  3
   6880   6883   6892   6901     1  0.0000000  0.6508444  3
   6886   6898  12505  12501     1  180.0000771  0.4184000  2
   6886   6898  12505  12501     1  0.0000000  1.6024720  3
   6889   6895  12482  12478     1  180.0000771  0.4184000  2
   6889   6895  12482  12478     1  0.0000000  1.6024720  3
   6895  12482  12478  12477     1  180.0000771  0.4184000  2
   6895  12482  12478  12477     1  0.0000000  1.6024720  3
   6895  12482  12478  12494     1  180.0000771  5.6484000  1
   6895  12482  12478  12494     1  180.0000771  3.5564000  2
   6895  12482  12478  12494     1  0.0000000  0.4184000  3
   6898  12505  12501  12517     1  180.0000771  5.6484000  1
   6898  12505  12501  12517     1  180.0000771  3.5564000  2
   6898  12505  12501  12517     1  0.0000000  0.4184000  3
   6898  12505  12501  12500     1  180.0000771  0.4184000  2
   6898  12505  12501  12500     1  0.0000000  1.6024720  3
   6902   6903   6915   6927     1  0.0000000  0.6508444  3
   6902   6906   6918   6924     1  0.0000000  0.6508444  3
   6902   6909   6912   6921     1  0.0000000  0.6508444  3
   6903   6902   6906   6918     1  180.0000771  2.0083200  2
   6903   6902   6906   6918     1  0.0000000  1.2552000  3
   6903   6902   6909   6912     1  180.0000771  2.0083200  2
   6903   6902   6909   6912     1  0.0000000  1.2552000  3
   6903   6915   6927  12551     1  0.0000000  0.6508444  3
   6906   6902   6903   6915     1  180.0000771  2.0083200  2
   6906   6902   6903   6915     1  0.0000000  1.2552000  3
   6906   6902   6909   6912     1  180.0000771  2.0083200  2
   6906   6902   6909   6912     1  0.0000000  1.2552000  3
   6906   6918   6924  12528     1  0.0000000  0.6508444  3
   6909   6902   6903   6915     1  180.0000771  2.0083200  2
   6909   6902   6903   6915     1  0.0000000  1.2552000  3
   6909   6902   6906   6918     1  180.0000771  2.0083200  2
   6909   6902   6906   6918     1  0.0000000  1.2552000  3
   6909   6912   6921   6930     1  0.0000000  0.6508444  3
   6915   6927  12551  12547     1  180.0000771  0.4184000  2
   6915   6927  12551  12547     1  0.0000000  1.6024720  3
   6918   6924  12528  12524     1  180.0000771  0.4184000  2
   6918   6924  12528  12524     1  0.0000000  1.6024720  3
   6924  12528  12524  12523     1  180.0000771  0.4184000  2
   6924  12528  12524  12523     1  0.0000000  1.6024720  3
   6924  12528  12524  12540     1  180.0000771  5.6484000  1
   6924  12528  12524  12540     1  180.0000771  3.5564000  2
   6924  12528  12524  12540     1  0.0000000  0.4184000  3
   6927  12551  12547  12563     1  180.0000771  5.6484000  1
   6927  12551  12547  12563     1  180.0000771  3.5564000  2
   6927  12551  12547  12563     1  0.0000000  0.4184000  3
   6927  12551  12547  12546     1  180.0000771  0.4184000  2
   6927  12551  12547  12546     1  0.0000000  1.6024720  3
   6931   6932   6944   6956     1  0.0000000  0.6508444  3
   6931   6935   6947   6953     1  0.0000000  0.6508444  3
   6931   6938   6941   6950     1  0.0000000  0.6508444  3
   6932   6931   6935   6947     1  180.0000771  2.0083200  2
   6932   6931   6935   6947     1  0.0000000  1.2552000  3
   6932   6931   6938   6941     1  180.0000771  2.0083200  2
   6932   6931   6938   6941     1  0.0000000  1.2552000  3
   6932   6944   6956  12597     1  0.0000000  0.6508444  3
   6935   6931   6932   6944     1  180.0000771  2.0083200  2
   6935   6931   6932   6944     1  0.0000000  1.2552000  3
   6935   6931   6938   6941     1  180.0000771  2.0083200  2
   6935   6931   6938   6941     1  0.0000000  1.2552000  3
   6935   6947   6953  12574     1  0.0000000  0.6508444  3
   6938   6931   6932   6944     1  180.0000771  2.0083200  2
   6938   6931   6932   6944     1  0.0000000  1.2552000  3
   6938   6931   6935   6947     1  180.0000771  2.0083200  2
   6938   6931   6935   6947     1  0.0000000  1.2552000  3
   6938   6941   6950   6959     1  0.0000000  0.6508444  3
   6944   6956  12597  12593     1  180.0000771  0.4184000  2
   6944   6956  12597  12593     1  0.0000000  1.6024720  3
   6947   6953  12574  12570     1  180.0000771  0.4184000  2
   6947   6953  12574  12570     1  0.0000000  1.6024720  3
   6953  12574  12570  12569     1  180.0000771  0.4184000  2
   6953  12574  12570  12569     1  0.0000000  1.6024720  3
   6953  12574  12570  12586     1  180.0000771  5.6484000  1
   6953  12574  12570  12586     1  180.0000771  3.5564000  2
   6953  12574  12570  12586     1  0.0000000  0.4184000  3
   6956  12597  12593  12609     1  180.0000771  5.6484000  1
   6956  12597  12593  12609     1  180.0000771  3.5564000  2
   6956  12597  12593  12609     1  0.0000000  0.4184000  3
   6956  12597  12593  12592     1  180.0000771  0.4184000  2
   6956  12597  12593  12592     1  0.0000000  1.6024720  3
   6960   6961   6973   6985     1  0.0000000  0.6508444  3
   6960   6964   6976   6982     1  0.0000000  0.6508444  3
   6960   6967   6970   6979     1  0.0000000  0.6508444  3
   6961   6960   6964   6976     1  180.0000771  2.0083200  2
   6961   6960   6964   6976     1  0.0000000  1.2552000  3
   6961   6960   6967   6970     1  180.0000771  2.0083200  2
   6961   6960   6967   6970     1  0.0000000  1.2552000  3
   6961   6973   6985  12643     1  0.0000000  0.6508444  3
   6964   6960   6961   6973     1  180.0000771  2.0083200  2
   6964   6960   6961   6973     1  0.0000000  1.2552000  3
   6964   6960   6967   6970     1  180.0000771  2.0083200  2
   6964   6960   6967   6970     1  0.0000000  1.2552000  3
   6964   6976   6982  12620     1  0.0000000  0.6508444  3
   6967   6960   6961   6973     1  180.0000771  2.0083200  2
   6967   6960   6961   6973     1  0.0000000  1.2552000  3
   6967   6960   6964   6976     1  180.0000771  2.0083200  2
   6967   6960   6964   6976     1  0.0000000  1.2552000  3
   6967   6970   6979   6988     1  0.0000000  0.6508444  3
   6973   6985  12643  12639     1  180.0000771  0.4184000  2
   6973   6985  12643  12639     1  0.0000000  1.6024720  3
   6976   6982  12620  12616     1  180.0000771  0.4184000  2
   6976   6982  12620  12616     1  0.0000000  1.6024720  3
   6982  12620  12616  12615     1  180.0000771  0.4184000  2
   6982  12620  12616  12615     1  0.0000000  1.6024720  3
   6982  12620  12616  12632     1  180.0000771  5.6484000  1
   6982  12620  12616  12632     1  180.0000771  3.5564000  2
   6982  12620  12616  12632     1  0.0000000  0.4184000  3
   6985  12643  12639  12655     1  180.0000771  5.6484000  1
   6985  12643  12639  12655     1  180.0000771  3.5564000  2
   6985  12643  12639  12655     1  0.0000000  0.4184000  3
   6985  12643  12639  12638     1  180.0000771  0.4184000  2
   6985  12643  12639  12638     1  0.0000000  1.6024720  3
   6989   6990   7002   7014     1  0.0000000  0.6508444  3
   6989   6993   7005   7011     1  0.0000000  0.6508444  3
   6989   6996   6999   7008     1  0.0000000  0.6508444  3
   6990   6989   6993   7005     1  180.0000771  2.0083200  2
   6990   6989   6993   7005     1  0.0000000  1.2552000  3
   6990   6989   6996   6999     1  180.0000771  2.0083200  2
   6990   6989   6996   6999     1  0.0000000  1.2552000  3
   6990   7002   7014  12689     1  0.0000000  0.6508444  3
   6993   6989   6990   7002     1  180.0000771  2.0083200  2
   6993   6989   6990   7002     1  0.0000000  1.2552000  3
   6993   6989   6996   6999     1  180.0000771  2.0083200  2
   6993   6989   6996   6999     1  0.0000000  1.2552000  3
   6993   7005   7011  12666     1  0.0000000  0.6508444  3
   6996   6989   6990   7002     1  180.0000771  2.0083200  2
   6996   6989   6990   7002     1  0.0000000  1.2552000  3
   6996   6989   6993   7005     1  180.0000771  2.0083200  2
   6996   6989   6993   7005     1  0.0000000  1.2552000  3
   6996   6999   7008   7017     1  0.0000000  0.6508444  3
   7002   7014  12689  12685     1  180.0000771  0.4184000  2
   7002   7014  12689  12685     1  0.0000000  1.6024720  3
   7005   7011  12666  12662     1  180.0000771  0.4184000  2
   7005   7011  12666  12662     1  0.0000000  1.6024720  3
   7011  12666  12662  12661     1  180.0000771  0.4184000  2
   7011  12666  12662  12661     1  0.0000000  1.6024720  3
   7011  12666  12662  12678     1  180.0000771  5.6484000  1
   7011  12666  12662  12678     1  180.0000771  3.5564000  2
   7011  12666  12662  12678     1  0.0000000  0.4184000  3
   7014  12689  12685  12701     1  180.0000771  5.6484000  1
   7014  12689  12685  12701     1  180.0000771  3.5564000  2
   7014  12689  12685  12701     1  0.0000000  0.4184000  3
   7014  12689  12685  12684     1  180.0000771  0.4184000  2
   7014  12689  12685  12684     1  0.0000000  1.6024720  3
   7018   7019   7031   7043     1  0.0000000  0.6508444  3
   7018   7022   7034   7040     1  0.0000000  0.6508444  3
   7018   7025   7028   7037     1  0.0000000  0.6508444  3
   7019   7018   7022   7034     1  180.0000771  2.0083200  2
   7019   7018   7022   7034     1  0.0000000  1.2552000  3
   7019   7018   7025   7028     1  180.0000771  2.0083200  2
   7019   7018   7025   7028     1  0.0000000  1.2552000  3
   7019   7031   7043  12735     1  0.0000000  0.6508444  3
   7022   7018   7019   7031     1  180.0000771  2.0083200  2
   7022   7018   7019   7031     1  0.0000000  1.2552000  3
   7022   7018   7025   7028     1  180.0000771  2.0083200  2
   7022   7018   7025   7028     1  0.0000000  1.2552000  3
   7022   7034   7040  12712     1  0.0000000  0.6508444  3
   7025   7018   7019   7031     1  180.0000771  2.0083200  2
   7025   7018   7019   7031     1  0.0000000  1.2552000  3
   7025   7018   7022   7034     1  180.0000771  2.0083200  2
   7025   7018   7022   7034     1  0.0000000  1.2552000  3
   7025   7028   7037   7046     1  0.0000000  0.6508444  3
   7031   7043  12735  12731     1  180.0000771  0.4184000  2
   7031   7043  12735  12731     1  0.0000000  1.6024720  3
   7034   7040  12712  12708     1  180.0000771  0.4184000  2
   7034   7040  12712  12708     1  0.0000000  1.6024720  3
   7040  12712  12708  12707     1  180.0000771  0.4184000  2
   7040  12712  12708  12707     1  0.0000000  1.6024720  3
   7040  12712  12708  12724     1  180.0000771  5.6484000  1
   7040  12712  12708  12724     1  180.0000771  3.5564000  2
   7040  12712  12708  12724     1  0.0000000  0.4184000  3
   7043  12735  12731  12747     1  180.0000771  5.6484000  1
   7043  12735  12731  12747     1  180.0000771  3.5564000  2
   7043  12735  12731  12747     1  0.0000000  0.4184000  3
   7043  12735  12731  12730     1  180.0000771  0.4184000  2
   7043  12735  12731  12730     1  0.0000000  1.6024720  3
   7047   7048   7060   7072     1  0.0000000  0.6508444  3
   7047   7051   7063   7069     1  0.0000000  0.6508444  3
   7047   7054   7057   7066     1  0.0000000  0.6508444  3
   7048   7047   7051   7063     1  180.0000771  2.0083200  2
   7048   7047   7051   7063     1  0.0000000  1.2552000  3
   7048   7047   7054   7057     1  180.0000771  2.0083200  2
   7048   7047   7054   7057     1  0.0000000  1.2552000  3
   7048   7060   7072  12781     1  0.0000000  0.6508444  3
   7051   7047   7048   7060     1  180.0000771  2.0083200  2
   7051   7047   7048   7060     1  0.0000000  1.2552000  3
   7051   7047   7054   7057     1  180.0000771  2.0083200  2
   7051   7047   7054   7057     1  0.0000000  1.2552000  3
   7051   7063   7069  12758     1  0.0000000  0.6508444  3
   7054   7047   7048   7060     1  180.0000771  2.0083200  2
   7054   7047   7048   7060     1  0.0000000  1.2552000  3
   7054   7047   7051   7063     1  180.0000771  2.0083200  2
   7054   7047   7051   7063     1  0.0000000  1.2552000  3
   7054   7057   7066   7075     1  0.0000000  0.6508444  3
   7060   7072  12781  12777     1  180.0000771  0.4184000  2
   7060   7072  12781  12777     1  0.0000000  1.6024720  3
   7063   7069  12758  12754     1  180.0000771  0.4184000  2
   7063   7069  12758  12754     1  0.0000000  1.6024720  3
   7069  12758  12754  12753     1  180.0000771  0.4184000  2
   7069  12758  12754  12753     1  0.0000000  1.6024720  3
   7069  12758  12754  12770     1  180.0000771  5.6484000  1
   7069  12758  12754  12770     1  180.0000771  3.5564000  2
   7069  12758  12754  12770     1  0.0000000  0.4184000  3
   7072  12781  12777  12793     1  180.0000771  5.6484000  1
   7072  12781  12777  12793     1  180.0000771  3.5564000  2
   7072  12781  12777  12793     1  0.0000000  0.4184000  3
   7072  12781  12777  12776     1  180.0000771  0.4184000  2
   7072  12781  12777  12776     1  0.0000000  1.6024720  3
   7076   7077   7089   7101     1  0.0000000  0.6508444  3
   7076   7080   7092   7098     1  0.0000000  0.6508444  3
   7076   7083   7086   7095     1  0.0000000  0.6508444  3
   7077   7076   7080   7092     1  180.0000771  2.0083200  2
   7077   7076   7080   7092     1  0.0000000  1.2552000  3
   7077   7076   7083   7086     1  180.0000771  2.0083200  2
   7077   7076   7083   7086     1  0.0000000  1.2552000  3
   7077   7089   7101  12827     1  0.0000000  0.6508444  3
   7080   7076   7077   7089     1  180.0000771  2.0083200  2
   7080   7076   7077   7089     1  0.0000000  1.2552000  3
   7080   7076   7083   7086     1  180.0000771  2.0083200  2
   7080   7076   7083   7086     1  0.0000000  1.2552000  3
   7080   7092   7098  12804     1  0.0000000  0.6508444  3
   7083   7076   7077   7089     1  180.0000771  2.0083200  2
   7083   7076   7077   7089     1  0.0000000  1.2552000  3
   7083   7076   7080   7092     1  180.0000771  2.0083200  2
   7083   7076   7080   7092     1  0.0000000  1.2552000  3
   7083   7086   7095   7104     1  0.0000000  0.6508444  3
   7089   7101  12827  12823     1  180.0000771  0.4184000  2
   7089   7101  12827  12823     1  0.0000000  1.6024720  3
   7092   7098  12804  12800     1  180.0000771  0.4184000  2
   7092   7098  12804  12800     1  0.0000000  1.6024720  3
   7098  12804  12800  12799     1  180.0000771  0.4184000  2
   7098  12804  12800  12799     1  0.0000000  1.6024720  3
   7098  12804  12800  12816     1  180.0000771  5.6484000  1
   7098  12804  12800  12816     1  180.0000771  3.5564000  2
   7098  12804  12800  12816     1  0.0000000  0.4184000  3
   7101  12827  12823  12839     1  180.0000771  5.6484000  1
   7101  12827  12823  12839     1  180.0000771  3.5564000  2
   7101  12827  12823  12839     1  0.0000000  0.4184000  3
   7101  12827  12823  12822     1  180.0000771  0.4184000  2
   7101  12827  12823  12822     1  0.0000000  1.6024720  3
   7105   7106   7118   7130     1  0.0000000  0.6508444  3
   7105   7109   7121   7127     1  0.0000000  0.6508444  3
   7105   7112   7115   7124     1  0.0000000  0.6508444  3
   7106   7105   7109   7121     1  180.0000771  2.0083200  2
   7106   7105   7109   7121     1  0.0000000  1.2552000  3
   7106   7105   7112   7115     1  180.0000771  2.0083200  2
   7106   7105   7112   7115     1  0.0000000  1.2552000  3
   7106   7118   7130  12873     1  0.0000000  0.6508444  3
   7109   7105   7106   7118     1  180.0000771  2.0083200  2
   7109   7105   7106   7118     1  0.0000000  1.2552000  3
   7109   7105   7112   7115     1  180.0000771  2.0083200  2
   7109   7105   7112   7115     1  0.0000000  1.2552000  3
   7109   7121   7127  12850     1  0.0000000  0.6508444  3
   7112   7105   7106   7118     1  180.0000771  2.0083200  2
   7112   7105   7106   7118     1  0.0000000  1.2552000  3
   7112   7105   7109   7121     1  180.0000771  2.0083200  2
   7112   7105   7109   7121     1  0.0000000  1.2552000  3
   7112   7115   7124   7133     1  0.0000000  0.6508444  3
   7118   7130  12873  12869     1  180.0000771  0.4184000  2
   7118   7130  12873  12869     1  0.0000000  1.6024720  3
   7121   7127  12850  12846     1  180.0000771  0.4184000  2
   7121   7127  12850  12846     1  0.0000000  1.6024720  3
   7127  12850  12846  12845     1  180.0000771  0.4184000  2
   7127  12850  12846  12845     1  0.0000000  1.6024720  3
   7127  12850  12846  12862     1  180.0000771  5.6484000  1
   7127  12850  12846  12862     1  180.0000771  3.5564000  2
   7127  12850  12846  12862     1  0.0000000  0.4184000  3
   7130  12873  12869  12885     1  180.0000771  5.6484000  1
   7130  12873  12869  12885     1  180.0000771  3.5564000  2
   7130  12873  12869  12885     1  0.0000000  0.4184000  3
   7130  12873  12869  12868     1  180.0000771  0.4184000  2
   7130  12873  12869  12868     1  0.0000000  1.6024720  3
   7134   7135   7147   7159     1  0.0000000  0.6508444  3
   7134   7138   7150   7156     1  0.0000000  0.6508444  3
   7134   7141   7144   7153     1  0.0000000  0.6508444  3
   7135   7134   7138   7150     1  180.0000771  2.0083200  2
   7135   7134   7138   7150     1  0.0000000  1.2552000  3
   7135   7134   7141   7144     1  180.0000771  2.0083200  2
   7135   7134   7141   7144     1  0.0000000  1.2552000  3
   7135   7147   7159  12919     1  0.0000000  0.6508444  3
   7138   7134   7135   7147     1  180.0000771  2.0083200  2
   7138   7134   7135   7147     1  0.0000000  1.2552000  3
   7138   7134   7141   7144     1  180.0000771  2.0083200  2
   7138   7134   7141   7144     1  0.0000000  1.2552000  3
   7138   7150   7156  12896     1  0.0000000  0.6508444  3
   7141   7134   7135   7147     1  180.0000771  2.0083200  2
   7141   7134   7135   7147     1  0.0000000  1.2552000  3
   7141   7134   7138   7150     1  180.0000771  2.0083200  2
   7141   7134   7138   7150     1  0.0000000  1.2552000  3
   7141   7144   7153   7162     1  0.0000000  0.6508444  3
   7147   7159  12919  12915     1  180.0000771  0.4184000  2
   7147   7159  12919  12915     1  0.0000000  1.6024720  3
   7150   7156  12896  12892     1  180.0000771  0.4184000  2
   7150   7156  12896  12892     1  0.0000000  1.6024720  3
   7156  12896  12892  12891     1  180.0000771  0.4184000  2
   7156  12896  12892  12891     1  0.0000000  1.6024720  3
   7156  12896  12892  12908     1  180.0000771  5.6484000  1
   7156  12896  12892  12908     1  180.0000771  3.5564000  2
   7156  12896  12892  12908     1  0.0000000  0.4184000  3
   7159  12919  12915  12931     1  180.0000771  5.6484000  1
   7159  12919  12915  12931     1  180.0000771  3.5564000  2
   7159  12919  12915  12931     1  0.0000000  0.4184000  3
   7159  12919  12915  12914     1  180.0000771  0.4184000  2
   7159  12919  12915  12914     1  0.0000000  1.6024720  3
   7163   7164   7176   7188     1  0.0000000  0.6508444  3
   7163   7167   7179   7185     1  0.0000000  0.6508444  3
   7163   7170   7173   7182     1  0.0000000  0.6508444  3
   7164   7163   7167   7179     1  180.0000771  2.0083200  2
   7164   7163   7167   7179     1  0.0000000  1.2552000  3
   7164   7163   7170   7173     1  180.0000771  2.0083200  2
   7164   7163   7170   7173     1  0.0000000  1.2552000  3
   7164   7176   7188  12965     1  0.0000000  0.6508444  3
   7167   7163   7164   7176     1  180.0000771  2.0083200  2
   7167   7163   7164   7176     1  0.0000000  1.2552000  3
   7167   7163   7170   7173     1  180.0000771  2.0083200  2
   7167   7163   7170   7173     1  0.0000000  1.2552000  3
   7167   7179   7185  12942     1  0.0000000  0.6508444  3
   7170   7163   7164   7176     1  180.0000771  2.0083200  2
   7170   7163   7164   7176     1  0.0000000  1.2552000  3
   7170   7163   7167   7179     1  180.0000771  2.0083200  2
   7170   7163   7167   7179     1  0.0000000  1.2552000  3
   7170   7173   7182   7191     1  0.0000000  0.6508444  3
   7176   7188  12965  12961     1  180.0000771  0.4184000  2
   7176   7188  12965  12961     1  0.0000000  1.6024720  3
   7179   7185  12942  12938     1  180.0000771  0.4184000  2
   7179   7185  12942  12938     1  0.0000000  1.6024720  3
   7185  12942  12938  12937     1  180.0000771  0.4184000  2
   7185  12942  12938  12937     1  0.0000000  1.6024720  3
   7185  12942  12938  12954     1  180.0000771  5.6484000  1
   7185  12942  12938  12954     1  180.0000771  3.5564000  2
   7185  12942  12938  12954     1  0.0000000  0.4184000  3
   7188  12965  12961  12977     1  180.0000771  5.6484000  1
   7188  12965  12961  12977     1  180.0000771  3.5564000  2
   7188  12965  12961  12977     1  0.0000000  0.4184000  3
   7188  12965  12961  12960     1  180.0000771  0.4184000  2
   7188  12965  12961  12960     1  0.0000000  1.6024720  3
   7192   7193   7205   7217     1  0.0000000  0.6508444  3
   7192   7196   7208   7214     1  0.0000000  0.6508444  3
   7192   7199   7202   7211     1  0.0000000  0.6508444  3
   7193   7192   7196   7208     1  180.0000771  2.0083200  2
   7193   7192   7196   7208     1  0.0000000  1.2552000  3
   7193   7192   7199   7202     1  180.0000771  2.0083200  2
   7193   7192   7199   7202     1  0.0000000  1.2552000  3
   7193   7205   7217  13011     1  0.0000000  0.6508444  3
   7196   7192   7193   7205     1  180.0000771  2.0083200  2
   7196   7192   7193   7205     1  0.0000000  1.2552000  3
   7196   7192   7199   7202     1  180.0000771  2.0083200  2
   7196   7192   7199   7202     1  0.0000000  1.2552000  3
   7196   7208   7214  12988     1  0.0000000  0.6508444  3
   7199   7192   7193   7205     1  180.0000771  2.0083200  2
   7199   7192   7193   7205     1  0.0000000  1.2552000  3
   7199   7192   7196   7208     1  180.0000771  2.0083200  2
   7199   7192   7196   7208     1  0.0000000  1.2552000  3
   7199   7202   7211   7220     1  0.0000000  0.6508444  3
   7205   7217  13011  13007     1  180.0000771  0.4184000  2
   7205   7217  13011  13007     1  0.0000000  1.6024720  3
   7208   7214  12988  12984     1  180.0000771  0.4184000  2
   7208   7214  12988  12984     1  0.0000000  1.6024720  3
   7214  12988  12984  12983     1  180.0000771  0.4184000  2
   7214  12988  12984  12983     1  0.0000000  1.6024720  3
   7214  12988  12984  13000     1  180.0000771  5.6484000  1
   7214  12988  12984  13000     1  180.0000771  3.5564000  2
   7214  12988  12984  13000     1  0.0000000  0.4184000  3
   7217  13011  13007  13023     1  180.0000771  5.6484000  1
   7217  13011  13007  13023     1  180.0000771  3.5564000  2
   7217  13011  13007  13023     1  0.0000000  0.4184000  3
   7217  13011  13007  13006     1  180.0000771  0.4184000  2
   7217  13011  13007  13006     1  0.0000000  1.6024720  3
   7221   7222   7234   7246     1  0.0000000  0.6508444  3
   7221   7225   7237   7243     1  0.0000000  0.6508444  3
   7221   7228   7231   7240     1  0.0000000  0.6508444  3
   7222   7221   7225   7237     1  180.0000771  2.0083200  2
   7222   7221   7225   7237     1  0.0000000  1.2552000  3
   7222   7221   7228   7231     1  180.0000771  2.0083200  2
   7222   7221   7228   7231     1  0.0000000  1.2552000  3
   7222   7234   7246  13057     1  0.0000000  0.6508444  3
   7225   7221   7222   7234     1  180.0000771  2.0083200  2
   7225   7221   7222   7234     1  0.0000000  1.2552000  3
   7225   7221   7228   7231     1  180.0000771  2.0083200  2
   7225   7221   7228   7231     1  0.0000000  1.2552000  3
   7225   7237   7243  13034     1  0.0000000  0.6508444  3
   7228   7221   7222   7234     1  180.0000771  2.0083200  2
   7228   7221   7222   7234     1  0.0000000  1.2552000  3
   7228   7221   7225   7237     1  180.0000771  2.0083200  2
   7228   7221   7225   7237     1  0.0000000  1.2552000  3
   7228   7231   7240   7249     1  0.0000000  0.6508444  3
   7234   7246  13057  13053     1  180.0000771  0.4184000  2
   7234   7246  13057  13053     1  0.0000000  1.6024720  3
   7237   7243  13034  13030     1  180.0000771  0.4184000  2
   7237   7243  13034  13030     1  0.0000000  1.6024720  3
   7243  13034  13030  13029     1  180.0000771  0.4184000  2
   7243  13034  13030  13029     1  0.0000000  1.6024720  3
   7243  13034  13030  13046     1  180.0000771  5.6484000  1
   7243  13034  13030  13046     1  180.0000771  3.5564000  2
   7243  13034  13030  13046     1  0.0000000  0.4184000  3
   7246  13057  13053  13069     1  180.0000771  5.6484000  1
   7246  13057  13053  13069     1  180.0000771  3.5564000  2
   7246  13057  13053  13069     1  0.0000000  0.4184000  3
   7246  13057  13053  13052     1  180.0000771  0.4184000  2
   7246  13057  13053  13052     1  0.0000000  1.6024720  3
   7250   7251   7263   7275     1  0.0000000  0.6508444  3
   7250   7254   7266   7272     1  0.0000000  0.6508444  3
   7250   7257   7260   7269     1  0.0000000  0.6508444  3
   7251   7250   7254   7266     1  180.0000771  2.0083200  2
   7251   7250   7254   7266     1  0.0000000  1.2552000  3
   7251   7250   7257   7260     1  180.0000771  2.0083200  2
   7251   7250   7257   7260     1  0.0000000  1.2552000  3
   7251   7263   7275  13103     1  0.0000000  0.6508444  3
   7254   7250   7251   7263     1  180.0000771  2.0083200  2
   7254   7250   7251   7263     1  0.0000000  1.2552000  3
   7254   7250   7257   7260     1  180.0000771  2.0083200  2
   7254   7250   7257   7260     1  0.0000000  1.2552000  3
   7254   7266   7272  13080     1  0.0000000  0.6508444  3
   7257   7250   7251   7263     1  180.0000771  2.0083200  2
   7257   7250   7251   7263     1  0.0000000  1.2552000  3
   7257   7250   7254   7266     1  180.0000771  2.0083200  2
   7257   7250   7254   7266     1  0.0000000  1.2552000  3
   7257   7260   7269   7278     1  0.0000000  0.6508444  3
   7263   7275  13103  13099     1  180.0000771  0.4184000  2
   7263   7275  13103  13099     1  0.0000000  1.6024720  3
   7266   7272  13080  13076     1  180.0000771  0.4184000  2
   7266   7272  13080  13076     1  0.0000000  1.6024720  3
   7272  13080  13076  13075     1  180.0000771  0.4184000  2
   7272  13080  13076  13075     1  0.0000000  1.6024720  3
   7272  13080  13076  13092     1  180.0000771  5.6484000  1
   7272  13080  13076  13092     1  180.0000771  3.5564000  2
   7272  13080  13076  13092     1  0.0000000  0.4184000  3
   7275  13103  13099  13115     1  180.0000771  5.6484000  1
   7275  13103  13099  13115     1  180.0000771  3.5564000  2
   7275  13103  13099  13115     1  0.0000000  0.4184000  3
   7275  13103  13099  13098     1  180.0000771  0.4184000  2
   7275  13103  13099  13098     1  0.0000000  1.6024720  3
   7279   7280   7292   7304     1  0.0000000  0.6508444  3
   7279   7283   7295   7301     1  0.0000000  0.6508444  3
   7279   7286   7289   7298     1  0.0000000  0.6508444  3
   7280   7279   7283   7295     1  180.0000771  2.0083200  2
   7280   7279   7283   7295     1  0.0000000  1.2552000  3
   7280   7279   7286   7289     1  180.0000771  2.0083200  2
   7280   7279   7286   7289     1  0.0000000  1.2552000  3
   7280   7292   7304  13149     1  0.0000000  0.6508444  3
   7283   7279   7280   7292     1  180.0000771  2.0083200  2
   7283   7279   7280   7292     1  0.0000000  1.2552000  3
   7283   7279   7286   7289     1  180.0000771  2.0083200  2
   7283   7279   7286   7289     1  0.0000000  1.2552000  3
   7283   7295   7301  13126     1  0.0000000  0.6508444  3
   7286   7279   7280   7292     1  180.0000771  2.0083200  2
   7286   7279   7280   7292     1  0.0000000  1.2552000  3
   7286   7279   7283   7295     1  180.0000771  2.0083200  2
   7286   7279   7283   7295     1  0.0000000  1.2552000  3
   7286   7289   7298   7307     1  0.0000000  0.6508444  3
   7292   7304  13149  13145     1  180.0000771  0.4184000  2
   7292   7304  13149  13145     1  0.0000000  1.6024720  3
   7295   7301  13126  13122     1  180.0000771  0.4184000  2
   7295   7301  13126  13122     1  0.0000000  1.6024720  3
   7301  13126  13122  13121     1  180.0000771  0.4184000  2
   7301  13126  13122  13121     1  0.0000000  1.6024720  3
   7301  13126  13122  13138     1  180.0000771  5.6484000  1
   7301  13126  13122  13138     1  180.0000771  3.5564000  2
   7301  13126  13122  13138     1  0.0000000  0.4184000  3
   7304  13149  13145  13161     1  180.0000771  5.6484000  1
   7304  13149  13145  13161     1  180.0000771  3.5564000  2
   7304  13149  13145  13161     1  0.0000000  0.4184000  3
   7304  13149  13145  13144     1  180.0000771  0.4184000  2
   7304  13149  13145  13144     1  0.0000000  1.6024720  3
   7308   7309   7321   7333     1  0.0000000  0.6508444  3
   7308   7312   7324   7330     1  0.0000000  0.6508444  3
   7308   7315   7318   7327     1  0.0000000  0.6508444  3
   7309   7308   7312   7324     1  180.0000771  2.0083200  2
   7309   7308   7312   7324     1  0.0000000  1.2552000  3
   7309   7308   7315   7318     1  180.0000771  2.0083200  2
   7309   7308   7315   7318     1  0.0000000  1.2552000  3
   7309   7321   7333  13195     1  0.0000000  0.6508444  3
   7312   7308   7309   7321     1  180.0000771  2.0083200  2
   7312   7308   7309   7321     1  0.0000000  1.2552000  3
   7312   7308   7315   7318     1  180.0000771  2.0083200  2
   7312   7308   7315   7318     1  0.0000000  1.2552000  3
   7312   7324   7330  13172     1  0.0000000  0.6508444  3
   7315   7308   7309   7321     1  180.0000771  2.0083200  2
   7315   7308   7309   7321     1  0.0000000  1.2552000  3
   7315   7308   7312   7324     1  180.0000771  2.0083200  2
   7315   7308   7312   7324     1  0.0000000  1.2552000  3
   7315   7318   7327   7336     1  0.0000000  0.6508444  3
   7321   7333  13195  13191     1  180.0000771  0.4184000  2
   7321   7333  13195  13191     1  0.0000000  1.6024720  3
   7324   7330  13172  13168     1  180.0000771  0.4184000  2
   7324   7330  13172  13168     1  0.0000000  1.6024720  3
   7330  13172  13168  13167     1  180.0000771  0.4184000  2
   7330  13172  13168  13167     1  0.0000000  1.6024720  3
   7330  13172  13168  13184     1  180.0000771  5.6484000  1
   7330  13172  13168  13184     1  180.0000771  3.5564000  2
   7330  13172  13168  13184     1  0.0000000  0.4184000  3
   7333  13195  13191  13207     1  180.0000771  5.6484000  1
   7333  13195  13191  13207     1  180.0000771  3.5564000  2
   7333  13195  13191  13207     1  0.0000000  0.4184000  3
   7333  13195  13191  13190     1  180.0000771  0.4184000  2
   7333  13195  13191  13190     1  0.0000000  1.6024720  3
   7337   7338   7350   7362     1  0.0000000  0.6508444  3
   7337   7341   7353   7359     1  0.0000000  0.6508444  3
   7337   7344   7347   7356     1  0.0000000  0.6508444  3
   7338   7337   7341   7353     1  180.0000771  2.0083200  2
   7338   7337   7341   7353     1  0.0000000  1.2552000  3
   7338   7337   7344   7347     1  180.0000771  2.0083200  2
   7338   7337   7344   7347     1  0.0000000  1.2552000  3
   7338   7350   7362  13241     1  0.0000000  0.6508444  3
   7341   7337   7338   7350     1  180.0000771  2.0083200  2
   7341   7337   7338   7350     1  0.0000000  1.2552000  3
   7341   7337   7344   7347     1  180.0000771  2.0083200  2
   7341   7337   7344   7347     1  0.0000000  1.2552000  3
   7341   7353   7359  13218     1  0.0000000  0.6508444  3
   7344   7337   7338   7350     1  180.0000771  2.0083200  2
   7344   7337   7338   7350     1  0.0000000  1.2552000  3
   7344   7337   7341   7353     1  180.0000771  2.0083200  2
   7344   7337   7341   7353     1  0.0000000  1.2552000  3
   7344   7347   7356   7365     1  0.0000000  0.6508444  3
   7350   7362  13241  13237     1  180.0000771  0.4184000  2
   7350   7362  13241  13237     1  0.0000000  1.6024720  3
   7353   7359  13218  13214     1  180.0000771  0.4184000  2
   7353   7359  13218  13214     1  0.0000000  1.6024720  3
   7359  13218  13214  13213     1  180.0000771  0.4184000  2
   7359  13218  13214  13213     1  0.0000000  1.6024720  3
   7359  13218  13214  13230     1  180.0000771  5.6484000  1
   7359  13218  13214  13230     1  180.0000771  3.5564000  2
   7359  13218  13214  13230     1  0.0000000  0.4184000  3
   7362  13241  13237  13253     1  180.0000771  5.6484000  1
   7362  13241  13237  13253     1  180.0000771  3.5564000  2
   7362  13241  13237  13253     1  0.0000000  0.4184000  3
   7362  13241  13237  13236     1  180.0000771  0.4184000  2
   7362  13241  13237  13236     1  0.0000000  1.6024720  3
   7366   7367   7370   7371     1  180.0000771  0.8368000  1
   7366   7367   7370   7371     1  180.0000771  1.0460000  2
   7366   7367   7370   7371     1  0.0000000  0.7531200  3
   7366   7367   7370   7378     1  0.0000000  0.6508444  3
   7366   7388   7372   7371     1  180.0000771  0.4184000  2
   7366   7388   7372   7371     1  0.0000000  1.6024720  3
   7366   7388   7372   7376     1  180.0000771  5.6484000  1
   7366   7388   7372   7376     1  180.0000771  3.5564000  2
   7366   7388   7372   7376     1  0.0000000  0.4184000  3
   7367   7366   7380   7386     1  0.0000000  0.6508444  3
   7367   7366   7388   7372     1  180.0000771  0.4184000  2
   7367   7366   7388   7372     1  0.0000000  1.6024720  3
   7367   7370   7371   7372     1  180.0000771  0.8368000  1
   7367   7370   7371   7372     1  180.0000771  1.0460000  2
   7367   7370   7371   7372     1  0.0000000  0.7531200  3
   7367   7370   7371   7377     1  0.0000000  0.6508444  3
   7370   7367   7366   7380     1  180.0000771  0.8368000  1
   7370   7367   7366   7380     1  180.0000771  1.0460000  2
   7370   7367   7366   7380     1  0.0000000  0.7531200  3
   7370   7367   7366   7388     1  0.0000000  0.6508444  3
   7370   7371   7372   7376     1  0.0000000  0.6508444  3
   7370   7371   7372   7388     1  0.0000000  0.6508444  3
   7371   7370   7367   7379     1  0.0000000  0.6508444  3
   7372   7371   7370   7378     1  0.0000000  0.6508444  3
   7372   7388   7366   7380     1  180.0000771  0.4184000  2
   7372   7388   7366   7380     1  0.0000000  1.6024720  3
   7376   7372   7371   7377     1  0.0000000  4.9162000  2
   7376   7372   7371   7377     1  0.0000000  0.6024960  3
   7377   7371   7370   7378     1  0.0000000  4.9162000  2
   7377   7371   7370   7378     1  0.0000000  0.6024960  3
   7377   7371   7372   7388     1  0.0000000  4.9162000  2
   7377   7371   7372   7388     1  0.0000000  0.6024960  3
   7378   7370   7367   7379     1  0.0000000  4.9162000  2
   7378   7370   7367   7379     1  0.0000000  0.6024960  3
   7379   7367   7366   7380     1  0.0000000  0.6508444  3
   7379   7367   7366   7388     1  0.0000000  4.9162000  2
   7379   7367   7366   7388     1  0.0000000  0.6024960  3
   7386   7380   7366   7388     1  0.0000000  4.9162000  2
   7386   7380   7366   7388     1  0.0000000  0.6024960  3
   7389   7390   7393   7394     1  180.0000771  0.8368000  1
   7389   7390   7393   7394     1  180.0000771  1.0460000  2
   7389   7390   7393   7394     1  0.0000000  0.7531200  3
   7389   7390   7393   7401     1  0.0000000  0.6508444  3
   7389   7411   7395   7399     1  180.0000771  5.6484000  1
   7389   7411   7395   7399     1  180.0000771  3.5564000  2
   7389   7411   7395   7399     1  0.0000000  0.4184000  3
   7389   7411   7395   7394     1  180.0000771  0.4184000  2
   7389   7411   7395   7394     1  0.0000000  1.6024720  3
   7390   7393   7394   7395     1  180.0000771  0.8368000  1
   7390   7393   7394   7395     1  180.0000771  1.0460000  2
   7390   7393   7394   7395     1  0.0000000  0.7531200  3
   7390   7393   7394   7400     1  0.0000000  0.6508444  3
   7390   7389   7403   7409     1  0.0000000  0.6508444  3
   7390   7389   7411   7395     1  180.0000771  0.4184000  2
   7390   7389   7411   7395     1  0.0000000  1.6024720  3
   7393   7394   7395   7399     1  0.0000000  0.6508444  3
   7393   7394   7395   7411     1  0.0000000  0.6508444  3
   7393   7390   7389   7403     1  180.0000771  0.8368000  1
   7393   7390   7389   7403     1  180.0000771  1.0460000  2
   7393   7390   7389   7403     1  0.0000000  0.7531200  3
   7393   7390   7389   7411     1  0.0000000  0.6508444  3
   7394   7393   7390   7402     1  0.0000000  0.6508444  3
   7395   7411   7389   7403     1  180.0000771  0.4184000  2
   7395   7411   7389   7403     1  0.0000000  1.6024720  3
   7395   7394   7393   7401     1  0.0000000  0.6508444  3
   7399   7395   7394   7400     1  0.0000000  4.9162000  2
   7399   7395   7394   7400     1  0.0000000  0.6024960  3
   7400   7394   7395   7411     1  0.0000000  4.9162000  2
   7400   7394   7395   7411     1  0.0000000  0.6024960  3
   7400   7394   7393   7401     1  0.0000000  4.9162000  2
   7400   7394   7393   7401     1  0.0000000  0.6024960  3
   7401   7393   7390   7402     1  0.0000000  4.9162000  2
   7401   7393   7390   7402     1  0.0000000  0.6024960  3
   7402   7390   7389   7403     1  0.0000000  0.6508444  3
   7402   7390   7389   7411     1  0.0000000  4.9162000  2
   7402   7390   7389   7411     1  0.0000000  0.6024960  3
   7409   7403   7389   7411     1  0.0000000  4.9162000  2
   7409   7403   7389   7411     1  0.0000000  0.6024960  3
   7412   7413   7416   7417     1  180.0000771  0.8368000  1
   7412   7413   7416   7417     1  180.0000771  1.0460000  2
   7412   7413   7416   7417     1  0.0000000  0.7531200  3
   7412   7413   7416   7424     1  0.0000000  0.6508444  3
   7412   7434   7418   7417     1  180.0000771  0.4184000  2
   7412   7434   7418   7417     1  0.0000000  1.6024720  3
   7412   7434   7418   7422     1  180.0000771  5.6484000  1
   7412   7434   7418   7422     1  180.0000771  3.5564000  2
   7412   7434   7418   7422     1  0.0000000  0.4184000  3
   7413   7412   7426   7432     1  0.0000000  0.6508444  3
   7413   7412   7434   7418     1  180.0000771  0.4184000  2
   7413   7412   7434   7418     1  0.0000000  1.6024720  3
   7413   7416   7417   7418     1  180.0000771  0.8368000  1
   7413   7416   7417   7418     1  180.0000771  1.0460000  2
   7413   7416   7417   7418     1  0.0000000  0.7531200  3
   7413   7416   7417   7423     1  0.0000000  0.6508444  3
   7416   7413   7412   7426     1  180.0000771  0.8368000  1
   7416   7413   7412   7426     1  180.0000771  1.0460000  2
   7416   7413   7412   7426     1  0.0000000  0.7531200  3
   7416   7413   7412   7434     1  0.0000000  0.6508444  3
   7416   7417   7418   7422     1  0.0000000  0.6508444  3
   7416   7417   7418   7434     1  0.0000000  0.6508444  3
   7417   7416   7413   7425     1  0.0000000  0.6508444  3
   7418   7417   7416   7424     1  0.0000000  0.6508444  3
   7418   7434   7412   7426     1  180.0000771  0.4184000  2
   7418   7434   7412   7426     1  0.0000000  1.6024720  3
   7422   7418   7417   7423     1  0.0000000  4.9162000  2
   7422   7418   7417   7423     1  0.0000000  0.6024960  3
   7423   7417   7416   7424     1  0.0000000  4.9162000  2
   7423   7417   7416   7424     1  0.0000000  0.6024960  3
   7423   7417   7418   7434     1  0.0000000  4.9162000  2
   7423   7417   7418   7434     1  0.0000000  0.6024960  3
   7424   7416   7413   7425     1  0.0000000  4.9162000  2
   7424   7416   7413   7425     1  0.0000000  0.6024960  3
   7425   7413   7412   7426     1  0.0000000  0.6508444  3
   7425   7413   7412   7434     1  0.0000000  4.9162000  2
   7425   7413   7412   7434     1  0.0000000  0.6024960  3
   7432   7426   7412   7434     1  0.0000000  4.9162000  2
   7432   7426   7412   7434     1  0.0000000  0.6024960  3
   7435   7436   7439   7440     1  180.0000771  0.8368000  1
   7435   7436   7439   7440     1  180.0000771  1.0460000  2
   7435   7436   7439   7440     1  0.0000000  0.7531200  3
   7435   7436   7439   7447     1  0.0000000  0.6508444  3
   7435   7457   7441   7445     1  180.0000771  5.6484000  1
   7435   7457   7441   7445     1  180.0000771  3.5564000  2
   7435   7457   7441   7445     1  0.0000000  0.4184000  3
   7435   7457   7441   7440     1  180.0000771  0.4184000  2
   7435   7457   7441   7440     1  0.0000000  1.6024720  3
   7436   7439   7440   7441     1  180.0000771  0.8368000  1
   7436   7439   7440   7441     1  180.0000771  1.0460000  2
   7436   7439   7440   7441     1  0.0000000  0.7531200  3
   7436   7439   7440   7446     1  0.0000000  0.6508444  3
   7436   7435   7449   7455     1  0.0000000  0.6508444  3
   7436   7435   7457   7441     1  180.0000771  0.4184000  2
   7436   7435   7457   7441     1  0.0000000  1.6024720  3
   7439   7440   7441   7445     1  0.0000000  0.6508444  3
   7439   7440   7441   7457     1  0.0000000  0.6508444  3
   7439   7436   7435   7449     1  180.0000771  0.8368000  1
   7439   7436   7435   7449     1  180.0000771  1.0460000  2
   7439   7436   7435   7449     1  0.0000000  0.7531200  3
   7439   7436   7435   7457     1  0.0000000  0.6508444  3
   7440   7439   7436   7448     1  0.0000000  0.6508444  3
   7441   7457   7435   7449     1  180.0000771  0.4184000  2
   7441   7457   7435   7449     1  0.0000000  1.6024720  3
   7441   7440   7439   7447     1  0.0000000  0.6508444  3
   7445   7441   7440   7446     1  0.0000000  4.9162000  2
   7445   7441   7440   7446     1  0.0000000  0.6024960  3
   7446   7440   7441   7457     1  0.0000000  4.9162000  2
   7446   7440   7441   7457     1  0.0000000  0.6024960  3
   7446   7440   7439   7447     1  0.0000000  4.9162000  2
   7446   7440   7439   7447     1  0.0000000  0.6024960  3
   7447   7439   7436   7448     1  0.0000000  4.9162000  2
   7447   7439   7436   7448     1  0.0000000  0.6024960  3
   7448   7436   7435   7449     1  0.0000000  0.6508444  3
   7448   7436   7435   7457     1  0.0000000  4.9162000  2
   7448   7436   7435   7457     1  0.0000000  0.6024960  3
   7455   7449   7435   7457     1  0.0000000  4.9162000  2
   7455   7449   7435   7457     1  0.0000000  0.6024960  3
   7458   7459   7462   7463     1  180.0000771  0.8368000  1
   7458   7459   7462   7463     1  180.0000771  1.0460000  2
   7458   7459   7462   7463     1  0.0000000  0.7531200  3
   7458   7459   7462   7470     1  0.0000000  0.6508444  3
   7458   7480   7464   7463     1  180.0000771  0.4184000  2
   7458   7480   7464   7463     1  0.0000000  1.6024720  3
   7458   7480   7464   7468     1  180.0000771  5.6484000  1
   7458   7480   7464   7468     1  180.0000771  3.5564000  2
   7458   7480   7464   7468     1  0.0000000  0.4184000  3
   7459   7458   7472   7478     1  0.0000000  0.6508444  3
   7459   7458   7480   7464     1  180.0000771  0.4184000  2
   7459   7458   7480   7464     1  0.0000000  1.6024720  3
   7459   7462   7463   7464     1  180.0000771  0.8368000  1
   7459   7462   7463   7464     1  180.0000771  1.0460000  2
   7459   7462   7463   7464     1  0.0000000  0.7531200  3
   7459   7462   7463   7469     1  0.0000000  0.6508444  3
   7462   7459   7458   7472     1  180.0000771  0.8368000  1
   7462   7459   7458   7472     1  180.0000771  1.0460000  2
   7462   7459   7458   7472     1  0.0000000  0.7531200  3
   7462   7459   7458   7480     1  0.0000000  0.6508444  3
   7462   7463   7464   7468     1  0.0000000  0.6508444  3
   7462   7463   7464   7480     1  0.0000000  0.6508444  3
   7463   7462   7459   7471     1  0.0000000  0.6508444  3
   7464   7463   7462   7470     1  0.0000000  0.6508444  3
   7464   7480   7458   7472     1  180.0000771  0.4184000  2
   7464   7480   7458   7472     1  0.0000000  1.6024720  3
   7468   7464   7463   7469     1  0.0000000  4.9162000  2
   7468   7464   7463   7469     1  0.0000000  0.6024960  3
   7469   7463   7462   7470     1  0.0000000  4.9162000  2
   7469   7463   7462   7470     1  0.0000000  0.6024960  3
   7469   7463   7464   7480     1  0.0000000  4.9162000  2
   7469   7463   7464   7480     1  0.0000000  0.6024960  3
   7470   7462   7459   7471     1  0.0000000  4.9162000  2
   7470   7462   7459   7471     1  0.0000000  0.6024960  3
   7471   7459   7458   7472     1  0.0000000  0.6508444  3
   7471   7459   7458   7480     1  0.0000000  4.9162000  2
   7471   7459   7458   7480     1  0.0000000  0.6024960  3
   7478   7472   7458   7480     1  0.0000000  4.9162000  2
   7478   7472   7458   7480     1  0.0000000  0.6024960  3
   7481   7482   7485   7486     1  180.0000771  0.8368000  1
   7481   7482   7485   7486     1  180.0000771  1.0460000  2
   7481   7482   7485   7486     1  0.0000000  0.7531200  3
   7481   7482   7485   7493     1  0.0000000  0.6508444  3
   7481   7503   7487   7491     1  180.0000771  5.6484000  1
   7481   7503   7487   7491     1  180.0000771  3.5564000  2
   7481   7503   7487   7491     1  0.0000000  0.4184000  3
   7481   7503   7487   7486     1  180.0000771  0.4184000  2
   7481   7503   7487   7486     1  0.0000000  1.6024720  3
   7482   7485   7486   7487     1  180.0000771  0.8368000  1
   7482   7485   7486   7487     1  180.0000771  1.0460000  2
   7482   7485   7486   7487     1  0.0000000  0.7531200  3
   7482   7485   7486   7492     1  0.0000000  0.6508444  3
   7482   7481   7495   7501     1  0.0000000  0.6508444  3
   7482   7481   7503   7487     1  180.0000771  0.4184000  2
   7482   7481   7503   7487     1  0.0000000  1.6024720  3
   7485   7486   7487   7491     1  0.0000000  0.6508444  3
   7485   7486   7487   7503     1  0.0000000  0.6508444  3
   7485   7482   7481   7495     1  180.0000771  0.8368000  1
   7485   7482   7481   7495     1  180.0000771  1.0460000  2
   7485   7482   7481   7495     1  0.0000000  0.7531200  3
   7485   7482   7481   7503     1  0.0000000  0.6508444  3
   7486   7485   7482   7494     1  0.0000000  0.6508444  3
   7487   7503   7481   7495     1  180.0000771  0.4184000  2
   7487   7503   7481   7495     1  0.0000000  1.6024720  3
   7487   7486   7485   7493     1  0.0000000  0.6508444  3
   7491   7487   7486   7492     1  0.0000000  4.9162000  2
   7491   7487   7486   7492     1  0.0000000  0.6024960  3
   7492   7486   7487   7503     1  0.0000000  4.9162000  2
   7492   7486   7487   7503     1  0.0000000  0.6024960  3
   7492   7486   7485   7493     1  0.0000000  4.9162000  2
   7492   7486   7485   7493     1  0.0000000  0.6024960  3
   7493   7485   7482   7494     1  0.0000000  4.9162000  2
   7493   7485   7482   7494     1  0.0000000  0.6024960  3
   7494   7482   7481   7495     1  0.0000000  0.6508444  3
   7494   7482   7481   7503     1  0.0000000  4.9162000  2
   7494   7482   7481   7503     1  0.0000000  0.6024960  3
   7501   7495   7481   7503     1  0.0000000  4.9162000  2
   7501   7495   7481   7503     1  0.0000000  0.6024960  3
   7504   7505   7508   7509     1  180.0000771  0.8368000  1
   7504   7505   7508   7509     1  180.0000771  1.0460000  2
   7504   7505   7508   7509     1  0.0000000  0.7531200  3
   7504   7505   7508   7516     1  0.0000000  0.6508444  3
   7504   7526   7510   7509     1  180.0000771  0.4184000  2
   7504   7526   7510   7509     1  0.0000000  1.6024720  3
   7504   7526   7510   7514     1  180.0000771  5.6484000  1
   7504   7526   7510   7514     1  180.0000771  3.5564000  2
   7504   7526   7510   7514     1  0.0000000  0.4184000  3
   7505   7504   7518   7524     1  0.0000000  0.6508444  3
   7505   7504   7526   7510     1  180.0000771  0.4184000  2
   7505   7504   7526   7510     1  0.0000000  1.6024720  3
   7505   7508   7509   7510     1  180.0000771  0.8368000  1
   7505   7508   7509   7510     1  180.0000771  1.0460000  2
   7505   7508   7509   7510     1  0.0000000  0.7531200  3
   7505   7508   7509   7515     1  0.0000000  0.6508444  3
   7508   7505   7504   7518     1  180.0000771  0.8368000  1
   7508   7505   7504   7518     1  180.0000771  1.0460000  2
   7508   7505   7504   7518     1  0.0000000  0.7531200  3
   7508   7505   7504   7526     1  0.0000000  0.6508444  3
   7508   7509   7510   7514     1  0.0000000  0.6508444  3
   7508   7509   7510   7526     1  0.0000000  0.6508444  3
   7509   7508   7505   7517     1  0.0000000  0.6508444  3
   7510   7509   7508   7516     1  0.0000000  0.6508444  3
   7510   7526   7504   7518     1  180.0000771  0.4184000  2
   7510   7526   7504   7518     1  0.0000000  1.6024720  3
   7514   7510   7509   7515     1  0.0000000  4.9162000  2
   7514   7510   7509   7515     1  0.0000000  0.6024960  3
   7515   7509   7508   7516     1  0.0000000  4.9162000  2
   7515   7509   7508   7516     1  0.0000000  0.6024960  3
   7515   7509   7510   7526     1  0.0000000  4.9162000  2
   7515   7509   7510   7526     1  0.0000000  0.6024960  3
   7516   7508   7505   7517     1  0.0000000  4.9162000  2
   7516   7508   7505   7517     1  0.0000000  0.6024960  3
   7517   7505   7504   7518     1  0.0000000  0.6508444  3
   7517   7505   7504   7526     1  0.0000000  4.9162000  2
   7517   7505   7504   7526     1  0.0000000  0.6024960  3
   7524   7518   7504   7526     1  0.0000000  4.9162000  2
   7524   7518   7504   7526     1  0.0000000  0.6024960  3
   7527   7528   7531   7532     1  180.0000771  0.8368000  1
   7527   7528   7531   7532     1  180.0000771  1.0460000  2
   7527   7528   7531   7532     1  0.0000000  0.7531200  3
   7527   7528   7531   7539     1  0.0000000  0.6508444  3
   7527   7549   7533   7537     1  180.0000771  5.6484000  1
   7527   7549   7533   7537     1  180.0000771  3.5564000  2
   7527   7549   7533   7537     1  0.0000000  0.4184000  3
   7527   7549   7533   7532     1  180.0000771  0.4184000  2
   7527   7549   7533   7532     1  0.0000000  1.6024720  3
   7528   7531   7532   7533     1  180.0000771  0.8368000  1
   7528   7531   7532   7533     1  180.0000771  1.0460000  2
   7528   7531   7532   7533     1  0.0000000  0.7531200  3
   7528   7531   7532   7538     1  0.0000000  0.6508444  3
   7528   7527   7541   7547     1  0.0000000  0.6508444  3
   7528   7527   7549   7533     1  180.0000771  0.4184000  2
   7528   7527   7549   7533     1  0.0000000  1.6024720  3
   7531   7532   7533   7537     1  0.0000000  0.6508444  3
   7531   7532   7533   7549     1  0.0000000  0.6508444  3
   7531   7528   7527   7541     1  180.0000771  0.8368000  1
   7531   7528   7527   7541     1  180.0000771  1.0460000  2
   7531   7528   7527   7541     1  0.0000000  0.7531200  3
   7531   7528   7527   7549     1  0.0000000  0.6508444  3
   7532   7531   7528   7540     1  0.0000000  0.6508444  3
   7533   7549   7527   7541     1  180.0000771  0.4184000  2
   7533   7549   7527   7541     1  0.0000000  1.6024720  3
   7533   7532   7531   7539     1  0.0000000  0.6508444  3
   7537   7533   7532   7538     1  0.0000000  4.9162000  2
   7537   7533   7532   7538     1  0.0000000  0.6024960  3
   7538   7532   7533   7549     1  0.0000000  4.9162000  2
   7538   7532   7533   7549     1  0.0000000  0.6024960  3
   7538   7532   7531   7539     1  0.0000000  4.9162000  2
   7538   7532   7531   7539     1  0.0000000  0.6024960  3
   7539   7531   7528   7540     1  0.0000000  4.9162000  2
   7539   7531   7528   7540     1  0.0000000  0.6024960  3
   7540   7528   7527   7541     1  0.0000000  0.6508444  3
   7540   7528   7527   7549     1  0.0000000  4.9162000  2
   7540   7528   7527   7549     1  0.0000000  0.6024960  3
   7547   7541   7527   7549     1  0.0000000  4.9162000  2
   7547   7541   7527   7549     1  0.0000000  0.6024960  3
   7550   7551   7554   7555     1  180.0000771  0.8368000  1
   7550   7551   7554   7555     1  180.0000771  1.0460000  2
   7550   7551   7554   7555     1  0.0000000  0.7531200  3
   7550   7551   7554   7562     1  0.0000000  0.6508444  3
   7550   7572   7556   7555     1  180.0000771  0.4184000  2
   7550   7572   7556   7555     1  0.0000000  1.6024720  3
   7550   7572   7556   7560     1  180.0000771  5.6484000  1
   7550   7572   7556   7560     1  180.0000771  3.5564000  2
   7550   7572   7556   7560     1  0.0000000  0.4184000  3
   7551   7550   7564   7570     1  0.0000000  0.6508444  3
   7551   7550   7572   7556     1  180.0000771  0.4184000  2
   7551   7550   7572   7556     1  0.0000000  1.6024720  3
   7551   7554   7555   7556     1  180.0000771  0.8368000  1
   7551   7554   7555   7556     1  180.0000771  1.0460000  2
   7551   7554   7555   7556     1  0.0000000  0.7531200  3
   7551   7554   7555   7561     1  0.0000000  0.6508444  3
   7554   7551   7550   7564     1  180.0000771  0.8368000  1
   7554   7551   7550   7564     1  180.0000771  1.0460000  2
   7554   7551   7550   7564     1  0.0000000  0.7531200  3
   7554   7551   7550   7572     1  0.0000000  0.6508444  3
   7554   7555   7556   7560     1  0.0000000  0.6508444  3
   7554   7555   7556   7572     1  0.0000000  0.6508444  3
   7555   7554   7551   7563     1  0.0000000  0.6508444  3
   7556   7555   7554   7562     1  0.0000000  0.6508444  3
   7556   7572   7550   7564     1  180.0000771  0.4184000  2
   7556   7572   7550   7564     1  0.0000000  1.6024720  3
   7560   7556   7555   7561     1  0.0000000  4.9162000  2
   7560   7556   7555   7561     1  0.0000000  0.6024960  3
   7561   7555   7554   7562     1  0.0000000  4.9162000  2
   7561   7555   7554   7562     1  0.0000000  0.6024960  3
   7561   7555   7556   7572     1  0.0000000  4.9162000  2
   7561   7555   7556   7572     1  0.0000000  0.6024960  3
   7562   7554   7551   7563     1  0.0000000  4.9162000  2
   7562   7554   7551   7563     1  0.0000000  0.6024960  3
   7563   7551   7550   7564     1  0.0000000  0.6508444  3
   7563   7551   7550   7572     1  0.0000000  4.9162000  2
   7563   7551   7550   7572     1  0.0000000  0.6024960  3
   7570   7564   7550   7572     1  0.0000000  4.9162000  2
   7570   7564   7550   7572     1  0.0000000  0.6024960  3
   7573   7574   7577   7578     1  180.0000771  0.8368000  1
   7573   7574   7577   7578     1  180.0000771  1.0460000  2
   7573   7574   7577   7578     1  0.0000000  0.7531200  3
   7573   7574   7577   7585     1  0.0000000  0.6508444  3
   7573   7595   7579   7583     1  180.0000771  5.6484000  1
   7573   7595   7579   7583     1  180.0000771  3.5564000  2
   7573   7595   7579   7583     1  0.0000000  0.4184000  3
   7573   7595   7579   7578     1  180.0000771  0.4184000  2
   7573   7595   7579   7578     1  0.0000000  1.6024720  3
   7574   7577   7578   7579     1  180.0000771  0.8368000  1
   7574   7577   7578   7579     1  180.0000771  1.0460000  2
   7574   7577   7578   7579     1  0.0000000  0.7531200  3
   7574   7577   7578   7584     1  0.0000000  0.6508444  3
   7574   7573   7587   7593     1  0.0000000  0.6508444  3
   7574   7573   7595   7579     1  180.0000771  0.4184000  2
   7574   7573   7595   7579     1  0.0000000  1.6024720  3
   7577   7578   7579   7583     1  0.0000000  0.6508444  3
   7577   7578   7579   7595     1  0.0000000  0.6508444  3
   7577   7574   7573   7587     1  180.0000771  0.8368000  1
   7577   7574   7573   7587     1  180.0000771  1.0460000  2
   7577   7574   7573   7587     1  0.0000000  0.7531200  3
   7577   7574   7573   7595     1  0.0000000  0.6508444  3
   7578   7577   7574   7586     1  0.0000000  0.6508444  3
   7579   7595   7573   7587     1  180.0000771  0.4184000  2
   7579   7595   7573   7587     1  0.0000000  1.6024720  3
   7579   7578   7577   7585     1  0.0000000  0.6508444  3
   7583   7579   7578   7584     1  0.0000000  4.9162000  2
   7583   7579   7578   7584     1  0.0000000  0.6024960  3
   7584   7578   7579   7595     1  0.0000000  4.9162000  2
   7584   7578   7579   7595     1  0.0000000  0.6024960  3
   7584   7578   7577   7585     1  0.0000000  4.9162000  2
   7584   7578   7577   7585     1  0.0000000  0.6024960  3
   7585   7577   7574   7586     1  0.0000000  4.9162000  2
   7585   7577   7574   7586     1  0.0000000  0.6024960  3
   7586   7574   7573   7587     1  0.0000000  0.6508444  3
   7586   7574   7573   7595     1  0.0000000  4.9162000  2
   7586   7574   7573   7595     1  0.0000000  0.6024960  3
   7593   7587   7573   7595     1  0.0000000  4.9162000  2
   7593   7587   7573   7595     1  0.0000000  0.6024960  3
   7596   7597   7600   7601     1  180.0000771  0.8368000  1
   7596   7597   7600   7601     1  180.0000771  1.0460000  2
   7596   7597   7600   7601     1  0.0000000  0.7531200  3
   7596   7597   7600   7608     1  0.0000000  0.6508444  3
   7596   7618   7602   7601     1  180.0000771  0.4184000  2
   7596   7618   7602   7601     1  0.0000000  1.6024720  3
   7596   7618   7602   7606     1  180.0000771  5.6484000  1
   7596   7618   7602   7606     1  180.0000771  3.5564000  2
   7596   7618   7602   7606     1  0.0000000  0.4184000  3
   7597   7596   7610   7616     1  0.0000000  0.6508444  3
   7597   7596   7618   7602     1  180.0000771  0.4184000  2
   7597   7596   7618   7602     1  0.0000000  1.6024720  3
   7597   7600   7601   7602     1  180.0000771  0.8368000  1
   7597   7600   7601   7602     1  180.0000771  1.0460000  2
   7597   7600   7601   7602     1  0.0000000  0.7531200  3
   7597   7600   7601   7607     1  0.0000000  0.6508444  3
   7600   7597   7596   7610     1  180.0000771  0.8368000  1
   7600   7597   7596   7610     1  180.0000771  1.0460000  2
   7600   7597   7596   7610     1  0.0000000  0.7531200  3
   7600   7597   7596   7618     1  0.0000000  0.6508444  3
   7600   7601   7602   7606     1  0.0000000  0.6508444  3
   7600   7601   7602   7618     1  0.0000000  0.6508444  3
   7601   7600   7597   7609     1  0.0000000  0.6508444  3
   7602   7601   7600   7608     1  0.0000000  0.6508444  3
   7602   7618   7596   7610     1  180.0000771  0.4184000  2
   7602   7618   7596   7610     1  0.0000000  1.6024720  3
   7606   7602   7601   7607     1  0.0000000  4.9162000  2
   7606   7602   7601   7607     1  0.0000000  0.6024960  3
   7607   7601   7600   7608     1  0.0000000  4.9162000  2
   7607   7601   7600   7608     1  0.0000000  0.6024960  3
   7607   7601   7602   7618     1  0.0000000  4.9162000  2
   7607   7601   7602   7618     1  0.0000000  0.6024960  3
   7608   7600   7597   7609     1  0.0000000  4.9162000  2
   7608   7600   7597   7609     1  0.0000000  0.6024960  3
   7609   7597   7596   7610     1  0.0000000  0.6508444  3
   7609   7597   7596   7618     1  0.0000000  4.9162000  2
   7609   7597   7596   7618     1  0.0000000  0.6024960  3
   7616   7610   7596   7618     1  0.0000000  4.9162000  2
   7616   7610   7596   7618     1  0.0000000  0.6024960  3
   7619   7620   7623   7624     1  180.0000771  0.8368000  1
   7619   7620   7623   7624     1  180.0000771  1.0460000  2
   7619   7620   7623   7624     1  0.0000000  0.7531200  3
   7619   7620   7623   7631     1  0.0000000  0.6508444  3
   7619   7641   7625   7629     1  180.0000771  5.6484000  1
   7619   7641   7625   7629     1  180.0000771  3.5564000  2
   7619   7641   7625   7629     1  0.0000000  0.4184000  3
   7619   7641   7625   7624     1  180.0000771  0.4184000  2
   7619   7641   7625   7624     1  0.0000000  1.6024720  3
   7620   7623   7624   7625     1  180.0000771  0.8368000  1
   7620   7623   7624   7625     1  180.0000771  1.0460000  2
   7620   7623   7624   7625     1  0.0000000  0.7531200  3
   7620   7623   7624   7630     1  0.0000000  0.6508444  3
   7620   7619   7633   7639     1  0.0000000  0.6508444  3
   7620   7619   7641   7625     1  180.0000771  0.4184000  2
   7620   7619   7641   7625     1  0.0000000  1.6024720  3
   7623   7624   7625   7629     1  0.0000000  0.6508444  3
   7623   7624   7625   7641     1  0.0000000  0.6508444  3
   7623   7620   7619   7633     1  180.0000771  0.8368000  1
   7623   7620   7619   7633     1  180.0000771  1.0460000  2
   7623   7620   7619   7633     1  0.0000000  0.7531200  3
   7623   7620   7619   7641     1  0.0000000  0.6508444  3
   7624   7623   7620   7632     1  0.0000000  0.6508444  3
   7625   7641   7619   7633     1  180.0000771  0.4184000  2
   7625   7641   7619   7633     1  0.0000000  1.6024720  3
   7625   7624   7623   7631     1  0.0000000  0.6508444  3
   7629   7625   7624   7630     1  0.0000000  4.9162000  2
   7629   7625   7624   7630     1  0.0000000  0.6024960  3
   7630   7624   7625   7641     1  0.0000000  4.9162000  2
   7630   7624   7625   7641     1  0.0000000  0.6024960  3
   7630   7624   7623   7631     1  0.0000000  4.9162000  2
   7630   7624   7623   7631     1  0.0000000  0.6024960  3
   7631   7623   7620   7632     1  0.0000000  4.9162000  2
   7631   7623   7620   7632     1  0.0000000  0.6024960  3
   7632   7620   7619   7633     1  0.0000000  0.6508444  3
   7632   7620   7619   7641     1  0.0000000  4.9162000  2
   7632   7620   7619   7641     1  0.0000000  0.6024960  3
   7639   7633   7619   7641     1  0.0000000  4.9162000  2
   7639   7633   7619   7641     1  0.0000000  0.6024960  3
   7642   7643   7646   7647     1  180.0000771  0.8368000  1
   7642   7643   7646   7647     1  180.0000771  1.0460000  2
   7642   7643   7646   7647     1  0.0000000  0.7531200  3
   7642   7643   7646   7654     1  0.0000000  0.6508444  3
   7642   7664   7648   7647     1  180.0000771  0.4184000  2
   7642   7664   7648   7647     1  0.0000000  1.6024720  3
   7642   7664   7648   7652     1  180.0000771  5.6484000  1
   7642   7664   7648   7652     1  180.0000771  3.5564000  2
   7642   7664   7648   7652     1  0.0000000  0.4184000  3
   7643   7642   7656   7662     1  0.0000000  0.6508444  3
   7643   7642   7664   7648     1  180.0000771  0.4184000  2
   7643   7642   7664   7648     1  0.0000000  1.6024720  3
   7643   7646   7647   7648     1  180.0000771  0.8368000  1
   7643   7646   7647   7648     1  180.0000771  1.0460000  2
   7643   7646   7647   7648     1  0.0000000  0.7531200  3
   7643   7646   7647   7653     1  0.0000000  0.6508444  3
   7646   7643   7642   7656     1  180.0000771  0.8368000  1
   7646   7643   7642   7656     1  180.0000771  1.0460000  2
   7646   7643   7642   7656     1  0.0000000  0.7531200  3
   7646   7643   7642   7664     1  0.0000000  0.6508444  3
   7646   7647   7648   7652     1  0.0000000  0.6508444  3
   7646   7647   7648   7664     1  0.0000000  0.6508444  3
   7647   7646   7643   7655     1  0.0000000  0.6508444  3
   7648   7647   7646   7654     1  0.0000000  0.6508444  3
   7648   7664   7642   7656     1  180.0000771  0.4184000  2
   7648   7664   7642   7656     1  0.0000000  1.6024720  3
   7652   7648   7647   7653     1  0.0000000  4.9162000  2
   7652   7648   7647   7653     1  0.0000000  0.6024960  3
   7653   7647   7646   7654     1  0.0000000  4.9162000  2
   7653   7647   7646   7654     1  0.0000000  0.6024960  3
   7653   7647   7648   7664     1  0.0000000  4.9162000  2
   7653   7647   7648   7664     1  0.0000000  0.6024960  3
   7654   7646   7643   7655     1  0.0000000  4.9162000  2
   7654   7646   7643   7655     1  0.0000000  0.6024960  3
   7655   7643   7642   7656     1  0.0000000  0.6508444  3
   7655   7643   7642   7664     1  0.0000000  4.9162000  2
   7655   7643   7642   7664     1  0.0000000  0.6024960  3
   7662   7656   7642   7664     1  0.0000000  4.9162000  2
   7662   7656   7642   7664     1  0.0000000  0.6024960  3
   7665   7666   7669   7670     1  180.0000771  0.8368000  1
   7665   7666   7669   7670     1  180.0000771  1.0460000  2
   7665   7666   7669   7670     1  0.0000000  0.7531200  3
   7665   7666   7669   7677     1  0.0000000  0.6508444  3
   7665   7687   7671   7675     1  180.0000771  5.6484000  1
   7665   7687   7671   7675     1  180.0000771  3.5564000  2
   7665   7687   7671   7675     1  0.0000000  0.4184000  3
   7665   7687   7671   7670     1  180.0000771  0.4184000  2
   7665   7687   7671   7670     1  0.0000000  1.6024720  3
   7666   7669   7670   7671     1  180.0000771  0.8368000  1
   7666   7669   7670   7671     1  180.0000771  1.0460000  2
   7666   7669   7670   7671     1  0.0000000  0.7531200  3
   7666   7669   7670   7676     1  0.0000000  0.6508444  3
   7666   7665   7679   7685     1  0.0000000  0.6508444  3
   7666   7665   7687   7671     1  180.0000771  0.4184000  2
   7666   7665   7687   7671     1  0.0000000  1.6024720  3
   7669   7670   7671   7675     1  0.0000000  0.6508444  3
   7669   7670   7671   7687     1  0.0000000  0.6508444  3
   7669   7666   7665   7679     1  180.0000771  0.8368000  1
   7669   7666   7665   7679     1  180.0000771  1.0460000  2
   7669   7666   7665   7679     1  0.0000000  0.7531200  3
   7669   7666   7665   7687     1  0.0000000  0.6508444  3
   7670   7669   7666   7678     1  0.0000000  0.6508444  3
   7671   7687   7665   7679     1  180.0000771  0.4184000  2
   7671   7687   7665   7679     1  0.0000000  1.6024720  3
   7671   7670   7669   7677     1  0.0000000  0.6508444  3
   7675   7671   7670   7676     1  0.0000000  4.9162000  2
   7675   7671   7670   7676     1  0.0000000  0.6024960  3
   7676   7670   7671   7687     1  0.0000000  4.9162000  2
   7676   7670   7671   7687     1  0.0000000  0.6024960  3
   7676   7670   7669   7677     1  0.0000000  4.9162000  2
   7676   7670   7669   7677     1  0.0000000  0.6024960  3
   7677   7669   7666   7678     1  0.0000000  4.9162000  2
   7677   7669   7666   7678     1  0.0000000  0.6024960  3
   7678   7666   7665   7679     1  0.0000000  0.6508444  3
   7678   7666   7665   7687     1  0.0000000  4.9162000  2
   7678   7666   7665   7687     1  0.0000000  0.6024960  3
   7685   7679   7665   7687     1  0.0000000  4.9162000  2
   7685   7679   7665   7687     1  0.0000000  0.6024960  3
   7688   7689   7692   7693     1  180.0000771  0.8368000  1
   7688   7689   7692   7693     1  180.0000771  1.0460000  2
   7688   7689   7692   7693     1  0.0000000  0.7531200  3
   7688   7689   7692   7700     1  0.0000000  0.6508444  3
   7688   7710   7694   7693     1  180.0000771  0.4184000  2
   7688   7710   7694   7693     1  0.0000000  1.6024720  3
   7688   7710   7694   7698     1  180.0000771  5.6484000  1
   7688   7710   7694   7698     1  180.0000771  3.5564000  2
   7688   7710   7694   7698     1  0.0000000  0.4184000  3
   7689   7688   7702   7708     1  0.0000000  0.6508444  3
   7689   7688   7710   7694     1  180.0000771  0.4184000  2
   7689   7688   7710   7694     1  0.0000000  1.6024720  3
   7689   7692   7693   7694     1  180.0000771  0.8368000  1
   7689   7692   7693   7694     1  180.0000771  1.0460000  2
   7689   7692   7693   7694     1  0.0000000  0.7531200  3
   7689   7692   7693   7699     1  0.0000000  0.6508444  3
   7692   7689   7688   7702     1  180.0000771  0.8368000  1
   7692   7689   7688   7702     1  180.0000771  1.0460000  2
   7692   7689   7688   7702     1  0.0000000  0.7531200  3
   7692   7689   7688   7710     1  0.0000000  0.6508444  3
   7692   7693   7694   7698     1  0.0000000  0.6508444  3
   7692   7693   7694   7710     1  0.0000000  0.6508444  3
   7693   7692   7689   7701     1  0.0000000  0.6508444  3
   7694   7693   7692   7700     1  0.0000000  0.6508444  3
   7694   7710   7688   7702     1  180.0000771  0.4184000  2
   7694   7710   7688   7702     1  0.0000000  1.6024720  3
   7698   7694   7693   7699     1  0.0000000  4.9162000  2
   7698   7694   7693   7699     1  0.0000000  0.6024960  3
   7699   7693   7692   7700     1  0.0000000  4.9162000  2
   7699   7693   7692   7700     1  0.0000000  0.6024960  3
   7699   7693   7694   7710     1  0.0000000  4.9162000  2
   7699   7693   7694   7710     1  0.0000000  0.6024960  3
   7700   7692   7689   7701     1  0.0000000  4.9162000  2
   7700   7692   7689   7701     1  0.0000000  0.6024960  3
   7701   7689   7688   7702     1  0.0000000  0.6508444  3
   7701   7689   7688   7710     1  0.0000000  4.9162000  2
   7701   7689   7688   7710     1  0.0000000  0.6024960  3
   7708   7702   7688   7710     1  0.0000000  4.9162000  2
   7708   7702   7688   7710     1  0.0000000  0.6024960  3
   7711   7712   7715   7716     1  180.0000771  0.8368000  1
   7711   7712   7715   7716     1  180.0000771  1.0460000  2
   7711   7712   7715   7716     1  0.0000000  0.7531200  3
   7711   7712   7715   7723     1  0.0000000  0.6508444  3
   7711   7733   7717   7721     1  180.0000771  5.6484000  1
   7711   7733   7717   7721     1  180.0000771  3.5564000  2
   7711   7733   7717   7721     1  0.0000000  0.4184000  3
   7711   7733   7717   7716     1  180.0000771  0.4184000  2
   7711   7733   7717   7716     1  0.0000000  1.6024720  3
   7712   7715   7716   7717     1  180.0000771  0.8368000  1
   7712   7715   7716   7717     1  180.0000771  1.0460000  2
   7712   7715   7716   7717     1  0.0000000  0.7531200  3
   7712   7715   7716   7722     1  0.0000000  0.6508444  3
   7712   7711   7725   7731     1  0.0000000  0.6508444  3
   7712   7711   7733   7717     1  180.0000771  0.4184000  2
   7712   7711   7733   7717     1  0.0000000  1.6024720  3
   7715   7716   7717   7721     1  0.0000000  0.6508444  3
   7715   7716   7717   7733     1  0.0000000  0.6508444  3
   7715   7712   7711   7725     1  180.0000771  0.8368000  1
   7715   7712   7711   7725     1  180.0000771  1.0460000  2
   7715   7712   7711   7725     1  0.0000000  0.7531200  3
   7715   7712   7711   7733     1  0.0000000  0.6508444  3
   7716   7715   7712   7724     1  0.0000000  0.6508444  3
   7717   7733   7711   7725     1  180.0000771  0.4184000  2
   7717   7733   7711   7725     1  0.0000000  1.6024720  3
   7717   7716   7715   7723     1  0.0000000  0.6508444  3
   7721   7717   7716   7722     1  0.0000000  4.9162000  2
   7721   7717   7716   7722     1  0.0000000  0.6024960  3
   7722   7716   7717   7733     1  0.0000000  4.9162000  2
   7722   7716   7717   7733     1  0.0000000  0.6024960  3
   7722   7716   7715   7723     1  0.0000000  4.9162000  2
   7722   7716   7715   7723     1  0.0000000  0.6024960  3
   7723   7715   7712   7724     1  0.0000000  4.9162000  2
   7723   7715   7712   7724     1  0.0000000  0.6024960  3
   7724   7712   7711   7725     1  0.0000000  0.6508444  3
   7724   7712   7711   7733     1  0.0000000  4.9162000  2
   7724   7712   7711   7733     1  0.0000000  0.6024960  3
   7731   7725   7711   7733     1  0.0000000  4.9162000  2
   7731   7725   7711   7733     1  0.0000000  0.6024960  3
   7734   7735   7738   7739     1  180.0000771  0.8368000  1
   7734   7735   7738   7739     1  180.0000771  1.0460000  2
   7734   7735   7738   7739     1  0.0000000  0.7531200  3
   7734   7735   7738   7746     1  0.0000000  0.6508444  3
   7734   7756   7740   7739     1  180.0000771  0.4184000  2
   7734   7756   7740   7739     1  0.0000000  1.6024720  3
   7734   7756   7740   7744     1  180.0000771  5.6484000  1
   7734   7756   7740   7744     1  180.0000771  3.5564000  2
   7734   7756   7740   7744     1  0.0000000  0.4184000  3
   7735   7734   7748   7754     1  0.0000000  0.6508444  3
   7735   7734   7756   7740     1  180.0000771  0.4184000  2
   7735   7734   7756   7740     1  0.0000000  1.6024720  3
   7735   7738   7739   7740     1  180.0000771  0.8368000  1
   7735   7738   7739   7740     1  180.0000771  1.0460000  2
   7735   7738   7739   7740     1  0.0000000  0.7531200  3
   7735   7738   7739   7745     1  0.0000000  0.6508444  3
   7738   7735   7734   7748     1  180.0000771  0.8368000  1
   7738   7735   7734   7748     1  180.0000771  1.0460000  2
   7738   7735   7734   7748     1  0.0000000  0.7531200  3
   7738   7735   7734   7756     1  0.0000000  0.6508444  3
   7738   7739   7740   7744     1  0.0000000  0.6508444  3
   7738   7739   7740   7756     1  0.0000000  0.6508444  3
   7739   7738   7735   7747     1  0.0000000  0.6508444  3
   7740   7739   7738   7746     1  0.0000000  0.6508444  3
   7740   7756   7734   7748     1  180.0000771  0.4184000  2
   7740   7756   7734   7748     1  0.0000000  1.6024720  3
   7744   7740   7739   7745     1  0.0000000  4.9162000  2
   7744   7740   7739   7745     1  0.0000000  0.6024960  3
   7745   7739   7738   7746     1  0.0000000  4.9162000  2
   7745   7739   7738   7746     1  0.0000000  0.6024960  3
   7745   7739   7740   7756     1  0.0000000  4.9162000  2
   7745   7739   7740   7756     1  0.0000000  0.6024960  3
   7746   7738   7735   7747     1  0.0000000  4.9162000  2
   7746   7738   7735   7747     1  0.0000000  0.6024960  3
   7747   7735   7734   7748     1  0.0000000  0.6508444  3
   7747   7735   7734   7756     1  0.0000000  4.9162000  2
   7747   7735   7734   7756     1  0.0000000  0.6024960  3
   7754   7748   7734   7756     1  0.0000000  4.9162000  2
   7754   7748   7734   7756     1  0.0000000  0.6024960  3
   7757   7758   7761   7762     1  180.0000771  0.8368000  1
   7757   7758   7761   7762     1  180.0000771  1.0460000  2
   7757   7758   7761   7762     1  0.0000000  0.7531200  3
   7757   7758   7761   7769     1  0.0000000  0.6508444  3
   7757   7779   7763   7767     1  180.0000771  5.6484000  1
   7757   7779   7763   7767     1  180.0000771  3.5564000  2
   7757   7779   7763   7767     1  0.0000000  0.4184000  3
   7757   7779   7763   7762     1  180.0000771  0.4184000  2
   7757   7779   7763   7762     1  0.0000000  1.6024720  3
   7758   7761   7762   7763     1  180.0000771  0.8368000  1
   7758   7761   7762   7763     1  180.0000771  1.0460000  2
   7758   7761   7762   7763     1  0.0000000  0.7531200  3
   7758   7761   7762   7768     1  0.0000000  0.6508444  3
   7758   7757   7771   7777     1  0.0000000  0.6508444  3
   7758   7757   7779   7763     1  180.0000771  0.4184000  2
   7758   7757   7779   7763     1  0.0000000  1.6024720  3
   7761   7762   7763   7767     1  0.0000000  0.6508444  3
   7761   7762   7763   7779     1  0.0000000  0.6508444  3
   7761   7758   7757   7771     1  180.0000771  0.8368000  1
   7761   7758   7757   7771     1  180.0000771  1.0460000  2
   7761   7758   7757   7771     1  0.0000000  0.7531200  3
   7761   7758   7757   7779     1  0.0000000  0.6508444  3
   7762   7761   7758   7770     1  0.0000000  0.6508444  3
   7763   7779   7757   7771     1  180.0000771  0.4184000  2
   7763   7779   7757   7771     1  0.0000000  1.6024720  3
   7763   7762   7761   7769     1  0.0000000  0.6508444  3
   7767   7763   7762   7768     1  0.0000000  4.9162000  2
   7767   7763   7762   7768     1  0.0000000  0.6024960  3
   7768   7762   7763   7779     1  0.0000000  4.9162000  2
   7768   7762   7763   7779     1  0.0000000  0.6024960  3
   7768   7762   7761   7769     1  0.0000000  4.9162000  2
   7768   7762   7761   7769     1  0.0000000  0.6024960  3
   7769   7761   7758   7770     1  0.0000000  4.9162000  2
   7769   7761   7758   7770     1  0.0000000  0.6024960  3
   7770   7758   7757   7771     1  0.0000000  0.6508444  3
   7770   7758   7757   7779     1  0.0000000  4.9162000  2
   7770   7758   7757   7779     1  0.0000000  0.6024960  3
   7777   7771   7757   7779     1  0.0000000  4.9162000  2
   7777   7771   7757   7779     1  0.0000000  0.6024960  3
   7780   7781   7784   7785     1  180.0000771  0.8368000  1
   7780   7781   7784   7785     1  180.0000771  1.0460000  2
   7780   7781   7784   7785     1  0.0000000  0.7531200  3
   7780   7781   7784   7792     1  0.0000000  0.6508444  3
   7780   7802   7786   7785     1  180.0000771  0.4184000  2
   7780   7802   7786   7785     1  0.0000000  1.6024720  3
   7780   7802   7786   7790     1  180.0000771  5.6484000  1
   7780   7802   7786   7790     1  180.0000771  3.5564000  2
   7780   7802   7786   7790     1  0.0000000  0.4184000  3
   7781   7780   7794   7800     1  0.0000000  0.6508444  3
   7781   7780   7802   7786     1  180.0000771  0.4184000  2
   7781   7780   7802   7786     1  0.0000000  1.6024720  3
   7781   7784   7785   7786     1  180.0000771  0.8368000  1
   7781   7784   7785   7786     1  180.0000771  1.0460000  2
   7781   7784   7785   7786     1  0.0000000  0.7531200  3
   7781   7784   7785   7791     1  0.0000000  0.6508444  3
   7784   7781   7780   7794     1  180.0000771  0.8368000  1
   7784   7781   7780   7794     1  180.0000771  1.0460000  2
   7784   7781   7780   7794     1  0.0000000  0.7531200  3
   7784   7781   7780   7802     1  0.0000000  0.6508444  3
   7784   7785   7786   7790     1  0.0000000  0.6508444  3
   7784   7785   7786   7802     1  0.0000000  0.6508444  3
   7785   7784   7781   7793     1  0.0000000  0.6508444  3
   7786   7785   7784   7792     1  0.0000000  0.6508444  3
   7786   7802   7780   7794     1  180.0000771  0.4184000  2
   7786   7802   7780   7794     1  0.0000000  1.6024720  3
   7790   7786   7785   7791     1  0.0000000  4.9162000  2
   7790   7786   7785   7791     1  0.0000000  0.6024960  3
   7791   7785   7784   7792     1  0.0000000  4.9162000  2
   7791   7785   7784   7792     1  0.0000000  0.6024960  3
   7791   7785   7786   7802     1  0.0000000  4.9162000  2
   7791   7785   7786   7802     1  0.0000000  0.6024960  3
   7792   7784   7781   7793     1  0.0000000  4.9162000  2
   7792   7784   7781   7793     1  0.0000000  0.6024960  3
   7793   7781   7780   7794     1  0.0000000  0.6508444  3
   7793   7781   7780   7802     1  0.0000000  4.9162000  2
   7793   7781   7780   7802     1  0.0000000  0.6024960  3
   7800   7794   7780   7802     1  0.0000000  4.9162000  2
   7800   7794   7780   7802     1  0.0000000  0.6024960  3
   7803   7804   7807   7808     1  180.0000771  0.8368000  1
   7803   7804   7807   7808     1  180.0000771  1.0460000  2
   7803   7804   7807   7808     1  0.0000000  0.7531200  3
   7803   7804   7807   7815     1  0.0000000  0.6508444  3
   7803   7825   7809   7813     1  180.0000771  5.6484000  1
   7803   7825   7809   7813     1  180.0000771  3.5564000  2
   7803   7825   7809   7813     1  0.0000000  0.4184000  3
   7803   7825   7809   7808     1  180.0000771  0.4184000  2
   7803   7825   7809   7808     1  0.0000000  1.6024720  3
   7804   7807   7808   7809     1  180.0000771  0.8368000  1
   7804   7807   7808   7809     1  180.0000771  1.0460000  2
   7804   7807   7808   7809     1  0.0000000  0.7531200  3
   7804   7807   7808   7814     1  0.0000000  0.6508444  3
   7804   7803   7817   7823     1  0.0000000  0.6508444  3
   7804   7803   7825   7809     1  180.0000771  0.4184000  2
   7804   7803   7825   7809     1  0.0000000  1.6024720  3
   7807   7808   7809   7813     1  0.0000000  0.6508444  3
   7807   7808   7809   7825     1  0.0000000  0.6508444  3
   7807   7804   7803   7817     1  180.0000771  0.8368000  1
   7807   7804   7803   7817     1  180.0000771  1.0460000  2
   7807   7804   7803   7817     1  0.0000000  0.7531200  3
   7807   7804   7803   7825     1  0.0000000  0.6508444  3
   7808   7807   7804   7816     1  0.0000000  0.6508444  3
   7809   7825   7803   7817     1  180.0000771  0.4184000  2
   7809   7825   7803   7817     1  0.0000000  1.6024720  3
   7809   7808   7807   7815     1  0.0000000  0.6508444  3
   7813   7809   7808   7814     1  0.0000000  4.9162000  2
   7813   7809   7808   7814     1  0.0000000  0.6024960  3
   7814   7808   7809   7825     1  0.0000000  4.9162000  2
   7814   7808   7809   7825     1  0.0000000  0.6024960  3
   7814   7808   7807   7815     1  0.0000000  4.9162000  2
   7814   7808   7807   7815     1  0.0000000  0.6024960  3
   7815   7807   7804   7816     1  0.0000000  4.9162000  2
   7815   7807   7804   7816     1  0.0000000  0.6024960  3
   7816   7804   7803   7817     1  0.0000000  0.6508444  3
   7816   7804   7803   7825     1  0.0000000  4.9162000  2
   7816   7804   7803   7825     1  0.0000000  0.6024960  3
   7823   7817   7803   7825     1  0.0000000  4.9162000  2
   7823   7817   7803   7825     1  0.0000000  0.6024960  3
   7826   7827   7830   7831     1  180.0000771  0.8368000  1
   7826   7827   7830   7831     1  180.0000771  1.0460000  2
   7826   7827   7830   7831     1  0.0000000  0.7531200  3
   7826   7827   7830   7838     1  0.0000000  0.6508444  3
   7826   7848   7832   7831     1  180.0000771  0.4184000  2
   7826   7848   7832   7831     1  0.0000000  1.6024720  3
   7826   7848   7832   7836     1  180.0000771  5.6484000  1
   7826   7848   7832   7836     1  180.0000771  3.5564000  2
   7826   7848   7832   7836     1  0.0000000  0.4184000  3
   7827   7826   7840   7846     1  0.0000000  0.6508444  3
   7827   7826   7848   7832     1  180.0000771  0.4184000  2
   7827   7826   7848   7832     1  0.0000000  1.6024720  3
   7827   7830   7831   7832     1  180.0000771  0.8368000  1
   7827   7830   7831   7832     1  180.0000771  1.0460000  2
   7827   7830   7831   7832     1  0.0000000  0.7531200  3
   7827   7830   7831   7837     1  0.0000000  0.6508444  3
   7830   7827   7826   7840     1  180.0000771  0.8368000  1
   7830   7827   7826   7840     1  180.0000771  1.0460000  2
   7830   7827   7826   7840     1  0.0000000  0.7531200  3
   7830   7827   7826   7848     1  0.0000000  0.6508444  3
   7830   7831   7832   7836     1  0.0000000  0.6508444  3
   7830   7831   7832   7848     1  0.0000000  0.6508444  3
   7831   7830   7827   7839     1  0.0000000  0.6508444  3
   7832   7831   7830   7838     1  0.0000000  0.6508444  3
   7832   7848   7826   7840     1  180.0000771  0.4184000  2
   7832   7848   7826   7840     1  0.0000000  1.6024720  3
   7836   7832   7831   7837     1  0.0000000  4.9162000  2
   7836   7832   7831   7837     1  0.0000000  0.6024960  3
   7837   7831   7830   7838     1  0.0000000  4.9162000  2
   7837   7831   7830   7838     1  0.0000000  0.6024960  3
   7837   7831   7832   7848     1  0.0000000  4.9162000  2
   7837   7831   7832   7848     1  0.0000000  0.6024960  3
   7838   7830   7827   7839     1  0.0000000  4.9162000  2
   7838   7830   7827   7839     1  0.0000000  0.6024960  3
   7839   7827   7826   7840     1  0.0000000  0.6508444  3
   7839   7827   7826   7848     1  0.0000000  4.9162000  2
   7839   7827   7826   7848     1  0.0000000  0.6024960  3
   7846   7840   7826   7848     1  0.0000000  4.9162000  2
   7846   7840   7826   7848     1  0.0000000  0.6024960  3
   7849   7850   7853   7854     1  180.0000771  0.8368000  1
   7849   7850   7853   7854     1  180.0000771  1.0460000  2
   7849   7850   7853   7854     1  0.0000000  0.7531200  3
   7849   7850   7853   7861     1  0.0000000  0.6508444  3
   7849   7871   7855   7859     1  180.0000771  5.6484000  1
   7849   7871   7855   7859     1  180.0000771  3.5564000  2
   7849   7871   7855   7859     1  0.0000000  0.4184000  3
   7849   7871   7855   7854     1  180.0000771  0.4184000  2
   7849   7871   7855   7854     1  0.0000000  1.6024720  3
   7850   7853   7854   7855     1  180.0000771  0.8368000  1
   7850   7853   7854   7855     1  180.0000771  1.0460000  2
   7850   7853   7854   7855     1  0.0000000  0.7531200  3
   7850   7853   7854   7860     1  0.0000000  0.6508444  3
   7850   7849   7863   7869     1  0.0000000  0.6508444  3
   7850   7849   7871   7855     1  180.0000771  0.4184000  2
   7850   7849   7871   7855     1  0.0000000  1.6024720  3
   7853   7854   7855   7859     1  0.0000000  0.6508444  3
   7853   7854   7855   7871     1  0.0000000  0.6508444  3
   7853   7850   7849   7863     1  180.0000771  0.8368000  1
   7853   7850   7849   7863     1  180.0000771  1.0460000  2
   7853   7850   7849   7863     1  0.0000000  0.7531200  3
   7853   7850   7849   7871     1  0.0000000  0.6508444  3
   7854   7853   7850   7862     1  0.0000000  0.6508444  3
   7855   7871   7849   7863     1  180.0000771  0.4184000  2
   7855   7871   7849   7863     1  0.0000000  1.6024720  3
   7855   7854   7853   7861     1  0.0000000  0.6508444  3
   7859   7855   7854   7860     1  0.0000000  4.9162000  2
   7859   7855   7854   7860     1  0.0000000  0.6024960  3
   7860   7854   7855   7871     1  0.0000000  4.9162000  2
   7860   7854   7855   7871     1  0.0000000  0.6024960  3
   7860   7854   7853   7861     1  0.0000000  4.9162000  2
   7860   7854   7853   7861     1  0.0000000  0.6024960  3
   7861   7853   7850   7862     1  0.0000000  4.9162000  2
   7861   7853   7850   7862     1  0.0000000  0.6024960  3
   7862   7850   7849   7863     1  0.0000000  0.6508444  3
   7862   7850   7849   7871     1  0.0000000  4.9162000  2
   7862   7850   7849   7871     1  0.0000000  0.6024960  3
   7869   7863   7849   7871     1  0.0000000  4.9162000  2
   7869   7863   7849   7871     1  0.0000000  0.6024960  3
   7872   7873   7876   7877     1  180.0000771  0.8368000  1
   7872   7873   7876   7877     1  180.0000771  1.0460000  2
   7872   7873   7876   7877     1  0.0000000  0.7531200  3
   7872   7873   7876   7884     1  0.0000000  0.6508444  3
   7872   7894   7878   7877     1  180.0000771  0.4184000  2
   7872   7894   7878   7877     1  0.0000000  1.6024720  3
   7872   7894   7878   7882     1  180.0000771  5.6484000  1
   7872   7894   7878   7882     1  180.0000771  3.5564000  2
   7872   7894   7878   7882     1  0.0000000  0.4184000  3
   7873   7872   7886   7892     1  0.0000000  0.6508444  3
   7873   7872   7894   7878     1  180.0000771  0.4184000  2
   7873   7872   7894   7878     1  0.0000000  1.6024720  3
   7873   7876   7877   7878     1  180.0000771  0.8368000  1
   7873   7876   7877   7878     1  180.0000771  1.0460000  2
   7873   7876   7877   7878     1  0.0000000  0.7531200  3
   7873   7876   7877   7883     1  0.0000000  0.6508444  3
   7876   7873   7872   7886     1  180.0000771  0.8368000  1
   7876   7873   7872   7886     1  180.0000771  1.0460000  2
   7876   7873   7872   7886     1  0.0000000  0.7531200  3
   7876   7873   7872   7894     1  0.0000000  0.6508444  3
   7876   7877   7878   7882     1  0.0000000  0.6508444  3
   7876   7877   7878   7894     1  0.0000000  0.6508444  3
   7877   7876   7873   7885     1  0.0000000  0.6508444  3
   7878   7877   7876   7884     1  0.0000000  0.6508444  3
   7878   7894   7872   7886     1  180.0000771  0.4184000  2
   7878   7894   7872   7886     1  0.0000000  1.6024720  3
   7882   7878   7877   7883     1  0.0000000  4.9162000  2
   7882   7878   7877   7883     1  0.0000000  0.6024960  3
   7883   7877   7876   7884     1  0.0000000  4.9162000  2
   7883   7877   7876   7884     1  0.0000000  0.6024960  3
   7883   7877   7878   7894     1  0.0000000  4.9162000  2
   7883   7877   7878   7894     1  0.0000000  0.6024960  3
   7884   7876   7873   7885     1  0.0000000  4.9162000  2
   7884   7876   7873   7885     1  0.0000000  0.6024960  3
   7885   7873   7872   7886     1  0.0000000  0.6508444  3
   7885   7873   7872   7894     1  0.0000000  4.9162000  2
   7885   7873   7872   7894     1  0.0000000  0.6024960  3
   7892   7886   7872   7894     1  0.0000000  4.9162000  2
   7892   7886   7872   7894     1  0.0000000  0.6024960  3
   7895   7896   7899   7900     1  180.0000771  0.8368000  1
   7895   7896   7899   7900     1  180.0000771  1.0460000  2
   7895   7896   7899   7900     1  0.0000000  0.7531200  3
   7895   7896   7899   7907     1  0.0000000  0.6508444  3
   7895   7917   7901   7905     1  180.0000771  5.6484000  1
   7895   7917   7901   7905     1  180.0000771  3.5564000  2
   7895   7917   7901   7905     1  0.0000000  0.4184000  3
   7895   7917   7901   7900     1  180.0000771  0.4184000  2
   7895   7917   7901   7900     1  0.0000000  1.6024720  3
   7896   7899   7900   7901     1  180.0000771  0.8368000  1
   7896   7899   7900   7901     1  180.0000771  1.0460000  2
   7896   7899   7900   7901     1  0.0000000  0.7531200  3
   7896   7899   7900   7906     1  0.0000000  0.6508444  3
   7896   7895   7909   7915     1  0.0000000  0.6508444  3
   7896   7895   7917   7901     1  180.0000771  0.4184000  2
   7896   7895   7917   7901     1  0.0000000  1.6024720  3
   7899   7900   7901   7905     1  0.0000000  0.6508444  3
   7899   7900   7901   7917     1  0.0000000  0.6508444  3
   7899   7896   7895   7909     1  180.0000771  0.8368000  1
   7899   7896   7895   7909     1  180.0000771  1.0460000  2
   7899   7896   7895   7909     1  0.0000000  0.7531200  3
   7899   7896   7895   7917     1  0.0000000  0.6508444  3
   7900   7899   7896   7908     1  0.0000000  0.6508444  3
   7901   7917   7895   7909     1  180.0000771  0.4184000  2
   7901   7917   7895   7909     1  0.0000000  1.6024720  3
   7901   7900   7899   7907     1  0.0000000  0.6508444  3
   7905   7901   7900   7906     1  0.0000000  4.9162000  2
   7905   7901   7900   7906     1  0.0000000  0.6024960  3
   7906   7900   7901   7917     1  0.0000000  4.9162000  2
   7906   7900   7901   7917     1  0.0000000  0.6024960  3
   7906   7900   7899   7907     1  0.0000000  4.9162000  2
   7906   7900   7899   7907     1  0.0000000  0.6024960  3
   7907   7899   7896   7908     1  0.0000000  4.9162000  2
   7907   7899   7896   7908     1  0.0000000  0.6024960  3
   7908   7896   7895   7909     1  0.0000000  0.6508444  3
   7908   7896   7895   7917     1  0.0000000  4.9162000  2
   7908   7896   7895   7917     1  0.0000000  0.6024960  3
   7915   7909   7895   7917     1  0.0000000  4.9162000  2
   7915   7909   7895   7917     1  0.0000000  0.6024960  3
   7918   7919   7922   7923     1  180.0000771  0.8368000  1
   7918   7919   7922   7923     1  180.0000771  1.0460000  2
   7918   7919   7922   7923     1  0.0000000  0.7531200  3
   7918   7919   7922   7930     1  0.0000000  0.6508444  3
   7918   7940   7924   7923     1  180.0000771  0.4184000  2
   7918   7940   7924   7923     1  0.0000000  1.6024720  3
   7918   7940   7924   7928     1  180.0000771  5.6484000  1
   7918   7940   7924   7928     1  180.0000771  3.5564000  2
   7918   7940   7924   7928     1  0.0000000  0.4184000  3
   7919   7918   7932   7938     1  0.0000000  0.6508444  3
   7919   7918   7940   7924     1  180.0000771  0.4184000  2
   7919   7918   7940   7924     1  0.0000000  1.6024720  3
   7919   7922   7923   7924     1  180.0000771  0.8368000  1
   7919   7922   7923   7924     1  180.0000771  1.0460000  2
   7919   7922   7923   7924     1  0.0000000  0.7531200  3
   7919   7922   7923   7929     1  0.0000000  0.6508444  3
   7922   7919   7918   7932     1  180.0000771  0.8368000  1
   7922   7919   7918   7932     1  180.0000771  1.0460000  2
   7922   7919   7918   7932     1  0.0000000  0.7531200  3
   7922   7919   7918   7940     1  0.0000000  0.6508444  3
   7922   7923   7924   7928     1  0.0000000  0.6508444  3
   7922   7923   7924   7940     1  0.0000000  0.6508444  3
   7923   7922   7919   7931     1  0.0000000  0.6508444  3
   7924   7923   7922   7930     1  0.0000000  0.6508444  3
   7924   7940   7918   7932     1  180.0000771  0.4184000  2
   7924   7940   7918   7932     1  0.0000000  1.6024720  3
   7928   7924   7923   7929     1  0.0000000  4.9162000  2
   7928   7924   7923   7929     1  0.0000000  0.6024960  3
   7929   7923   7922   7930     1  0.0000000  4.9162000  2
   7929   7923   7922   7930     1  0.0000000  0.6024960  3
   7929   7923   7924   7940     1  0.0000000  4.9162000  2
   7929   7923   7924   7940     1  0.0000000  0.6024960  3
   7930   7922   7919   7931     1  0.0000000  4.9162000  2
   7930   7922   7919   7931     1  0.0000000  0.6024960  3
   7931   7919   7918   7932     1  0.0000000  0.6508444  3
   7931   7919   7918   7940     1  0.0000000  4.9162000  2
   7931   7919   7918   7940     1  0.0000000  0.6024960  3
   7938   7932   7918   7940     1  0.0000000  4.9162000  2
   7938   7932   7918   7940     1  0.0000000  0.6024960  3
   7941   7942   7945   7946     1  180.0000771  0.8368000  1
   7941   7942   7945   7946     1  180.0000771  1.0460000  2
   7941   7942   7945   7946     1  0.0000000  0.7531200  3
   7941   7942   7945   7953     1  0.0000000  0.6508444  3
   7941   7963   7947   7951     1  180.0000771  5.6484000  1
   7941   7963   7947   7951     1  180.0000771  3.5564000  2
   7941   7963   7947   7951     1  0.0000000  0.4184000  3
   7941   7963   7947   7946     1  180.0000771  0.4184000  2
   7941   7963   7947   7946     1  0.0000000  1.6024720  3
   7942   7945   7946   7947     1  180.0000771  0.8368000  1
   7942   7945   7946   7947     1  180.0000771  1.0460000  2
   7942   7945   7946   7947     1  0.0000000  0.7531200  3
   7942   7945   7946   7952     1  0.0000000  0.6508444  3
   7942   7941   7955   7961     1  0.0000000  0.6508444  3
   7942   7941   7963   7947     1  180.0000771  0.4184000  2
   7942   7941   7963   7947     1  0.0000000  1.6024720  3
   7945   7946   7947   7951     1  0.0000000  0.6508444  3
   7945   7946   7947   7963     1  0.0000000  0.6508444  3
   7945   7942   7941   7955     1  180.0000771  0.8368000  1
   7945   7942   7941   7955     1  180.0000771  1.0460000  2
   7945   7942   7941   7955     1  0.0000000  0.7531200  3
   7945   7942   7941   7963     1  0.0000000  0.6508444  3
   7946   7945   7942   7954     1  0.0000000  0.6508444  3
   7947   7963   7941   7955     1  180.0000771  0.4184000  2
   7947   7963   7941   7955     1  0.0000000  1.6024720  3
   7947   7946   7945   7953     1  0.0000000  0.6508444  3
   7951   7947   7946   7952     1  0.0000000  4.9162000  2
   7951   7947   7946   7952     1  0.0000000  0.6024960  3
   7952   7946   7947   7963     1  0.0000000  4.9162000  2
   7952   7946   7947   7963     1  0.0000000  0.6024960  3
   7952   7946   7945   7953     1  0.0000000  4.9162000  2
   7952   7946   7945   7953     1  0.0000000  0.6024960  3
   7953   7945   7942   7954     1  0.0000000  4.9162000  2
   7953   7945   7942   7954     1  0.0000000  0.6024960  3
   7954   7942   7941   7955     1  0.0000000  0.6508444  3
   7954   7942   7941   7963     1  0.0000000  4.9162000  2
   7954   7942   7941   7963     1  0.0000000  0.6024960  3
   7961   7955   7941   7963     1  0.0000000  4.9162000  2
   7961   7955   7941   7963     1  0.0000000  0.6024960  3
   7964   7965   7968   7969     1  180.0000771  0.8368000  1
   7964   7965   7968   7969     1  180.0000771  1.0460000  2
   7964   7965   7968   7969     1  0.0000000  0.7531200  3
   7964   7965   7968   7976     1  0.0000000  0.6508444  3
   7964   7986   7970   7969     1  180.0000771  0.4184000  2
   7964   7986   7970   7969     1  0.0000000  1.6024720  3
   7964   7986   7970   7974     1  180.0000771  5.6484000  1
   7964   7986   7970   7974     1  180.0000771  3.5564000  2
   7964   7986   7970   7974     1  0.0000000  0.4184000  3
   7965   7964   7978   7984     1  0.0000000  0.6508444  3
   7965   7964   7986   7970     1  180.0000771  0.4184000  2
   7965   7964   7986   7970     1  0.0000000  1.6024720  3
   7965   7968   7969   7970     1  180.0000771  0.8368000  1
   7965   7968   7969   7970     1  180.0000771  1.0460000  2
   7965   7968   7969   7970     1  0.0000000  0.7531200  3
   7965   7968   7969   7975     1  0.0000000  0.6508444  3
   7968   7965   7964   7978     1  180.0000771  0.8368000  1
   7968   7965   7964   7978     1  180.0000771  1.0460000  2
   7968   7965   7964   7978     1  0.0000000  0.7531200  3
   7968   7965   7964   7986     1  0.0000000  0.6508444  3
   7968   7969   7970   7974     1  0.0000000  0.6508444  3
   7968   7969   7970   7986     1  0.0000000  0.6508444  3
   7969   7968   7965   7977     1  0.0000000  0.6508444  3
   7970   7969   7968   7976     1  0.0000000  0.6508444  3
   7970   7986   7964   7978     1  180.0000771  0.4184000  2
   7970   7986   7964   7978     1  0.0000000  1.6024720  3
   7974   7970   7969   7975     1  0.0000000  4.9162000  2
   7974   7970   7969   7975     1  0.0000000  0.6024960  3
   7975   7969   7968   7976     1  0.0000000  4.9162000  2
   7975   7969   7968   7976     1  0.0000000  0.6024960  3
   7975   7969   7970   7986     1  0.0000000  4.9162000  2
   7975   7969   7970   7986     1  0.0000000  0.6024960  3
   7976   7968   7965   7977     1  0.0000000  4.9162000  2
   7976   7968   7965   7977     1  0.0000000  0.6024960  3
   7977   7965   7964   7978     1  0.0000000  0.6508444  3
   7977   7965   7964   7986     1  0.0000000  4.9162000  2
   7977   7965   7964   7986     1  0.0000000  0.6024960  3
   7984   7978   7964   7986     1  0.0000000  4.9162000  2
   7984   7978   7964   7986     1  0.0000000  0.6024960  3
   7987   7988   7991   7992     1  180.0000771  0.8368000  1
   7987   7988   7991   7992     1  180.0000771  1.0460000  2
   7987   7988   7991   7992     1  0.0000000  0.7531200  3
   7987   7988   7991   7999     1  0.0000000  0.6508444  3
   7987   8009   7993   7997     1  180.0000771  5.6484000  1
   7987   8009   7993   7997     1  180.0000771  3.5564000  2
   7987   8009   7993   7997     1  0.0000000  0.4184000  3
   7987   8009   7993   7992     1  180.0000771  0.4184000  2
   7987   8009   7993   7992     1  0.0000000  1.6024720  3
   7988   7991   7992   7993     1  180.0000771  0.8368000  1
   7988   7991   7992   7993     1  180.0000771  1.0460000  2
   7988   7991   7992   7993     1  0.0000000  0.7531200  3
   7988   7991   7992   7998     1  0.0000000  0.6508444  3
   7988   7987   8001   8007     1  0.0000000  0.6508444  3
   7988   7987   8009   7993     1  180.0000771  0.4184000  2
   7988   7987   8009   7993     1  0.0000000  1.6024720  3
   7991   7992   7993   7997     1  0.0000000  0.6508444  3
   7991   7992   7993   8009     1  0.0000000  0.6508444  3
   7991   7988   7987   8001     1  180.0000771  0.8368000  1
   7991   7988   7987   8001     1  180.0000771  1.0460000  2
   7991   7988   7987   8001     1  0.0000000  0.7531200  3
   7991   7988   7987   8009     1  0.0000000  0.6508444  3
   7992   7991   7988   8000     1  0.0000000  0.6508444  3
   7993   8009   7987   8001     1  180.0000771  0.4184000  2
   7993   8009   7987   8001     1  0.0000000  1.6024720  3
   7993   7992   7991   7999     1  0.0000000  0.6508444  3
   7997   7993   7992   7998     1  0.0000000  4.9162000  2
   7997   7993   7992   7998     1  0.0000000  0.6024960  3
   7998   7992   7993   8009     1  0.0000000  4.9162000  2
   7998   7992   7993   8009     1  0.0000000  0.6024960  3
   7998   7992   7991   7999     1  0.0000000  4.9162000  2
   7998   7992   7991   7999     1  0.0000000  0.6024960  3
   7999   7991   7988   8000     1  0.0000000  4.9162000  2
   7999   7991   7988   8000     1  0.0000000  0.6024960  3
   8000   7988   7987   8001     1  0.0000000  0.6508444  3
   8000   7988   7987   8009     1  0.0000000  4.9162000  2
   8000   7988   7987   8009     1  0.0000000  0.6024960  3
   8007   8001   7987   8009     1  0.0000000  4.9162000  2
   8007   8001   7987   8009     1  0.0000000  0.6024960  3
   8010   8011   8014   8015     1  180.0000771  0.8368000  1
   8010   8011   8014   8015     1  180.0000771  1.0460000  2
   8010   8011   8014   8015     1  0.0000000  0.7531200  3
   8010   8011   8014   8022     1  0.0000000  0.6508444  3
   8010   8032   8016   8015     1  180.0000771  0.4184000  2
   8010   8032   8016   8015     1  0.0000000  1.6024720  3
   8010   8032   8016   8020     1  180.0000771  5.6484000  1
   8010   8032   8016   8020     1  180.0000771  3.5564000  2
   8010   8032   8016   8020     1  0.0000000  0.4184000  3
   8011   8010   8024   8030     1  0.0000000  0.6508444  3
   8011   8010   8032   8016     1  180.0000771  0.4184000  2
   8011   8010   8032   8016     1  0.0000000  1.6024720  3
   8011   8014   8015   8016     1  180.0000771  0.8368000  1
   8011   8014   8015   8016     1  180.0000771  1.0460000  2
   8011   8014   8015   8016     1  0.0000000  0.7531200  3
   8011   8014   8015   8021     1  0.0000000  0.6508444  3
   8014   8011   8010   8024     1  180.0000771  0.8368000  1
   8014   8011   8010   8024     1  180.0000771  1.0460000  2
   8014   8011   8010   8024     1  0.0000000  0.7531200  3
   8014   8011   8010   8032     1  0.0000000  0.6508444  3
   8014   8015   8016   8020     1  0.0000000  0.6508444  3
   8014   8015   8016   8032     1  0.0000000  0.6508444  3
   8015   8014   8011   8023     1  0.0000000  0.6508444  3
   8016   8015   8014   8022     1  0.0000000  0.6508444  3
   8016   8032   8010   8024     1  180.0000771  0.4184000  2
   8016   8032   8010   8024     1  0.0000000  1.6024720  3
   8020   8016   8015   8021     1  0.0000000  4.9162000  2
   8020   8016   8015   8021     1  0.0000000  0.6024960  3
   8021   8015   8014   8022     1  0.0000000  4.9162000  2
   8021   8015   8014   8022     1  0.0000000  0.6024960  3
   8021   8015   8016   8032     1  0.0000000  4.9162000  2
   8021   8015   8016   8032     1  0.0000000  0.6024960  3
   8022   8014   8011   8023     1  0.0000000  4.9162000  2
   8022   8014   8011   8023     1  0.0000000  0.6024960  3
   8023   8011   8010   8024     1  0.0000000  0.6508444  3
   8023   8011   8010   8032     1  0.0000000  4.9162000  2
   8023   8011   8010   8032     1  0.0000000  0.6024960  3
   8030   8024   8010   8032     1  0.0000000  4.9162000  2
   8030   8024   8010   8032     1  0.0000000  0.6024960  3
   8033   8034   8037   8038     1  180.0000771  0.8368000  1
   8033   8034   8037   8038     1  180.0000771  1.0460000  2
   8033   8034   8037   8038     1  0.0000000  0.7531200  3
   8033   8034   8037   8045     1  0.0000000  0.6508444  3
   8033   8055   8039   8043     1  180.0000771  5.6484000  1
   8033   8055   8039   8043     1  180.0000771  3.5564000  2
   8033   8055   8039   8043     1  0.0000000  0.4184000  3
   8033   8055   8039   8038     1  180.0000771  0.4184000  2
   8033   8055   8039   8038     1  0.0000000  1.6024720  3
   8034   8037   8038   8039     1  180.0000771  0.8368000  1
   8034   8037   8038   8039     1  180.0000771  1.0460000  2
   8034   8037   8038   8039     1  0.0000000  0.7531200  3
   8034   8037   8038   8044     1  0.0000000  0.6508444  3
   8034   8033   8047   8053     1  0.0000000  0.6508444  3
   8034   8033   8055   8039     1  180.0000771  0.4184000  2
   8034   8033   8055   8039     1  0.0000000  1.6024720  3
   8037   8038   8039   8043     1  0.0000000  0.6508444  3
   8037   8038   8039   8055     1  0.0000000  0.6508444  3
   8037   8034   8033   8047     1  180.0000771  0.8368000  1
   8037   8034   8033   8047     1  180.0000771  1.0460000  2
   8037   8034   8033   8047     1  0.0000000  0.7531200  3
   8037   8034   8033   8055     1  0.0000000  0.6508444  3
   8038   8037   8034   8046     1  0.0000000  0.6508444  3
   8039   8055   8033   8047     1  180.0000771  0.4184000  2
   8039   8055   8033   8047     1  0.0000000  1.6024720  3
   8039   8038   8037   8045     1  0.0000000  0.6508444  3
   8043   8039   8038   8044     1  0.0000000  4.9162000  2
   8043   8039   8038   8044     1  0.0000000  0.6024960  3
   8044   8038   8039   8055     1  0.0000000  4.9162000  2
   8044   8038   8039   8055     1  0.0000000  0.6024960  3
   8044   8038   8037   8045     1  0.0000000  4.9162000  2
   8044   8038   8037   8045     1  0.0000000  0.6024960  3
   8045   8037   8034   8046     1  0.0000000  4.9162000  2
   8045   8037   8034   8046     1  0.0000000  0.6024960  3
   8046   8034   8033   8047     1  0.0000000  0.6508444  3
   8046   8034   8033   8055     1  0.0000000  4.9162000  2
   8046   8034   8033   8055     1  0.0000000  0.6024960  3
   8053   8047   8033   8055     1  0.0000000  4.9162000  2
   8053   8047   8033   8055     1  0.0000000  0.6024960  3
   8056   8057   8060   8061     1  180.0000771  0.8368000  1
   8056   8057   8060   8061     1  180.0000771  1.0460000  2
   8056   8057   8060   8061     1  0.0000000  0.7531200  3
   8056   8057   8060   8068     1  0.0000000  0.6508444  3
   8056   8078   8062   8061     1  180.0000771  0.4184000  2
   8056   8078   8062   8061     1  0.0000000  1.6024720  3
   8056   8078   8062   8066     1  180.0000771  5.6484000  1
   8056   8078   8062   8066     1  180.0000771  3.5564000  2
   8056   8078   8062   8066     1  0.0000000  0.4184000  3
   8057   8056   8070   8076     1  0.0000000  0.6508444  3
   8057   8056   8078   8062     1  180.0000771  0.4184000  2
   8057   8056   8078   8062     1  0.0000000  1.6024720  3
   8057   8060   8061   8062     1  180.0000771  0.8368000  1
   8057   8060   8061   8062     1  180.0000771  1.0460000  2
   8057   8060   8061   8062     1  0.0000000  0.7531200  3
   8057   8060   8061   8067     1  0.0000000  0.6508444  3
   8060   8057   8056   8070     1  180.0000771  0.8368000  1
   8060   8057   8056   8070     1  180.0000771  1.0460000  2
   8060   8057   8056   8070     1  0.0000000  0.7531200  3
   8060   8057   8056   8078     1  0.0000000  0.6508444  3
   8060   8061   8062   8066     1  0.0000000  0.6508444  3
   8060   8061   8062   8078     1  0.0000000  0.6508444  3
   8061   8060   8057   8069     1  0.0000000  0.6508444  3
   8062   8061   8060   8068     1  0.0000000  0.6508444  3
   8062   8078   8056   8070     1  180.0000771  0.4184000  2
   8062   8078   8056   8070     1  0.0000000  1.6024720  3
   8066   8062   8061   8067     1  0.0000000  4.9162000  2
   8066   8062   8061   8067     1  0.0000000  0.6024960  3
   8067   8061   8060   8068     1  0.0000000  4.9162000  2
   8067   8061   8060   8068     1  0.0000000  0.6024960  3
   8067   8061   8062   8078     1  0.0000000  4.9162000  2
   8067   8061   8062   8078     1  0.0000000  0.6024960  3
   8068   8060   8057   8069     1  0.0000000  4.9162000  2
   8068   8060   8057   8069     1  0.0000000  0.6024960  3
   8069   8057   8056   8070     1  0.0000000  0.6508444  3
   8069   8057   8056   8078     1  0.0000000  4.9162000  2
   8069   8057   8056   8078     1  0.0000000  0.6024960  3
   8076   8070   8056   8078     1  0.0000000  4.9162000  2
   8076   8070   8056   8078     1  0.0000000  0.6024960  3
   8079   8080   8083   8084     1  180.0000771  0.8368000  1
   8079   8080   8083   8084     1  180.0000771  1.0460000  2
   8079   8080   8083   8084     1  0.0000000  0.7531200  3
   8079   8080   8083   8091     1  0.0000000  0.6508444  3
   8079   8101   8085   8089     1  180.0000771  5.6484000  1
   8079   8101   8085   8089     1  180.0000771  3.5564000  2
   8079   8101   8085   8089     1  0.0000000  0.4184000  3
   8079   8101   8085   8084     1  180.0000771  0.4184000  2
   8079   8101   8085   8084     1  0.0000000  1.6024720  3
   8080   8083   8084   8085     1  180.0000771  0.8368000  1
   8080   8083   8084   8085     1  180.0000771  1.0460000  2
   8080   8083   8084   8085     1  0.0000000  0.7531200  3
   8080   8083   8084   8090     1  0.0000000  0.6508444  3
   8080   8079   8093   8099     1  0.0000000  0.6508444  3
   8080   8079   8101   8085     1  180.0000771  0.4184000  2
   8080   8079   8101   8085     1  0.0000000  1.6024720  3
   8083   8084   8085   8089     1  0.0000000  0.6508444  3
   8083   8084   8085   8101     1  0.0000000  0.6508444  3
   8083   8080   8079   8093     1  180.0000771  0.8368000  1
   8083   8080   8079   8093     1  180.0000771  1.0460000  2
   8083   8080   8079   8093     1  0.0000000  0.7531200  3
   8083   8080   8079   8101     1  0.0000000  0.6508444  3
   8084   8083   8080   8092     1  0.0000000  0.6508444  3
   8085   8101   8079   8093     1  180.0000771  0.4184000  2
   8085   8101   8079   8093     1  0.0000000  1.6024720  3
   8085   8084   8083   8091     1  0.0000000  0.6508444  3
   8089   8085   8084   8090     1  0.0000000  4.9162000  2
   8089   8085   8084   8090     1  0.0000000  0.6024960  3
   8090   8084   8085   8101     1  0.0000000  4.9162000  2
   8090   8084   8085   8101     1  0.0000000  0.6024960  3
   8090   8084   8083   8091     1  0.0000000  4.9162000  2
   8090   8084   8083   8091     1  0.0000000  0.6024960  3
   8091   8083   8080   8092     1  0.0000000  4.9162000  2
   8091   8083   8080   8092     1  0.0000000  0.6024960  3
   8092   8080   8079   8093     1  0.0000000  0.6508444  3
   8092   8080   8079   8101     1  0.0000000  4.9162000  2
   8092   8080   8079   8101     1  0.0000000  0.6024960  3
   8099   8093   8079   8101     1  0.0000000  4.9162000  2
   8099   8093   8079   8101     1  0.0000000  0.6024960  3
   8102   8103   8106   8107     1  180.0000771  0.8368000  1
   8102   8103   8106   8107     1  180.0000771  1.0460000  2
   8102   8103   8106   8107     1  0.0000000  0.7531200  3
   8102   8103   8106   8114     1  0.0000000  0.6508444  3
   8102   8124   8108   8107     1  180.0000771  0.4184000  2
   8102   8124   8108   8107     1  0.0000000  1.6024720  3
   8102   8124   8108   8112     1  180.0000771  5.6484000  1
   8102   8124   8108   8112     1  180.0000771  3.5564000  2
   8102   8124   8108   8112     1  0.0000000  0.4184000  3
   8103   8102   8116   8122     1  0.0000000  0.6508444  3
   8103   8102   8124   8108     1  180.0000771  0.4184000  2
   8103   8102   8124   8108     1  0.0000000  1.6024720  3
   8103   8106   8107   8108     1  180.0000771  0.8368000  1
   8103   8106   8107   8108     1  180.0000771  1.0460000  2
   8103   8106   8107   8108     1  0.0000000  0.7531200  3
   8103   8106   8107   8113     1  0.0000000  0.6508444  3
   8106   8103   8102   8116     1  180.0000771  0.8368000  1
   8106   8103   8102   8116     1  180.0000771  1.0460000  2
   8106   8103   8102   8116     1  0.0000000  0.7531200  3
   8106   8103   8102   8124     1  0.0000000  0.6508444  3
   8106   8107   8108   8112     1  0.0000000  0.6508444  3
   8106   8107   8108   8124     1  0.0000000  0.6508444  3
   8107   8106   8103   8115     1  0.0000000  0.6508444  3
   8108   8107   8106   8114     1  0.0000000  0.6508444  3
   8108   8124   8102   8116     1  180.0000771  0.4184000  2
   8108   8124   8102   8116     1  0.0000000  1.6024720  3
   8112   8108   8107   8113     1  0.0000000  4.9162000  2
   8112   8108   8107   8113     1  0.0000000  0.6024960  3
   8113   8107   8106   8114     1  0.0000000  4.9162000  2
   8113   8107   8106   8114     1  0.0000000  0.6024960  3
   8113   8107   8108   8124     1  0.0000000  4.9162000  2
   8113   8107   8108   8124     1  0.0000000  0.6024960  3
   8114   8106   8103   8115     1  0.0000000  4.9162000  2
   8114   8106   8103   8115     1  0.0000000  0.6024960  3
   8115   8103   8102   8116     1  0.0000000  0.6508444  3
   8115   8103   8102   8124     1  0.0000000  4.9162000  2
   8115   8103   8102   8124     1  0.0000000  0.6024960  3
   8122   8116   8102   8124     1  0.0000000  4.9162000  2
   8122   8116   8102   8124     1  0.0000000  0.6024960  3
   8125   8126   8129   8130     1  180.0000771  0.8368000  1
   8125   8126   8129   8130     1  180.0000771  1.0460000  2
   8125   8126   8129   8130     1  0.0000000  0.7531200  3
   8125   8126   8129   8137     1  0.0000000  0.6508444  3
   8125   8147   8131   8135     1  180.0000771  5.6484000  1
   8125   8147   8131   8135     1  180.0000771  3.5564000  2
   8125   8147   8131   8135     1  0.0000000  0.4184000  3
   8125   8147   8131   8130     1  180.0000771  0.4184000  2
   8125   8147   8131   8130     1  0.0000000  1.6024720  3
   8126   8129   8130   8131     1  180.0000771  0.8368000  1
   8126   8129   8130   8131     1  180.0000771  1.0460000  2
   8126   8129   8130   8131     1  0.0000000  0.7531200  3
   8126   8129   8130   8136     1  0.0000000  0.6508444  3
   8126   8125   8139   8145     1  0.0000000  0.6508444  3
   8126   8125   8147   8131     1  180.0000771  0.4184000  2
   8126   8125   8147   8131     1  0.0000000  1.6024720  3
   8129   8130   8131   8135     1  0.0000000  0.6508444  3
   8129   8130   8131   8147     1  0.0000000  0.6508444  3
   8129   8126   8125   8139     1  180.0000771  0.8368000  1
   8129   8126   8125   8139     1  180.0000771  1.0460000  2
   8129   8126   8125   8139     1  0.0000000  0.7531200  3
   8129   8126   8125   8147     1  0.0000000  0.6508444  3
   8130   8129   8126   8138     1  0.0000000  0.6508444  3
   8131   8147   8125   8139     1  180.0000771  0.4184000  2
   8131   8147   8125   8139     1  0.0000000  1.6024720  3
   8131   8130   8129   8137     1  0.0000000  0.6508444  3
   8135   8131   8130   8136     1  0.0000000  4.9162000  2
   8135   8131   8130   8136     1  0.0000000  0.6024960  3
   8136   8130   8131   8147     1  0.0000000  4.9162000  2
   8136   8130   8131   8147     1  0.0000000  0.6024960  3
   8136   8130   8129   8137     1  0.0000000  4.9162000  2
   8136   8130   8129   8137     1  0.0000000  0.6024960  3
   8137   8129   8126   8138     1  0.0000000  4.9162000  2
   8137   8129   8126   8138     1  0.0000000  0.6024960  3
   8138   8126   8125   8139     1  0.0000000  0.6508444  3
   8138   8126   8125   8147     1  0.0000000  4.9162000  2
   8138   8126   8125   8147     1  0.0000000  0.6024960  3
   8145   8139   8125   8147     1  0.0000000  4.9162000  2
   8145   8139   8125   8147     1  0.0000000  0.6024960  3
   8148   8149   8152   8153     1  180.0000771  0.8368000  1
   8148   8149   8152   8153     1  180.0000771  1.0460000  2
   8148   8149   8152   8153     1  0.0000000  0.7531200  3
   8148   8149   8152   8160     1  0.0000000  0.6508444  3
   8148   8170   8154   8153     1  180.0000771  0.4184000  2
   8148   8170   8154   8153     1  0.0000000  1.6024720  3
   8148   8170   8154   8158     1  180.0000771  5.6484000  1
   8148   8170   8154   8158     1  180.0000771  3.5564000  2
   8148   8170   8154   8158     1  0.0000000  0.4184000  3
   8149   8148   8162   8168     1  0.0000000  0.6508444  3
   8149   8148   8170   8154     1  180.0000771  0.4184000  2
   8149   8148   8170   8154     1  0.0000000  1.6024720  3
   8149   8152   8153   8154     1  180.0000771  0.8368000  1
   8149   8152   8153   8154     1  180.0000771  1.0460000  2
   8149   8152   8153   8154     1  0.0000000  0.7531200  3
   8149   8152   8153   8159     1  0.0000000  0.6508444  3
   8152   8149   8148   8162     1  180.0000771  0.8368000  1
   8152   8149   8148   8162     1  180.0000771  1.0460000  2
   8152   8149   8148   8162     1  0.0000000  0.7531200  3
   8152   8149   8148   8170     1  0.0000000  0.6508444  3
   8152   8153   8154   8158     1  0.0000000  0.6508444  3
   8152   8153   8154   8170     1  0.0000000  0.6508444  3
   8153   8152   8149   8161     1  0.0000000  0.6508444  3
   8154   8153   8152   8160     1  0.0000000  0.6508444  3
   8154   8170   8148   8162     1  180.0000771  0.4184000  2
   8154   8170   8148   8162     1  0.0000000  1.6024720  3
   8158   8154   8153   8159     1  0.0000000  4.9162000  2
   8158   8154   8153   8159     1  0.0000000  0.6024960  3
   8159   8153   8152   8160     1  0.0000000  4.9162000  2
   8159   8153   8152   8160     1  0.0000000  0.6024960  3
   8159   8153   8154   8170     1  0.0000000  4.9162000  2
   8159   8153   8154   8170     1  0.0000000  0.6024960  3
   8160   8152   8149   8161     1  0.0000000  4.9162000  2
   8160   8152   8149   8161     1  0.0000000  0.6024960  3
   8161   8149   8148   8162     1  0.0000000  0.6508444  3
   8161   8149   8148   8170     1  0.0000000  4.9162000  2
   8161   8149   8148   8170     1  0.0000000  0.6024960  3
   8168   8162   8148   8170     1  0.0000000  4.9162000  2
   8168   8162   8148   8170     1  0.0000000  0.6024960  3
   8171   8172   8175   8176     1  180.0000771  0.8368000  1
   8171   8172   8175   8176     1  180.0000771  1.0460000  2
   8171   8172   8175   8176     1  0.0000000  0.7531200  3
   8171   8172   8175   8183     1  0.0000000  0.6508444  3
   8171   8193   8177   8181     1  180.0000771  5.6484000  1
   8171   8193   8177   8181     1  180.0000771  3.5564000  2
   8171   8193   8177   8181     1  0.0000000  0.4184000  3
   8171   8193   8177   8176     1  180.0000771  0.4184000  2
   8171   8193   8177   8176     1  0.0000000  1.6024720  3
   8172   8175   8176   8177     1  180.0000771  0.8368000  1
   8172   8175   8176   8177     1  180.0000771  1.0460000  2
   8172   8175   8176   8177     1  0.0000000  0.7531200  3
   8172   8175   8176   8182     1  0.0000000  0.6508444  3
   8172   8171   8185   8191     1  0.0000000  0.6508444  3
   8172   8171   8193   8177     1  180.0000771  0.4184000  2
   8172   8171   8193   8177     1  0.0000000  1.6024720  3
   8175   8176   8177   8181     1  0.0000000  0.6508444  3
   8175   8176   8177   8193     1  0.0000000  0.6508444  3
   8175   8172   8171   8185     1  180.0000771  0.8368000  1
   8175   8172   8171   8185     1  180.0000771  1.0460000  2
   8175   8172   8171   8185     1  0.0000000  0.7531200  3
   8175   8172   8171   8193     1  0.0000000  0.6508444  3
   8176   8175   8172   8184     1  0.0000000  0.6508444  3
   8177   8193   8171   8185     1  180.0000771  0.4184000  2
   8177   8193   8171   8185     1  0.0000000  1.6024720  3
   8177   8176   8175   8183     1  0.0000000  0.6508444  3
   8181   8177   8176   8182     1  0.0000000  4.9162000  2
   8181   8177   8176   8182     1  0.0000000  0.6024960  3
   8182   8176   8177   8193     1  0.0000000  4.9162000  2
   8182   8176   8177   8193     1  0.0000000  0.6024960  3
   8182   8176   8175   8183     1  0.0000000  4.9162000  2
   8182   8176   8175   8183     1  0.0000000  0.6024960  3
   8183   8175   8172   8184     1  0.0000000  4.9162000  2
   8183   8175   8172   8184     1  0.0000000  0.6024960  3
   8184   8172   8171   8185     1  0.0000000  0.6508444  3
   8184   8172   8171   8193     1  0.0000000  4.9162000  2
   8184   8172   8171   8193     1  0.0000000  0.6024960  3
   8191   8185   8171   8193     1  0.0000000  4.9162000  2
   8191   8185   8171   8193     1  0.0000000  0.6024960  3
   8194   8195   8198   8199     1  180.0000771  0.8368000  1
   8194   8195   8198   8199     1  180.0000771  1.0460000  2
   8194   8195   8198   8199     1  0.0000000  0.7531200  3
   8194   8195   8198   8206     1  0.0000000  0.6508444  3
   8194   8216   8200   8199     1  180.0000771  0.4184000  2
   8194   8216   8200   8199     1  0.0000000  1.6024720  3
   8194   8216   8200   8204     1  180.0000771  5.6484000  1
   8194   8216   8200   8204     1  180.0000771  3.5564000  2
   8194   8216   8200   8204     1  0.0000000  0.4184000  3
   8195   8194   8208   8214     1  0.0000000  0.6508444  3
   8195   8194   8216   8200     1  180.0000771  0.4184000  2
   8195   8194   8216   8200     1  0.0000000  1.6024720  3
   8195   8198   8199   8200     1  180.0000771  0.8368000  1
   8195   8198   8199   8200     1  180.0000771  1.0460000  2
   8195   8198   8199   8200     1  0.0000000  0.7531200  3
   8195   8198   8199   8205     1  0.0000000  0.6508444  3
   8198   8195   8194   8208     1  180.0000771  0.8368000  1
   8198   8195   8194   8208     1  180.0000771  1.0460000  2
   8198   8195   8194   8208     1  0.0000000  0.7531200  3
   8198   8195   8194   8216     1  0.0000000  0.6508444  3
   8198   8199   8200   8204     1  0.0000000  0.6508444  3
   8198   8199   8200   8216     1  0.0000000  0.6508444  3
   8199   8198   8195   8207     1  0.0000000  0.6508444  3
   8200   8199   8198   8206     1  0.0000000  0.6508444  3
   8200   8216   8194   8208     1  180.0000771  0.4184000  2
   8200   8216   8194   8208     1  0.0000000  1.6024720  3
   8204   8200   8199   8205     1  0.0000000  4.9162000  2
   8204   8200   8199   8205     1  0.0000000  0.6024960  3
   8205   8199   8198   8206     1  0.0000000  4.9162000  2
   8205   8199   8198   8206     1  0.0000000  0.6024960  3
   8205   8199   8200   8216     1  0.0000000  4.9162000  2
   8205   8199   8200   8216     1  0.0000000  0.6024960  3
   8206   8198   8195   8207     1  0.0000000  4.9162000  2
   8206   8198   8195   8207     1  0.0000000  0.6024960  3
   8207   8195   8194   8208     1  0.0000000  0.6508444  3
   8207   8195   8194   8216     1  0.0000000  4.9162000  2
   8207   8195   8194   8216     1  0.0000000  0.6024960  3
   8214   8208   8194   8216     1  0.0000000  4.9162000  2
   8214   8208   8194   8216     1  0.0000000  0.6024960  3
   8217   8218   8221   8222     1  180.0000771  0.8368000  1
   8217   8218   8221   8222     1  180.0000771  1.0460000  2
   8217   8218   8221   8222     1  0.0000000  0.7531200  3
   8217   8218   8221   8229     1  0.0000000  0.6508444  3
   8217   8239   8223   8227     1  180.0000771  5.6484000  1
   8217   8239   8223   8227     1  180.0000771  3.5564000  2
   8217   8239   8223   8227     1  0.0000000  0.4184000  3
   8217   8239   8223   8222     1  180.0000771  0.4184000  2
   8217   8239   8223   8222     1  0.0000000  1.6024720  3
   8218   8221   8222   8223     1  180.0000771  0.8368000  1
   8218   8221   8222   8223     1  180.0000771  1.0460000  2
   8218   8221   8222   8223     1  0.0000000  0.7531200  3
   8218   8221   8222   8228     1  0.0000000  0.6508444  3
   8218   8217   8231   8237     1  0.0000000  0.6508444  3
   8218   8217   8239   8223     1  180.0000771  0.4184000  2
   8218   8217   8239   8223     1  0.0000000  1.6024720  3
   8221   8222   8223   8227     1  0.0000000  0.6508444  3
   8221   8222   8223   8239     1  0.0000000  0.6508444  3
   8221   8218   8217   8231     1  180.0000771  0.8368000  1
   8221   8218   8217   8231     1  180.0000771  1.0460000  2
   8221   8218   8217   8231     1  0.0000000  0.7531200  3
   8221   8218   8217   8239     1  0.0000000  0.6508444  3
   8222   8221   8218   8230     1  0.0000000  0.6508444  3
   8223   8239   8217   8231     1  180.0000771  0.4184000  2
   8223   8239   8217   8231     1  0.0000000  1.6024720  3
   8223   8222   8221   8229     1  0.0000000  0.6508444  3
   8227   8223   8222   8228     1  0.0000000  4.9162000  2
   8227   8223   8222   8228     1  0.0000000  0.6024960  3
   8228   8222   8223   8239     1  0.0000000  4.9162000  2
   8228   8222   8223   8239     1  0.0000000  0.6024960  3
   8228   8222   8221   8229     1  0.0000000  4.9162000  2
   8228   8222   8221   8229     1  0.0000000  0.6024960  3
   8229   8221   8218   8230     1  0.0000000  4.9162000  2
   8229   8221   8218   8230     1  0.0000000  0.6024960  3
   8230   8218   8217   8231     1  0.0000000  0.6508444  3
   8230   8218   8217   8239     1  0.0000000  4.9162000  2
   8230   8218   8217   8239     1  0.0000000  0.6024960  3
   8237   8231   8217   8239     1  0.0000000  4.9162000  2
   8237   8231   8217   8239     1  0.0000000  0.6024960  3
   8240   8241   8244   8245     1  180.0000771  0.8368000  1
   8240   8241   8244   8245     1  180.0000771  1.0460000  2
   8240   8241   8244   8245     1  0.0000000  0.7531200  3
   8240   8241   8244   8252     1  0.0000000  0.6508444  3
   8240   8262   8246   8245     1  180.0000771  0.4184000  2
   8240   8262   8246   8245     1  0.0000000  1.6024720  3
   8240   8262   8246   8250     1  180.0000771  5.6484000  1
   8240   8262   8246   8250     1  180.0000771  3.5564000  2
   8240   8262   8246   8250     1  0.0000000  0.4184000  3
   8241   8240   8254   8260     1  0.0000000  0.6508444  3
   8241   8240   8262   8246     1  180.0000771  0.4184000  2
   8241   8240   8262   8246     1  0.0000000  1.6024720  3
   8241   8244   8245   8246     1  180.0000771  0.8368000  1
   8241   8244   8245   8246     1  180.0000771  1.0460000  2
   8241   8244   8245   8246     1  0.0000000  0.7531200  3
   8241   8244   8245   8251     1  0.0000000  0.6508444  3
   8244   8241   8240   8254     1  180.0000771  0.8368000  1
   8244   8241   8240   8254     1  180.0000771  1.0460000  2
   8244   8241   8240   8254     1  0.0000000  0.7531200  3
   8244   8241   8240   8262     1  0.0000000  0.6508444  3
   8244   8245   8246   8250     1  0.0000000  0.6508444  3
   8244   8245   8246   8262     1  0.0000000  0.6508444  3
   8245   8244   8241   8253     1  0.0000000  0.6508444  3
   8246   8245   8244   8252     1  0.0000000  0.6508444  3
   8246   8262   8240   8254     1  180.0000771  0.4184000  2
   8246   8262   8240   8254     1  0.0000000  1.6024720  3
   8250   8246   8245   8251     1  0.0000000  4.9162000  2
   8250   8246   8245   8251     1  0.0000000  0.6024960  3
   8251   8245   8244   8252     1  0.0000000  4.9162000  2
   8251   8245   8244   8252     1  0.0000000  0.6024960  3
   8251   8245   8246   8262     1  0.0000000  4.9162000  2
   8251   8245   8246   8262     1  0.0000000  0.6024960  3
   8252   8244   8241   8253     1  0.0000000  4.9162000  2
   8252   8244   8241   8253     1  0.0000000  0.6024960  3
   8253   8241   8240   8254     1  0.0000000  0.6508444  3
   8253   8241   8240   8262     1  0.0000000  4.9162000  2
   8253   8241   8240   8262     1  0.0000000  0.6024960  3
   8260   8254   8240   8262     1  0.0000000  4.9162000  2
   8260   8254   8240   8262     1  0.0000000  0.6024960  3
   8263   8264   8267   8268     1  180.0000771  0.8368000  1
   8263   8264   8267   8268     1  180.0000771  1.0460000  2
   8263   8264   8267   8268     1  0.0000000  0.7531200  3
   8263   8264   8267   8275     1  0.0000000  0.6508444  3
   8263   8285   8269   8273     1  180.0000771  5.6484000  1
   8263   8285   8269   8273     1  180.0000771  3.5564000  2
   8263   8285   8269   8273     1  0.0000000  0.4184000  3
   8263   8285   8269   8268     1  180.0000771  0.4184000  2
   8263   8285   8269   8268     1  0.0000000  1.6024720  3
   8264   8267   8268   8269     1  180.0000771  0.8368000  1
   8264   8267   8268   8269     1  180.0000771  1.0460000  2
   8264   8267   8268   8269     1  0.0000000  0.7531200  3
   8264   8267   8268   8274     1  0.0000000  0.6508444  3
   8264   8263   8277   8283     1  0.0000000  0.6508444  3
   8264   8263   8285   8269     1  180.0000771  0.4184000  2
   8264   8263   8285   8269     1  0.0000000  1.6024720  3
   8267   8268   8269   8273     1  0.0000000  0.6508444  3
   8267   8268   8269   8285     1  0.0000000  0.6508444  3
   8267   8264   8263   8277     1  180.0000771  0.8368000  1
   8267   8264   8263   8277     1  180.0000771  1.0460000  2
   8267   8264   8263   8277     1  0.0000000  0.7531200  3
   8267   8264   8263   8285     1  0.0000000  0.6508444  3
   8268   8267   8264   8276     1  0.0000000  0.6508444  3
   8269   8285   8263   8277     1  180.0000771  0.4184000  2
   8269   8285   8263   8277     1  0.0000000  1.6024720  3
   8269   8268   8267   8275     1  0.0000000  0.6508444  3
   8273   8269   8268   8274     1  0.0000000  4.9162000  2
   8273   8269   8268   8274     1  0.0000000  0.6024960  3
   8274   8268   8269   8285     1  0.0000000  4.9162000  2
   8274   8268   8269   8285     1  0.0000000  0.6024960  3
   8274   8268   8267   8275     1  0.0000000  4.9162000  2
   8274   8268   8267   8275     1  0.0000000  0.6024960  3
   8275   8267   8264   8276     1  0.0000000  4.9162000  2
   8275   8267   8264   8276     1  0.0000000  0.6024960  3
   8276   8264   8263   8277     1  0.0000000  0.6508444  3
   8276   8264   8263   8285     1  0.0000000  4.9162000  2
   8276   8264   8263   8285     1  0.0000000  0.6024960  3
   8283   8277   8263   8285     1  0.0000000  4.9162000  2
   8283   8277   8263   8285     1  0.0000000  0.6024960  3
   8286   8287   8290   8291     1  180.0000771  0.8368000  1
   8286   8287   8290   8291     1  180.0000771  1.0460000  2
   8286   8287   8290   8291     1  0.0000000  0.7531200  3
   8286   8287   8290   8298     1  0.0000000  0.6508444  3
   8286   8308   8292   8291     1  180.0000771  0.4184000  2
   8286   8308   8292   8291     1  0.0000000  1.6024720  3
   8286   8308   8292   8296     1  180.0000771  5.6484000  1
   8286   8308   8292   8296     1  180.0000771  3.5564000  2
   8286   8308   8292   8296     1  0.0000000  0.4184000  3
   8287   8286   8300   8306     1  0.0000000  0.6508444  3
   8287   8286   8308   8292     1  180.0000771  0.4184000  2
   8287   8286   8308   8292     1  0.0000000  1.6024720  3
   8287   8290   8291   8292     1  180.0000771  0.8368000  1
   8287   8290   8291   8292     1  180.0000771  1.0460000  2
   8287   8290   8291   8292     1  0.0000000  0.7531200  3
   8287   8290   8291   8297     1  0.0000000  0.6508444  3
   8290   8287   8286   8300     1  180.0000771  0.8368000  1
   8290   8287   8286   8300     1  180.0000771  1.0460000  2
   8290   8287   8286   8300     1  0.0000000  0.7531200  3
   8290   8287   8286   8308     1  0.0000000  0.6508444  3
   8290   8291   8292   8296     1  0.0000000  0.6508444  3
   8290   8291   8292   8308     1  0.0000000  0.6508444  3
   8291   8290   8287   8299     1  0.0000000  0.6508444  3
   8292   8291   8290   8298     1  0.0000000  0.6508444  3
   8292   8308   8286   8300     1  180.0000771  0.4184000  2
   8292   8308   8286   8300     1  0.0000000  1.6024720  3
   8296   8292   8291   8297     1  0.0000000  4.9162000  2
   8296   8292   8291   8297     1  0.0000000  0.6024960  3
   8297   8291   8290   8298     1  0.0000000  4.9162000  2
   8297   8291   8290   8298     1  0.0000000  0.6024960  3
   8297   8291   8292   8308     1  0.0000000  4.9162000  2
   8297   8291   8292   8308     1  0.0000000  0.6024960  3
   8298   8290   8287   8299     1  0.0000000  4.9162000  2
   8298   8290   8287   8299     1  0.0000000  0.6024960  3
   8299   8287   8286   8300     1  0.0000000  0.6508444  3
   8299   8287   8286   8308     1  0.0000000  4.9162000  2
   8299   8287   8286   8308     1  0.0000000  0.6024960  3
   8306   8300   8286   8308     1  0.0000000  4.9162000  2
   8306   8300   8286   8308     1  0.0000000  0.6024960  3
   8309   8310   8313   8314     1  180.0000771  0.8368000  1
   8309   8310   8313   8314     1  180.0000771  1.0460000  2
   8309   8310   8313   8314     1  0.0000000  0.7531200  3
   8309   8310   8313   8321     1  0.0000000  0.6508444  3
   8309   8331   8315   8319     1  180.0000771  5.6484000  1
   8309   8331   8315   8319     1  180.0000771  3.5564000  2
   8309   8331   8315   8319     1  0.0000000  0.4184000  3
   8309   8331   8315   8314     1  180.0000771  0.4184000  2
   8309   8331   8315   8314     1  0.0000000  1.6024720  3
   8310   8313   8314   8315     1  180.0000771  0.8368000  1
   8310   8313   8314   8315     1  180.0000771  1.0460000  2
   8310   8313   8314   8315     1  0.0000000  0.7531200  3
   8310   8313   8314   8320     1  0.0000000  0.6508444  3
   8310   8309   8323   8329     1  0.0000000  0.6508444  3
   8310   8309   8331   8315     1  180.0000771  0.4184000  2
   8310   8309   8331   8315     1  0.0000000  1.6024720  3
   8313   8314   8315   8319     1  0.0000000  0.6508444  3
   8313   8314   8315   8331     1  0.0000000  0.6508444  3
   8313   8310   8309   8323     1  180.0000771  0.8368000  1
   8313   8310   8309   8323     1  180.0000771  1.0460000  2
   8313   8310   8309   8323     1  0.0000000  0.7531200  3
   8313   8310   8309   8331     1  0.0000000  0.6508444  3
   8314   8313   8310   8322     1  0.0000000  0.6508444  3
   8315   8331   8309   8323     1  180.0000771  0.4184000  2
   8315   8331   8309   8323     1  0.0000000  1.6024720  3
   8315   8314   8313   8321     1  0.0000000  0.6508444  3
   8319   8315   8314   8320     1  0.0000000  4.9162000  2
   8319   8315   8314   8320     1  0.0000000  0.6024960  3
   8320   8314   8315   8331     1  0.0000000  4.9162000  2
   8320   8314   8315   8331     1  0.0000000  0.6024960  3
   8320   8314   8313   8321     1  0.0000000  4.9162000  2
   8320   8314   8313   8321     1  0.0000000  0.6024960  3
   8321   8313   8310   8322     1  0.0000000  4.9162000  2
   8321   8313   8310   8322     1  0.0000000  0.6024960  3
   8322   8310   8309   8323     1  0.0000000  0.6508444  3
   8322   8310   8309   8331     1  0.0000000  4.9162000  2
   8322   8310   8309   8331     1  0.0000000  0.6024960  3
   8329   8323   8309   8331     1  0.0000000  4.9162000  2
   8329   8323   8309   8331     1  0.0000000  0.6024960  3
   8332   8333   8336   8337     1  180.0000771  0.8368000  1
   8332   8333   8336   8337     1  180.0000771  1.0460000  2
   8332   8333   8336   8337     1  0.0000000  0.7531200  3
   8332   8333   8336   8344     1  0.0000000  0.6508444  3
   8332   8354   8338   8337     1  180.0000771  0.4184000  2
   8332   8354   8338   8337     1  0.0000000  1.6024720  3
   8332   8354   8338   8342     1  180.0000771  5.6484000  1
   8332   8354   8338   8342     1  180.0000771  3.5564000  2
   8332   8354   8338   8342     1  0.0000000  0.4184000  3
   8333   8332   8346   8352     1  0.0000000  0.6508444  3
   8333   8332   8354   8338     1  180.0000771  0.4184000  2
   8333   8332   8354   8338     1  0.0000000  1.6024720  3
   8333   8336   8337   8338     1  180.0000771  0.8368000  1
   8333   8336   8337   8338     1  180.0000771  1.0460000  2
   8333   8336   8337   8338     1  0.0000000  0.7531200  3
   8333   8336   8337   8343     1  0.0000000  0.6508444  3
   8336   8333   8332   8346     1  180.0000771  0.8368000  1
   8336   8333   8332   8346     1  180.0000771  1.0460000  2
   8336   8333   8332   8346     1  0.0000000  0.7531200  3
   8336   8333   8332   8354     1  0.0000000  0.6508444  3
   8336   8337   8338   8342     1  0.0000000  0.6508444  3
   8336   8337   8338   8354     1  0.0000000  0.6508444  3
   8337   8336   8333   8345     1  0.0000000  0.6508444  3
   8338   8337   8336   8344     1  0.0000000  0.6508444  3
   8338   8354   8332   8346     1  180.0000771  0.4184000  2
   8338   8354   8332   8346     1  0.0000000  1.6024720  3
   8342   8338   8337   8343     1  0.0000000  4.9162000  2
   8342   8338   8337   8343     1  0.0000000  0.6024960  3
   8343   8337   8336   8344     1  0.0000000  4.9162000  2
   8343   8337   8336   8344     1  0.0000000  0.6024960  3
   8343   8337   8338   8354     1  0.0000000  4.9162000  2
   8343   8337   8338   8354     1  0.0000000  0.6024960  3
   8344   8336   8333   8345     1  0.0000000  4.9162000  2
   8344   8336   8333   8345     1  0.0000000  0.6024960  3
   8345   8333   8332   8346     1  0.0000000  0.6508444  3
   8345   8333   8332   8354     1  0.0000000  4.9162000  2
   8345   8333   8332   8354     1  0.0000000  0.6024960  3
   8352   8346   8332   8354     1  0.0000000  4.9162000  2
   8352   8346   8332   8354     1  0.0000000  0.6024960  3
   8355   8356   8359   8360     1  180.0000771  0.8368000  1
   8355   8356   8359   8360     1  180.0000771  1.0460000  2
   8355   8356   8359   8360     1  0.0000000  0.7531200  3
   8355   8356   8359   8367     1  0.0000000  0.6508444  3
   8355   8377   8361   8365     1  180.0000771  5.6484000  1
   8355   8377   8361   8365     1  180.0000771  3.5564000  2
   8355   8377   8361   8365     1  0.0000000  0.4184000  3
   8355   8377   8361   8360     1  180.0000771  0.4184000  2
   8355   8377   8361   8360     1  0.0000000  1.6024720  3
   8356   8359   8360   8361     1  180.0000771  0.8368000  1
   8356   8359   8360   8361     1  180.0000771  1.0460000  2
   8356   8359   8360   8361     1  0.0000000  0.7531200  3
   8356   8359   8360   8366     1  0.0000000  0.6508444  3
   8356   8355   8369   8375     1  0.0000000  0.6508444  3
   8356   8355   8377   8361     1  180.0000771  0.4184000  2
   8356   8355   8377   8361     1  0.0000000  1.6024720  3
   8359   8360   8361   8365     1  0.0000000  0.6508444  3
   8359   8360   8361   8377     1  0.0000000  0.6508444  3
   8359   8356   8355   8369     1  180.0000771  0.8368000  1
   8359   8356   8355   8369     1  180.0000771  1.0460000  2
   8359   8356   8355   8369     1  0.0000000  0.7531200  3
   8359   8356   8355   8377     1  0.0000000  0.6508444  3
   8360   8359   8356   8368     1  0.0000000  0.6508444  3
   8361   8377   8355   8369     1  180.0000771  0.4184000  2
   8361   8377   8355   8369     1  0.0000000  1.6024720  3
   8361   8360   8359   8367     1  0.0000000  0.6508444  3
   8365   8361   8360   8366     1  0.0000000  4.9162000  2
   8365   8361   8360   8366     1  0.0000000  0.6024960  3
   8366   8360   8361   8377     1  0.0000000  4.9162000  2
   8366   8360   8361   8377     1  0.0000000  0.6024960  3
   8366   8360   8359   8367     1  0.0000000  4.9162000  2
   8366   8360   8359   8367     1  0.0000000  0.6024960  3
   8367   8359   8356   8368     1  0.0000000  4.9162000  2
   8367   8359   8356   8368     1  0.0000000  0.6024960  3
   8368   8356   8355   8369     1  0.0000000  0.6508444  3
   8368   8356   8355   8377     1  0.0000000  4.9162000  2
   8368   8356   8355   8377     1  0.0000000  0.6024960  3
   8375   8369   8355   8377     1  0.0000000  4.9162000  2
   8375   8369   8355   8377     1  0.0000000  0.6024960  3
   8378   8379   8382   8383     1  180.0000771  0.8368000  1
   8378   8379   8382   8383     1  180.0000771  1.0460000  2
   8378   8379   8382   8383     1  0.0000000  0.7531200  3
   8378   8379   8382   8390     1  0.0000000  0.6508444  3
   8378   8400   8384   8383     1  180.0000771  0.4184000  2
   8378   8400   8384   8383     1  0.0000000  1.6024720  3
   8378   8400   8384   8388     1  180.0000771  5.6484000  1
   8378   8400   8384   8388     1  180.0000771  3.5564000  2
   8378   8400   8384   8388     1  0.0000000  0.4184000  3
   8379   8378   8392   8398     1  0.0000000  0.6508444  3
   8379   8378   8400   8384     1  180.0000771  0.4184000  2
   8379   8378   8400   8384     1  0.0000000  1.6024720  3
   8379   8382   8383   8384     1  180.0000771  0.8368000  1
   8379   8382   8383   8384     1  180.0000771  1.0460000  2
   8379   8382   8383   8384     1  0.0000000  0.7531200  3
   8379   8382   8383   8389     1  0.0000000  0.6508444  3
   8382   8379   8378   8392     1  180.0000771  0.8368000  1
   8382   8379   8378   8392     1  180.0000771  1.0460000  2
   8382   8379   8378   8392     1  0.0000000  0.7531200  3
   8382   8379   8378   8400     1  0.0000000  0.6508444  3
   8382   8383   8384   8388     1  0.0000000  0.6508444  3
   8382   8383   8384   8400     1  0.0000000  0.6508444  3
   8383   8382   8379   8391     1  0.0000000  0.6508444  3
   8384   8383   8382   8390     1  0.0000000  0.6508444  3
   8384   8400   8378   8392     1  180.0000771  0.4184000  2
   8384   8400   8378   8392     1  0.0000000  1.6024720  3
   8388   8384   8383   8389     1  0.0000000  4.9162000  2
   8388   8384   8383   8389     1  0.0000000  0.6024960  3
   8389   8383   8382   8390     1  0.0000000  4.9162000  2
   8389   8383   8382   8390     1  0.0000000  0.6024960  3
   8389   8383   8384   8400     1  0.0000000  4.9162000  2
   8389   8383   8384   8400     1  0.0000000  0.6024960  3
   8390   8382   8379   8391     1  0.0000000  4.9162000  2
   8390   8382   8379   8391     1  0.0000000  0.6024960  3
   8391   8379   8378   8392     1  0.0000000  0.6508444  3
   8391   8379   8378   8400     1  0.0000000  4.9162000  2
   8391   8379   8378   8400     1  0.0000000  0.6024960  3
   8398   8392   8378   8400     1  0.0000000  4.9162000  2
   8398   8392   8378   8400     1  0.0000000  0.6024960  3
   8401   8402   8405   8406     1  180.0000771  0.8368000  1
   8401   8402   8405   8406     1  180.0000771  1.0460000  2
   8401   8402   8405   8406     1  0.0000000  0.7531200  3
   8401   8402   8405   8413     1  0.0000000  0.6508444  3
   8401   8423   8407   8411     1  180.0000771  5.6484000  1
   8401   8423   8407   8411     1  180.0000771  3.5564000  2
   8401   8423   8407   8411     1  0.0000000  0.4184000  3
   8401   8423   8407   8406     1  180.0000771  0.4184000  2
   8401   8423   8407   8406     1  0.0000000  1.6024720  3
   8402   8405   8406   8407     1  180.0000771  0.8368000  1
   8402   8405   8406   8407     1  180.0000771  1.0460000  2
   8402   8405   8406   8407     1  0.0000000  0.7531200  3
   8402   8405   8406   8412     1  0.0000000  0.6508444  3
   8402   8401   8415   8421     1  0.0000000  0.6508444  3
   8402   8401   8423   8407     1  180.0000771  0.4184000  2
   8402   8401   8423   8407     1  0.0000000  1.6024720  3
   8405   8406   8407   8411     1  0.0000000  0.6508444  3
   8405   8406   8407   8423     1  0.0000000  0.6508444  3
   8405   8402   8401   8415     1  180.0000771  0.8368000  1
   8405   8402   8401   8415     1  180.0000771  1.0460000  2
   8405   8402   8401   8415     1  0.0000000  0.7531200  3
   8405   8402   8401   8423     1  0.0000000  0.6508444  3
   8406   8405   8402   8414     1  0.0000000  0.6508444  3
   8407   8423   8401   8415     1  180.0000771  0.4184000  2
   8407   8423   8401   8415     1  0.0000000  1.6024720  3
   8407   8406   8405   8413     1  0.0000000  0.6508444  3
   8411   8407   8406   8412     1  0.0000000  4.9162000  2
   8411   8407   8406   8412     1  0.0000000  0.6024960  3
   8412   8406   8407   8423     1  0.0000000  4.9162000  2
   8412   8406   8407   8423     1  0.0000000  0.6024960  3
   8412   8406   8405   8413     1  0.0000000  4.9162000  2
   8412   8406   8405   8413     1  0.0000000  0.6024960  3
   8413   8405   8402   8414     1  0.0000000  4.9162000  2
   8413   8405   8402   8414     1  0.0000000  0.6024960  3
   8414   8402   8401   8415     1  0.0000000  0.6508444  3
   8414   8402   8401   8423     1  0.0000000  4.9162000  2
   8414   8402   8401   8423     1  0.0000000  0.6024960  3
   8421   8415   8401   8423     1  0.0000000  4.9162000  2
   8421   8415   8401   8423     1  0.0000000  0.6024960  3
   8424   8425   8428   8429     1  180.0000771  0.8368000  1
   8424   8425   8428   8429     1  180.0000771  1.0460000  2
   8424   8425   8428   8429     1  0.0000000  0.7531200  3
   8424   8425   8428   8436     1  0.0000000  0.6508444  3
   8424   8446   8430   8429     1  180.0000771  0.4184000  2
   8424   8446   8430   8429     1  0.0000000  1.6024720  3
   8424   8446   8430   8434     1  180.0000771  5.6484000  1
   8424   8446   8430   8434     1  180.0000771  3.5564000  2
   8424   8446   8430   8434     1  0.0000000  0.4184000  3
   8425   8424   8438   8444     1  0.0000000  0.6508444  3
   8425   8424   8446   8430     1  180.0000771  0.4184000  2
   8425   8424   8446   8430     1  0.0000000  1.6024720  3
   8425   8428   8429   8430     1  180.0000771  0.8368000  1
   8425   8428   8429   8430     1  180.0000771  1.0460000  2
   8425   8428   8429   8430     1  0.0000000  0.7531200  3
   8425   8428   8429   8435     1  0.0000000  0.6508444  3
   8428   8425   8424   8438     1  180.0000771  0.8368000  1
   8428   8425   8424   8438     1  180.0000771  1.0460000  2
   8428   8425   8424   8438     1  0.0000000  0.7531200  3
   8428   8425   8424   8446     1  0.0000000  0.6508444  3
   8428   8429   8430   8434     1  0.0000000  0.6508444  3
   8428   8429   8430   8446     1  0.0000000  0.6508444  3
   8429   8428   8425   8437     1  0.0000000  0.6508444  3
   8430   8429   8428   8436     1  0.0000000  0.6508444  3
   8430   8446   8424   8438     1  180.0000771  0.4184000  2
   8430   8446   8424   8438     1  0.0000000  1.6024720  3
   8434   8430   8429   8435     1  0.0000000  4.9162000  2
   8434   8430   8429   8435     1  0.0000000  0.6024960  3
   8435   8429   8428   8436     1  0.0000000  4.9162000  2
   8435   8429   8428   8436     1  0.0000000  0.6024960  3
   8435   8429   8430   8446     1  0.0000000  4.9162000  2
   8435   8429   8430   8446     1  0.0000000  0.6024960  3
   8436   8428   8425   8437     1  0.0000000  4.9162000  2
   8436   8428   8425   8437     1  0.0000000  0.6024960  3
   8437   8425   8424   8438     1  0.0000000  0.6508444  3
   8437   8425   8424   8446     1  0.0000000  4.9162000  2
   8437   8425   8424   8446     1  0.0000000  0.6024960  3
   8444   8438   8424   8446     1  0.0000000  4.9162000  2
   8444   8438   8424   8446     1  0.0000000  0.6024960  3
   8447   8448   8451   8452     1  180.0000771  0.8368000  1
   8447   8448   8451   8452     1  180.0000771  1.0460000  2
   8447   8448   8451   8452     1  0.0000000  0.7531200  3
   8447   8448   8451   8459     1  0.0000000  0.6508444  3
   8447   8469   8453   8457     1  180.0000771  5.6484000  1
   8447   8469   8453   8457     1  180.0000771  3.5564000  2
   8447   8469   8453   8457     1  0.0000000  0.4184000  3
   8447   8469   8453   8452     1  180.0000771  0.4184000  2
   8447   8469   8453   8452     1  0.0000000  1.6024720  3
   8448   8451   8452   8453     1  180.0000771  0.8368000  1
   8448   8451   8452   8453     1  180.0000771  1.0460000  2
   8448   8451   8452   8453     1  0.0000000  0.7531200  3
   8448   8451   8452   8458     1  0.0000000  0.6508444  3
   8448   8447   8461   8467     1  0.0000000  0.6508444  3
   8448   8447   8469   8453     1  180.0000771  0.4184000  2
   8448   8447   8469   8453     1  0.0000000  1.6024720  3
   8451   8452   8453   8457     1  0.0000000  0.6508444  3
   8451   8452   8453   8469     1  0.0000000  0.6508444  3
   8451   8448   8447   8461     1  180.0000771  0.8368000  1
   8451   8448   8447   8461     1  180.0000771  1.0460000  2
   8451   8448   8447   8461     1  0.0000000  0.7531200  3
   8451   8448   8447   8469     1  0.0000000  0.6508444  3
   8452   8451   8448   8460     1  0.0000000  0.6508444  3
   8453   8469   8447   8461     1  180.0000771  0.4184000  2
   8453   8469   8447   8461     1  0.0000000  1.6024720  3
   8453   8452   8451   8459     1  0.0000000  0.6508444  3
   8457   8453   8452   8458     1  0.0000000  4.9162000  2
   8457   8453   8452   8458     1  0.0000000  0.6024960  3
   8458   8452   8453   8469     1  0.0000000  4.9162000  2
   8458   8452   8453   8469     1  0.0000000  0.6024960  3
   8458   8452   8451   8459     1  0.0000000  4.9162000  2
   8458   8452   8451   8459     1  0.0000000  0.6024960  3
   8459   8451   8448   8460     1  0.0000000  4.9162000  2
   8459   8451   8448   8460     1  0.0000000  0.6024960  3
   8460   8448   8447   8461     1  0.0000000  0.6508444  3
   8460   8448   8447   8469     1  0.0000000  4.9162000  2
   8460   8448   8447   8469     1  0.0000000  0.6024960  3
   8467   8461   8447   8469     1  0.0000000  4.9162000  2
   8467   8461   8447   8469     1  0.0000000  0.6024960  3
   8470   8471   8474   8475     1  180.0000771  0.8368000  1
   8470   8471   8474   8475     1  180.0000771  1.0460000  2
   8470   8471   8474   8475     1  0.0000000  0.7531200  3
   8470   8471   8474   8482     1  0.0000000  0.6508444  3
   8470   8492   8476   8475     1  180.0000771  0.4184000  2
   8470   8492   8476   8475     1  0.0000000  1.6024720  3
   8470   8492   8476   8480     1  180.0000771  5.6484000  1
   8470   8492   8476   8480     1  180.0000771  3.5564000  2
   8470   8492   8476   8480     1  0.0000000  0.4184000  3
   8471   8470   8484   8490     1  0.0000000  0.6508444  3
   8471   8470   8492   8476     1  180.0000771  0.4184000  2
   8471   8470   8492   8476     1  0.0000000  1.6024720  3
   8471   8474   8475   8476     1  180.0000771  0.8368000  1
   8471   8474   8475   8476     1  180.0000771  1.0460000  2
   8471   8474   8475   8476     1  0.0000000  0.7531200  3
   8471   8474   8475   8481     1  0.0000000  0.6508444  3
   8474   8471   8470   8484     1  180.0000771  0.8368000  1
   8474   8471   8470   8484     1  180.0000771  1.0460000  2
   8474   8471   8470   8484     1  0.0000000  0.7531200  3
   8474   8471   8470   8492     1  0.0000000  0.6508444  3
   8474   8475   8476   8480     1  0.0000000  0.6508444  3
   8474   8475   8476   8492     1  0.0000000  0.6508444  3
   8475   8474   8471   8483     1  0.0000000  0.6508444  3
   8476   8475   8474   8482     1  0.0000000  0.6508444  3
   8476   8492   8470   8484     1  180.0000771  0.4184000  2
   8476   8492   8470   8484     1  0.0000000  1.6024720  3
   8480   8476   8475   8481     1  0.0000000  4.9162000  2
   8480   8476   8475   8481     1  0.0000000  0.6024960  3
   8481   8475   8474   8482     1  0.0000000  4.9162000  2
   8481   8475   8474   8482     1  0.0000000  0.6024960  3
   8481   8475   8476   8492     1  0.0000000  4.9162000  2
   8481   8475   8476   8492     1  0.0000000  0.6024960  3
   8482   8474   8471   8483     1  0.0000000  4.9162000  2
   8482   8474   8471   8483     1  0.0000000  0.6024960  3
   8483   8471   8470   8484     1  0.0000000  0.6508444  3
   8483   8471   8470   8492     1  0.0000000  4.9162000  2
   8483   8471   8470   8492     1  0.0000000  0.6024960  3
   8490   8484   8470   8492     1  0.0000000  4.9162000  2
   8490   8484   8470   8492     1  0.0000000  0.6024960  3
   8493   8494   8497   8498     1  180.0000771  0.8368000  1
   8493   8494   8497   8498     1  180.0000771  1.0460000  2
   8493   8494   8497   8498     1  0.0000000  0.7531200  3
   8493   8494   8497   8505     1  0.0000000  0.6508444  3
   8493   8515   8499   8503     1  180.0000771  5.6484000  1
   8493   8515   8499   8503     1  180.0000771  3.5564000  2
   8493   8515   8499   8503     1  0.0000000  0.4184000  3
   8493   8515   8499   8498     1  180.0000771  0.4184000  2
   8493   8515   8499   8498     1  0.0000000  1.6024720  3
   8494   8497   8498   8499     1  180.0000771  0.8368000  1
   8494   8497   8498   8499     1  180.0000771  1.0460000  2
   8494   8497   8498   8499     1  0.0000000  0.7531200  3
   8494   8497   8498   8504     1  0.0000000  0.6508444  3
   8494   8493   8507   8513     1  0.0000000  0.6508444  3
   8494   8493   8515   8499     1  180.0000771  0.4184000  2
   8494   8493   8515   8499     1  0.0000000  1.6024720  3
   8497   8498   8499   8503     1  0.0000000  0.6508444  3
   8497   8498   8499   8515     1  0.0000000  0.6508444  3
   8497   8494   8493   8507     1  180.0000771  0.8368000  1
   8497   8494   8493   8507     1  180.0000771  1.0460000  2
   8497   8494   8493   8507     1  0.0000000  0.7531200  3
   8497   8494   8493   8515     1  0.0000000  0.6508444  3
   8498   8497   8494   8506     1  0.0000000  0.6508444  3
   8499   8515   8493   8507     1  180.0000771  0.4184000  2
   8499   8515   8493   8507     1  0.0000000  1.6024720  3
   8499   8498   8497   8505     1  0.0000000  0.6508444  3
   8503   8499   8498   8504     1  0.0000000  4.9162000  2
   8503   8499   8498   8504     1  0.0000000  0.6024960  3
   8504   8498   8499   8515     1  0.0000000  4.9162000  2
   8504   8498   8499   8515     1  0.0000000  0.6024960  3
   8504   8498   8497   8505     1  0.0000000  4.9162000  2
   8504   8498   8497   8505     1  0.0000000  0.6024960  3
   8505   8497   8494   8506     1  0.0000000  4.9162000  2
   8505   8497   8494   8506     1  0.0000000  0.6024960  3
   8506   8494   8493   8507     1  0.0000000  0.6508444  3
   8506   8494   8493   8515     1  0.0000000  4.9162000  2
   8506   8494   8493   8515     1  0.0000000  0.6024960  3
   8513   8507   8493   8515     1  0.0000000  4.9162000  2
   8513   8507   8493   8515     1  0.0000000  0.6024960  3
   8516   8517   8520   8521     1  180.0000771  0.8368000  1
   8516   8517   8520   8521     1  180.0000771  1.0460000  2
   8516   8517   8520   8521     1  0.0000000  0.7531200  3
   8516   8517   8520   8528     1  0.0000000  0.6508444  3
   8516   8538   8522   8521     1  180.0000771  0.4184000  2
   8516   8538   8522   8521     1  0.0000000  1.6024720  3
   8516   8538   8522   8526     1  180.0000771  5.6484000  1
   8516   8538   8522   8526     1  180.0000771  3.5564000  2
   8516   8538   8522   8526     1  0.0000000  0.4184000  3
   8517   8516   8530   8536     1  0.0000000  0.6508444  3
   8517   8516   8538   8522     1  180.0000771  0.4184000  2
   8517   8516   8538   8522     1  0.0000000  1.6024720  3
   8517   8520   8521   8522     1  180.0000771  0.8368000  1
   8517   8520   8521   8522     1  180.0000771  1.0460000  2
   8517   8520   8521   8522     1  0.0000000  0.7531200  3
   8517   8520   8521   8527     1  0.0000000  0.6508444  3
   8520   8517   8516   8530     1  180.0000771  0.8368000  1
   8520   8517   8516   8530     1  180.0000771  1.0460000  2
   8520   8517   8516   8530     1  0.0000000  0.7531200  3
   8520   8517   8516   8538     1  0.0000000  0.6508444  3
   8520   8521   8522   8526     1  0.0000000  0.6508444  3
   8520   8521   8522   8538     1  0.0000000  0.6508444  3
   8521   8520   8517   8529     1  0.0000000  0.6508444  3
   8522   8521   8520   8528     1  0.0000000  0.6508444  3
   8522   8538   8516   8530     1  180.0000771  0.4184000  2
   8522   8538   8516   8530     1  0.0000000  1.6024720  3
   8526   8522   8521   8527     1  0.0000000  4.9162000  2
   8526   8522   8521   8527     1  0.0000000  0.6024960  3
   8527   8521   8520   8528     1  0.0000000  4.9162000  2
   8527   8521   8520   8528     1  0.0000000  0.6024960  3
   8527   8521   8522   8538     1  0.0000000  4.9162000  2
   8527   8521   8522   8538     1  0.0000000  0.6024960  3
   8528   8520   8517   8529     1  0.0000000  4.9162000  2
   8528   8520   8517   8529     1  0.0000000  0.6024960  3
   8529   8517   8516   8530     1  0.0000000  0.6508444  3
   8529   8517   8516   8538     1  0.0000000  4.9162000  2
   8529   8517   8516   8538     1  0.0000000  0.6024960  3
   8536   8530   8516   8538     1  0.0000000  4.9162000  2
   8536   8530   8516   8538     1  0.0000000  0.6024960  3
   8539   8540   8543   8544     1  180.0000771  0.8368000  1
   8539   8540   8543   8544     1  180.0000771  1.0460000  2
   8539   8540   8543   8544     1  0.0000000  0.7531200  3
   8539   8540   8543   8551     1  0.0000000  0.6508444  3
   8539   8561   8545   8549     1  180.0000771  5.6484000  1
   8539   8561   8545   8549     1  180.0000771  3.5564000  2
   8539   8561   8545   8549     1  0.0000000  0.4184000  3
   8539   8561   8545   8544     1  180.0000771  0.4184000  2
   8539   8561   8545   8544     1  0.0000000  1.6024720  3
   8540   8543   8544   8545     1  180.0000771  0.8368000  1
   8540   8543   8544   8545     1  180.0000771  1.0460000  2
   8540   8543   8544   8545     1  0.0000000  0.7531200  3
   8540   8543   8544   8550     1  0.0000000  0.6508444  3
   8540   8539   8553   8559     1  0.0000000  0.6508444  3
   8540   8539   8561   8545     1  180.0000771  0.4184000  2
   8540   8539   8561   8545     1  0.0000000  1.6024720  3
   8543   8544   8545   8549     1  0.0000000  0.6508444  3
   8543   8544   8545   8561     1  0.0000000  0.6508444  3
   8543   8540   8539   8553     1  180.0000771  0.8368000  1
   8543   8540   8539   8553     1  180.0000771  1.0460000  2
   8543   8540   8539   8553     1  0.0000000  0.7531200  3
   8543   8540   8539   8561     1  0.0000000  0.6508444  3
   8544   8543   8540   8552     1  0.0000000  0.6508444  3
   8545   8561   8539   8553     1  180.0000771  0.4184000  2
   8545   8561   8539   8553     1  0.0000000  1.6024720  3
   8545   8544   8543   8551     1  0.0000000  0.6508444  3
   8549   8545   8544   8550     1  0.0000000  4.9162000  2
   8549   8545   8544   8550     1  0.0000000  0.6024960  3
   8550   8544   8545   8561     1  0.0000000  4.9162000  2
   8550   8544   8545   8561     1  0.0000000  0.6024960  3
   8550   8544   8543   8551     1  0.0000000  4.9162000  2
   8550   8544   8543   8551     1  0.0000000  0.6024960  3
   8551   8543   8540   8552     1  0.0000000  4.9162000  2
   8551   8543   8540   8552     1  0.0000000  0.6024960  3
   8552   8540   8539   8553     1  0.0000000  0.6508444  3
   8552   8540   8539   8561     1  0.0000000  4.9162000  2
   8552   8540   8539   8561     1  0.0000000  0.6024960  3
   8559   8553   8539   8561     1  0.0000000  4.9162000  2
   8559   8553   8539   8561     1  0.0000000  0.6024960  3
   8562   8563   8566   8567     1  180.0000771  0.8368000  1
   8562   8563   8566   8567     1  180.0000771  1.0460000  2
   8562   8563   8566   8567     1  0.0000000  0.7531200  3
   8562   8563   8566   8574     1  0.0000000  0.6508444  3
   8562   8584   8568   8567     1  180.0000771  0.4184000  2
   8562   8584   8568   8567     1  0.0000000  1.6024720  3
   8562   8584   8568   8572     1  180.0000771  5.6484000  1
   8562   8584   8568   8572     1  180.0000771  3.5564000  2
   8562   8584   8568   8572     1  0.0000000  0.4184000  3
   8563   8562   8576   8582     1  0.0000000  0.6508444  3
   8563   8562   8584   8568     1  180.0000771  0.4184000  2
   8563   8562   8584   8568     1  0.0000000  1.6024720  3
   8563   8566   8567   8568     1  180.0000771  0.8368000  1
   8563   8566   8567   8568     1  180.0000771  1.0460000  2
   8563   8566   8567   8568     1  0.0000000  0.7531200  3
   8563   8566   8567   8573     1  0.0000000  0.6508444  3
   8566   8563   8562   8576     1  180.0000771  0.8368000  1
   8566   8563   8562   8576     1  180.0000771  1.0460000  2
   8566   8563   8562   8576     1  0.0000000  0.7531200  3
   8566   8563   8562   8584     1  0.0000000  0.6508444  3
   8566   8567   8568   8572     1  0.0000000  0.6508444  3
   8566   8567   8568   8584     1  0.0000000  0.6508444  3
   8567   8566   8563   8575     1  0.0000000  0.6508444  3
   8568   8567   8566   8574     1  0.0000000  0.6508444  3
   8568   8584   8562   8576     1  180.0000771  0.4184000  2
   8568   8584   8562   8576     1  0.0000000  1.6024720  3
   8572   8568   8567   8573     1  0.0000000  4.9162000  2
   8572   8568   8567   8573     1  0.0000000  0.6024960  3
   8573   8567   8566   8574     1  0.0000000  4.9162000  2
   8573   8567   8566   8574     1  0.0000000  0.6024960  3
   8573   8567   8568   8584     1  0.0000000  4.9162000  2
   8573   8567   8568   8584     1  0.0000000  0.6024960  3
   8574   8566   8563   8575     1  0.0000000  4.9162000  2
   8574   8566   8563   8575     1  0.0000000  0.6024960  3
   8575   8563   8562   8576     1  0.0000000  0.6508444  3
   8575   8563   8562   8584     1  0.0000000  4.9162000  2
   8575   8563   8562   8584     1  0.0000000  0.6024960  3
   8582   8576   8562   8584     1  0.0000000  4.9162000  2
   8582   8576   8562   8584     1  0.0000000  0.6024960  3
   8585   8586   8589   8590     1  180.0000771  0.8368000  1
   8585   8586   8589   8590     1  180.0000771  1.0460000  2
   8585   8586   8589   8590     1  0.0000000  0.7531200  3
   8585   8586   8589   8597     1  0.0000000  0.6508444  3
   8585   8607   8591   8595     1  180.0000771  5.6484000  1
   8585   8607   8591   8595     1  180.0000771  3.5564000  2
   8585   8607   8591   8595     1  0.0000000  0.4184000  3
   8585   8607   8591   8590     1  180.0000771  0.4184000  2
   8585   8607   8591   8590     1  0.0000000  1.6024720  3
   8586   8589   8590   8591     1  180.0000771  0.8368000  1
   8586   8589   8590   8591     1  180.0000771  1.0460000  2
   8586   8589   8590   8591     1  0.0000000  0.7531200  3
   8586   8589   8590   8596     1  0.0000000  0.6508444  3
   8586   8585   8599   8605     1  0.0000000  0.6508444  3
   8586   8585   8607   8591     1  180.0000771  0.4184000  2
   8586   8585   8607   8591     1  0.0000000  1.6024720  3
   8589   8590   8591   8595     1  0.0000000  0.6508444  3
   8589   8590   8591   8607     1  0.0000000  0.6508444  3
   8589   8586   8585   8599     1  180.0000771  0.8368000  1
   8589   8586   8585   8599     1  180.0000771  1.0460000  2
   8589   8586   8585   8599     1  0.0000000  0.7531200  3
   8589   8586   8585   8607     1  0.0000000  0.6508444  3
   8590   8589   8586   8598     1  0.0000000  0.6508444  3
   8591   8607   8585   8599     1  180.0000771  0.4184000  2
   8591   8607   8585   8599     1  0.0000000  1.6024720  3
   8591   8590   8589   8597     1  0.0000000  0.6508444  3
   8595   8591   8590   8596     1  0.0000000  4.9162000  2
   8595   8591   8590   8596     1  0.0000000  0.6024960  3
   8596   8590   8591   8607     1  0.0000000  4.9162000  2
   8596   8590   8591   8607     1  0.0000000  0.6024960  3
   8596   8590   8589   8597     1  0.0000000  4.9162000  2
   8596   8590   8589   8597     1  0.0000000  0.6024960  3
   8597   8589   8586   8598     1  0.0000000  4.9162000  2
   8597   8589   8586   8598     1  0.0000000  0.6024960  3
   8598   8586   8585   8599     1  0.0000000  0.6508444  3
   8598   8586   8585   8607     1  0.0000000  4.9162000  2
   8598   8586   8585   8607     1  0.0000000  0.6024960  3
   8605   8599   8585   8607     1  0.0000000  4.9162000  2
   8605   8599   8585   8607     1  0.0000000  0.6024960  3
   8608   8609   8612   8613     1  180.0000771  0.8368000  1
   8608   8609   8612   8613     1  180.0000771  1.0460000  2
   8608   8609   8612   8613     1  0.0000000  0.7531200  3
   8608   8609   8612   8620     1  0.0000000  0.6508444  3
   8608   8630   8614   8613     1  180.0000771  0.4184000  2
   8608   8630   8614   8613     1  0.0000000  1.6024720  3
   8608   8630   8614   8618     1  180.0000771  5.6484000  1
   8608   8630   8614   8618     1  180.0000771  3.5564000  2
   8608   8630   8614   8618     1  0.0000000  0.4184000  3
   8609   8608   8622   8628     1  0.0000000  0.6508444  3
   8609   8608   8630   8614     1  180.0000771  0.4184000  2
   8609   8608   8630   8614     1  0.0000000  1.6024720  3
   8609   8612   8613   8614     1  180.0000771  0.8368000  1
   8609   8612   8613   8614     1  180.0000771  1.0460000  2
   8609   8612   8613   8614     1  0.0000000  0.7531200  3
   8609   8612   8613   8619     1  0.0000000  0.6508444  3
   8612   8609   8608   8622     1  180.0000771  0.8368000  1
   8612   8609   8608   8622     1  180.0000771  1.0460000  2
   8612   8609   8608   8622     1  0.0000000  0.7531200  3
   8612   8609   8608   8630     1  0.0000000  0.6508444  3
   8612   8613   8614   8618     1  0.0000000  0.6508444  3
   8612   8613   8614   8630     1  0.0000000  0.6508444  3
   8613   8612   8609   8621     1  0.0000000  0.6508444  3
   8614   8613   8612   8620     1  0.0000000  0.6508444  3
   8614   8630   8608   8622     1  180.0000771  0.4184000  2
   8614   8630   8608   8622     1  0.0000000  1.6024720  3
   8618   8614   8613   8619     1  0.0000000  4.9162000  2
   8618   8614   8613   8619     1  0.0000000  0.6024960  3
   8619   8613   8612   8620     1  0.0000000  4.9162000  2
   8619   8613   8612   8620     1  0.0000000  0.6024960  3
   8619   8613   8614   8630     1  0.0000000  4.9162000  2
   8619   8613   8614   8630     1  0.0000000  0.6024960  3
   8620   8612   8609   8621     1  0.0000000  4.9162000  2
   8620   8612   8609   8621     1  0.0000000  0.6024960  3
   8621   8609   8608   8622     1  0.0000000  0.6508444  3
   8621   8609   8608   8630     1  0.0000000  4.9162000  2
   8621   8609   8608   8630     1  0.0000000  0.6024960  3
   8628   8622   8608   8630     1  0.0000000  4.9162000  2
   8628   8622   8608   8630     1  0.0000000  0.6024960  3
   8631   8632   8635   8636     1  180.0000771  0.8368000  1
   8631   8632   8635   8636     1  180.0000771  1.0460000  2
   8631   8632   8635   8636     1  0.0000000  0.7531200  3
   8631   8632   8635   8643     1  0.0000000  0.6508444  3
   8631   8653   8637   8641     1  180.0000771  5.6484000  1
   8631   8653   8637   8641     1  180.0000771  3.5564000  2
   8631   8653   8637   8641     1  0.0000000  0.4184000  3
   8631   8653   8637   8636     1  180.0000771  0.4184000  2
   8631   8653   8637   8636     1  0.0000000  1.6024720  3
   8632   8635   8636   8637     1  180.0000771  0.8368000  1
   8632   8635   8636   8637     1  180.0000771  1.0460000  2
   8632   8635   8636   8637     1  0.0000000  0.7531200  3
   8632   8635   8636   8642     1  0.0000000  0.6508444  3
   8632   8631   8645   8651     1  0.0000000  0.6508444  3
   8632   8631   8653   8637     1  180.0000771  0.4184000  2
   8632   8631   8653   8637     1  0.0000000  1.6024720  3
   8635   8636   8637   8641     1  0.0000000  0.6508444  3
   8635   8636   8637   8653     1  0.0000000  0.6508444  3
   8635   8632   8631   8645     1  180.0000771  0.8368000  1
   8635   8632   8631   8645     1  180.0000771  1.0460000  2
   8635   8632   8631   8645     1  0.0000000  0.7531200  3
   8635   8632   8631   8653     1  0.0000000  0.6508444  3
   8636   8635   8632   8644     1  0.0000000  0.6508444  3
   8637   8653   8631   8645     1  180.0000771  0.4184000  2
   8637   8653   8631   8645     1  0.0000000  1.6024720  3
   8637   8636   8635   8643     1  0.0000000  0.6508444  3
   8641   8637   8636   8642     1  0.0000000  4.9162000  2
   8641   8637   8636   8642     1  0.0000000  0.6024960  3
   8642   8636   8637   8653     1  0.0000000  4.9162000  2
   8642   8636   8637   8653     1  0.0000000  0.6024960  3
   8642   8636   8635   8643     1  0.0000000  4.9162000  2
   8642   8636   8635   8643     1  0.0000000  0.6024960  3
   8643   8635   8632   8644     1  0.0000000  4.9162000  2
   8643   8635   8632   8644     1  0.0000000  0.6024960  3
   8644   8632   8631   8645     1  0.0000000  0.6508444  3
   8644   8632   8631   8653     1  0.0000000  4.9162000  2
   8644   8632   8631   8653     1  0.0000000  0.6024960  3
   8651   8645   8631   8653     1  0.0000000  4.9162000  2
   8651   8645   8631   8653     1  0.0000000  0.6024960  3
   8654   8655   8658   8659     1  180.0000771  0.8368000  1
   8654   8655   8658   8659     1  180.0000771  1.0460000  2
   8654   8655   8658   8659     1  0.0000000  0.7531200  3
   8654   8655   8658   8666     1  0.0000000  0.6508444  3
   8654   8676   8660   8659     1  180.0000771  0.4184000  2
   8654   8676   8660   8659     1  0.0000000  1.6024720  3
   8654   8676   8660   8664     1  180.0000771  5.6484000  1
   8654   8676   8660   8664     1  180.0000771  3.5564000  2
   8654   8676   8660   8664     1  0.0000000  0.4184000  3
   8655   8654   8668   8674     1  0.0000000  0.6508444  3
   8655   8654   8676   8660     1  180.0000771  0.4184000  2
   8655   8654   8676   8660     1  0.0000000  1.6024720  3
   8655   8658   8659   8660     1  180.0000771  0.8368000  1
   8655   8658   8659   8660     1  180.0000771  1.0460000  2
   8655   8658   8659   8660     1  0.0000000  0.7531200  3
   8655   8658   8659   8665     1  0.0000000  0.6508444  3
   8658   8655   8654   8668     1  180.0000771  0.8368000  1
   8658   8655   8654   8668     1  180.0000771  1.0460000  2
   8658   8655   8654   8668     1  0.0000000  0.7531200  3
   8658   8655   8654   8676     1  0.0000000  0.6508444  3
   8658   8659   8660   8664     1  0.0000000  0.6508444  3
   8658   8659   8660   8676     1  0.0000000  0.6508444  3
   8659   8658   8655   8667     1  0.0000000  0.6508444  3
   8660   8659   8658   8666     1  0.0000000  0.6508444  3
   8660   8676   8654   8668     1  180.0000771  0.4184000  2
   8660   8676   8654   8668     1  0.0000000  1.6024720  3
   8664   8660   8659   8665     1  0.0000000  4.9162000  2
   8664   8660   8659   8665     1  0.0000000  0.6024960  3
   8665   8659   8658   8666     1  0.0000000  4.9162000  2
   8665   8659   8658   8666     1  0.0000000  0.6024960  3
   8665   8659   8660   8676     1  0.0000000  4.9162000  2
   8665   8659   8660   8676     1  0.0000000  0.6024960  3
   8666   8658   8655   8667     1  0.0000000  4.9162000  2
   8666   8658   8655   8667     1  0.0000000  0.6024960  3
   8667   8655   8654   8668     1  0.0000000  0.6508444  3
   8667   8655   8654   8676     1  0.0000000  4.9162000  2
   8667   8655   8654   8676     1  0.0000000  0.6024960  3
   8674   8668   8654   8676     1  0.0000000  4.9162000  2
   8674   8668   8654   8676     1  0.0000000  0.6024960  3
   8677   8678   8681   8682     1  180.0000771  0.8368000  1
   8677   8678   8681   8682     1  180.0000771  1.0460000  2
   8677   8678   8681   8682     1  0.0000000  0.7531200  3
   8677   8678   8681   8689     1  0.0000000  0.6508444  3
   8677   8699   8683   8687     1  180.0000771  5.6484000  1
   8677   8699   8683   8687     1  180.0000771  3.5564000  2
   8677   8699   8683   8687     1  0.0000000  0.4184000  3
   8677   8699   8683   8682     1  180.0000771  0.4184000  2
   8677   8699   8683   8682     1  0.0000000  1.6024720  3
   8678   8681   8682   8683     1  180.0000771  0.8368000  1
   8678   8681   8682   8683     1  180.0000771  1.0460000  2
   8678   8681   8682   8683     1  0.0000000  0.7531200  3
   8678   8681   8682   8688     1  0.0000000  0.6508444  3
   8678   8677   8691   8697     1  0.0000000  0.6508444  3
   8678   8677   8699   8683     1  180.0000771  0.4184000  2
   8678   8677   8699   8683     1  0.0000000  1.6024720  3
   8681   8682   8683   8687     1  0.0000000  0.6508444  3
   8681   8682   8683   8699     1  0.0000000  0.6508444  3
   8681   8678   8677   8691     1  180.0000771  0.8368000  1
   8681   8678   8677   8691     1  180.0000771  1.0460000  2
   8681   8678   8677   8691     1  0.0000000  0.7531200  3
   8681   8678   8677   8699     1  0.0000000  0.6508444  3
   8682   8681   8678   8690     1  0.0000000  0.6508444  3
   8683   8699   8677   8691     1  180.0000771  0.4184000  2
   8683   8699   8677   8691     1  0.0000000  1.6024720  3
   8683   8682   8681   8689     1  0.0000000  0.6508444  3
   8687   8683   8682   8688     1  0.0000000  4.9162000  2
   8687   8683   8682   8688     1  0.0000000  0.6024960  3
   8688   8682   8683   8699     1  0.0000000  4.9162000  2
   8688   8682   8683   8699     1  0.0000000  0.6024960  3
   8688   8682   8681   8689     1  0.0000000  4.9162000  2
   8688   8682   8681   8689     1  0.0000000  0.6024960  3
   8689   8681   8678   8690     1  0.0000000  4.9162000  2
   8689   8681   8678   8690     1  0.0000000  0.6024960  3
   8690   8678   8677   8691     1  0.0000000  0.6508444  3
   8690   8678   8677   8699     1  0.0000000  4.9162000  2
   8690   8678   8677   8699     1  0.0000000  0.6024960  3
   8697   8691   8677   8699     1  0.0000000  4.9162000  2
   8697   8691   8677   8699     1  0.0000000  0.6024960  3
   8700   8701   8704   8705     1  180.0000771  0.8368000  1
   8700   8701   8704   8705     1  180.0000771  1.0460000  2
   8700   8701   8704   8705     1  0.0000000  0.7531200  3
   8700   8701   8704   8712     1  0.0000000  0.6508444  3
   8700   8722   8706   8705     1  180.0000771  0.4184000  2
   8700   8722   8706   8705     1  0.0000000  1.6024720  3
   8700   8722   8706   8710     1  180.0000771  5.6484000  1
   8700   8722   8706   8710     1  180.0000771  3.5564000  2
   8700   8722   8706   8710     1  0.0000000  0.4184000  3
   8701   8700   8714   8720     1  0.0000000  0.6508444  3
   8701   8700   8722   8706     1  180.0000771  0.4184000  2
   8701   8700   8722   8706     1  0.0000000  1.6024720  3
   8701   8704   8705   8706     1  180.0000771  0.8368000  1
   8701   8704   8705   8706     1  180.0000771  1.0460000  2
   8701   8704   8705   8706     1  0.0000000  0.7531200  3
   8701   8704   8705   8711     1  0.0000000  0.6508444  3
   8704   8701   8700   8714     1  180.0000771  0.8368000  1
   8704   8701   8700   8714     1  180.0000771  1.0460000  2
   8704   8701   8700   8714     1  0.0000000  0.7531200  3
   8704   8701   8700   8722     1  0.0000000  0.6508444  3
   8704   8705   8706   8710     1  0.0000000  0.6508444  3
   8704   8705   8706   8722     1  0.0000000  0.6508444  3
   8705   8704   8701   8713     1  0.0000000  0.6508444  3
   8706   8705   8704   8712     1  0.0000000  0.6508444  3
   8706   8722   8700   8714     1  180.0000771  0.4184000  2
   8706   8722   8700   8714     1  0.0000000  1.6024720  3
   8710   8706   8705   8711     1  0.0000000  4.9162000  2
   8710   8706   8705   8711     1  0.0000000  0.6024960  3
   8711   8705   8704   8712     1  0.0000000  4.9162000  2
   8711   8705   8704   8712     1  0.0000000  0.6024960  3
   8711   8705   8706   8722     1  0.0000000  4.9162000  2
   8711   8705   8706   8722     1  0.0000000  0.6024960  3
   8712   8704   8701   8713     1  0.0000000  4.9162000  2
   8712   8704   8701   8713     1  0.0000000  0.6024960  3
   8713   8701   8700   8714     1  0.0000000  0.6508444  3
   8713   8701   8700   8722     1  0.0000000  4.9162000  2
   8713   8701   8700   8722     1  0.0000000  0.6024960  3
   8720   8714   8700   8722     1  0.0000000  4.9162000  2
   8720   8714   8700   8722     1  0.0000000  0.6024960  3
   8723   8724   8727   8728     1  180.0000771  0.8368000  1
   8723   8724   8727   8728     1  180.0000771  1.0460000  2
   8723   8724   8727   8728     1  0.0000000  0.7531200  3
   8723   8724   8727   8735     1  0.0000000  0.6508444  3
   8723   8745   8729   8733     1  180.0000771  5.6484000  1
   8723   8745   8729   8733     1  180.0000771  3.5564000  2
   8723   8745   8729   8733     1  0.0000000  0.4184000  3
   8723   8745   8729   8728     1  180.0000771  0.4184000  2
   8723   8745   8729   8728     1  0.0000000  1.6024720  3
   8724   8727   8728   8729     1  180.0000771  0.8368000  1
   8724   8727   8728   8729     1  180.0000771  1.0460000  2
   8724   8727   8728   8729     1  0.0000000  0.7531200  3
   8724   8727   8728   8734     1  0.0000000  0.6508444  3
   8724   8723   8737   8743     1  0.0000000  0.6508444  3
   8724   8723   8745   8729     1  180.0000771  0.4184000  2
   8724   8723   8745   8729     1  0.0000000  1.6024720  3
   8727   8728   8729   8733     1  0.0000000  0.6508444  3
   8727   8728   8729   8745     1  0.0000000  0.6508444  3
   8727   8724   8723   8737     1  180.0000771  0.8368000  1
   8727   8724   8723   8737     1  180.0000771  1.0460000  2
   8727   8724   8723   8737     1  0.0000000  0.7531200  3
   8727   8724   8723   8745     1  0.0000000  0.6508444  3
   8728   8727   8724   8736     1  0.0000000  0.6508444  3
   8729   8745   8723   8737     1  180.0000771  0.4184000  2
   8729   8745   8723   8737     1  0.0000000  1.6024720  3
   8729   8728   8727   8735     1  0.0000000  0.6508444  3
   8733   8729   8728   8734     1  0.0000000  4.9162000  2
   8733   8729   8728   8734     1  0.0000000  0.6024960  3
   8734   8728   8729   8745     1  0.0000000  4.9162000  2
   8734   8728   8729   8745     1  0.0000000  0.6024960  3
   8734   8728   8727   8735     1  0.0000000  4.9162000  2
   8734   8728   8727   8735     1  0.0000000  0.6024960  3
   8735   8727   8724   8736     1  0.0000000  4.9162000  2
   8735   8727   8724   8736     1  0.0000000  0.6024960  3
   8736   8724   8723   8737     1  0.0000000  0.6508444  3
   8736   8724   8723   8745     1  0.0000000  4.9162000  2
   8736   8724   8723   8745     1  0.0000000  0.6024960  3
   8743   8737   8723   8745     1  0.0000000  4.9162000  2
   8743   8737   8723   8745     1  0.0000000  0.6024960  3
   8746   8747   8750   8751     1  180.0000771  0.8368000  1
   8746   8747   8750   8751     1  180.0000771  1.0460000  2
   8746   8747   8750   8751     1  0.0000000  0.7531200  3
   8746   8747   8750   8758     1  0.0000000  0.6508444  3
   8746   8768   8752   8751     1  180.0000771  0.4184000  2
   8746   8768   8752   8751     1  0.0000000  1.6024720  3
   8746   8768   8752   8756     1  180.0000771  5.6484000  1
   8746   8768   8752   8756     1  180.0000771  3.5564000  2
   8746   8768   8752   8756     1  0.0000000  0.4184000  3
   8747   8746   8760   8766     1  0.0000000  0.6508444  3
   8747   8746   8768   8752     1  180.0000771  0.4184000  2
   8747   8746   8768   8752     1  0.0000000  1.6024720  3
   8747   8750   8751   8752     1  180.0000771  0.8368000  1
   8747   8750   8751   8752     1  180.0000771  1.0460000  2
   8747   8750   8751   8752     1  0.0000000  0.7531200  3
   8747   8750   8751   8757     1  0.0000000  0.6508444  3
   8750   8747   8746   8760     1  180.0000771  0.8368000  1
   8750   8747   8746   8760     1  180.0000771  1.0460000  2
   8750   8747   8746   8760     1  0.0000000  0.7531200  3
   8750   8747   8746   8768     1  0.0000000  0.6508444  3
   8750   8751   8752   8756     1  0.0000000  0.6508444  3
   8750   8751   8752   8768     1  0.0000000  0.6508444  3
   8751   8750   8747   8759     1  0.0000000  0.6508444  3
   8752   8751   8750   8758     1  0.0000000  0.6508444  3
   8752   8768   8746   8760     1  180.0000771  0.4184000  2
   8752   8768   8746   8760     1  0.0000000  1.6024720  3
   8756   8752   8751   8757     1  0.0000000  4.9162000  2
   8756   8752   8751   8757     1  0.0000000  0.6024960  3
   8757   8751   8750   8758     1  0.0000000  4.9162000  2
   8757   8751   8750   8758     1  0.0000000  0.6024960  3
   8757   8751   8752   8768     1  0.0000000  4.9162000  2
   8757   8751   8752   8768     1  0.0000000  0.6024960  3
   8758   8750   8747   8759     1  0.0000000  4.9162000  2
   8758   8750   8747   8759     1  0.0000000  0.6024960  3
   8759   8747   8746   8760     1  0.0000000  0.6508444  3
   8759   8747   8746   8768     1  0.0000000  4.9162000  2
   8759   8747   8746   8768     1  0.0000000  0.6024960  3
   8766   8760   8746   8768     1  0.0000000  4.9162000  2
   8766   8760   8746   8768     1  0.0000000  0.6024960  3
   8769   8770   8773   8774     1  180.0000771  0.8368000  1
   8769   8770   8773   8774     1  180.0000771  1.0460000  2
   8769   8770   8773   8774     1  0.0000000  0.7531200  3
   8769   8770   8773   8781     1  0.0000000  0.6508444  3
   8769   8791   8775   8779     1  180.0000771  5.6484000  1
   8769   8791   8775   8779     1  180.0000771  3.5564000  2
   8769   8791   8775   8779     1  0.0000000  0.4184000  3
   8769   8791   8775   8774     1  180.0000771  0.4184000  2
   8769   8791   8775   8774     1  0.0000000  1.6024720  3
   8770   8773   8774   8775     1  180.0000771  0.8368000  1
   8770   8773   8774   8775     1  180.0000771  1.0460000  2
   8770   8773   8774   8775     1  0.0000000  0.7531200  3
   8770   8773   8774   8780     1  0.0000000  0.6508444  3
   8770   8769   8783   8789     1  0.0000000  0.6508444  3
   8770   8769   8791   8775     1  180.0000771  0.4184000  2
   8770   8769   8791   8775     1  0.0000000  1.6024720  3
   8773   8774   8775   8779     1  0.0000000  0.6508444  3
   8773   8774   8775   8791     1  0.0000000  0.6508444  3
   8773   8770   8769   8783     1  180.0000771  0.8368000  1
   8773   8770   8769   8783     1  180.0000771  1.0460000  2
   8773   8770   8769   8783     1  0.0000000  0.7531200  3
   8773   8770   8769   8791     1  0.0000000  0.6508444  3
   8774   8773   8770   8782     1  0.0000000  0.6508444  3
   8775   8791   8769   8783     1  180.0000771  0.4184000  2
   8775   8791   8769   8783     1  0.0000000  1.6024720  3
   8775   8774   8773   8781     1  0.0000000  0.6508444  3
   8779   8775   8774   8780     1  0.0000000  4.9162000  2
   8779   8775   8774   8780     1  0.0000000  0.6024960  3
   8780   8774   8775   8791     1  0.0000000  4.9162000  2
   8780   8774   8775   8791     1  0.0000000  0.6024960  3
   8780   8774   8773   8781     1  0.0000000  4.9162000  2
   8780   8774   8773   8781     1  0.0000000  0.6024960  3
   8781   8773   8770   8782     1  0.0000000  4.9162000  2
   8781   8773   8770   8782     1  0.0000000  0.6024960  3
   8782   8770   8769   8783     1  0.0000000  0.6508444  3
   8782   8770   8769   8791     1  0.0000000  4.9162000  2
   8782   8770   8769   8791     1  0.0000000  0.6024960  3
   8789   8783   8769   8791     1  0.0000000  4.9162000  2
   8789   8783   8769   8791     1  0.0000000  0.6024960  3
   8792   8793   8796   8797     1  180.0000771  0.8368000  1
   8792   8793   8796   8797     1  180.0000771  1.0460000  2
   8792   8793   8796   8797     1  0.0000000  0.7531200  3
   8792   8793   8796   8804     1  0.0000000  0.6508444  3
   8792   8814   8798   8797     1  180.0000771  0.4184000  2
   8792   8814   8798   8797     1  0.0000000  1.6024720  3
   8792   8814   8798   8802     1  180.0000771  5.6484000  1
   8792   8814   8798   8802     1  180.0000771  3.5564000  2
   8792   8814   8798   8802     1  0.0000000  0.4184000  3
   8793   8792   8806   8812     1  0.0000000  0.6508444  3
   8793   8792   8814   8798     1  180.0000771  0.4184000  2
   8793   8792   8814   8798     1  0.0000000  1.6024720  3
   8793   8796   8797   8798     1  180.0000771  0.8368000  1
   8793   8796   8797   8798     1  180.0000771  1.0460000  2
   8793   8796   8797   8798     1  0.0000000  0.7531200  3
   8793   8796   8797   8803     1  0.0000000  0.6508444  3
   8796   8793   8792   8806     1  180.0000771  0.8368000  1
   8796   8793   8792   8806     1  180.0000771  1.0460000  2
   8796   8793   8792   8806     1  0.0000000  0.7531200  3
   8796   8793   8792   8814     1  0.0000000  0.6508444  3
   8796   8797   8798   8802     1  0.0000000  0.6508444  3
   8796   8797   8798   8814     1  0.0000000  0.6508444  3
   8797   8796   8793   8805     1  0.0000000  0.6508444  3
   8798   8797   8796   8804     1  0.0000000  0.6508444  3
   8798   8814   8792   8806     1  180.0000771  0.4184000  2
   8798   8814   8792   8806     1  0.0000000  1.6024720  3
   8802   8798   8797   8803     1  0.0000000  4.9162000  2
   8802   8798   8797   8803     1  0.0000000  0.6024960  3
   8803   8797   8796   8804     1  0.0000000  4.9162000  2
   8803   8797   8796   8804     1  0.0000000  0.6024960  3
   8803   8797   8798   8814     1  0.0000000  4.9162000  2
   8803   8797   8798   8814     1  0.0000000  0.6024960  3
   8804   8796   8793   8805     1  0.0000000  4.9162000  2
   8804   8796   8793   8805     1  0.0000000  0.6024960  3
   8805   8793   8792   8806     1  0.0000000  0.6508444  3
   8805   8793   8792   8814     1  0.0000000  4.9162000  2
   8805   8793   8792   8814     1  0.0000000  0.6024960  3
   8812   8806   8792   8814     1  0.0000000  4.9162000  2
   8812   8806   8792   8814     1  0.0000000  0.6024960  3
   8815   8816   8819   8820     1  180.0000771  0.8368000  1
   8815   8816   8819   8820     1  180.0000771  1.0460000  2
   8815   8816   8819   8820     1  0.0000000  0.7531200  3
   8815   8816   8819   8827     1  0.0000000  0.6508444  3
   8815   8837   8821   8825     1  180.0000771  5.6484000  1
   8815   8837   8821   8825     1  180.0000771  3.5564000  2
   8815   8837   8821   8825     1  0.0000000  0.4184000  3
   8815   8837   8821   8820     1  180.0000771  0.4184000  2
   8815   8837   8821   8820     1  0.0000000  1.6024720  3
   8816   8819   8820   8821     1  180.0000771  0.8368000  1
   8816   8819   8820   8821     1  180.0000771  1.0460000  2
   8816   8819   8820   8821     1  0.0000000  0.7531200  3
   8816   8819   8820   8826     1  0.0000000  0.6508444  3
   8816   8815   8829   8835     1  0.0000000  0.6508444  3
   8816   8815   8837   8821     1  180.0000771  0.4184000  2
   8816   8815   8837   8821     1  0.0000000  1.6024720  3
   8819   8820   8821   8825     1  0.0000000  0.6508444  3
   8819   8820   8821   8837     1  0.0000000  0.6508444  3
   8819   8816   8815   8829     1  180.0000771  0.8368000  1
   8819   8816   8815   8829     1  180.0000771  1.0460000  2
   8819   8816   8815   8829     1  0.0000000  0.7531200  3
   8819   8816   8815   8837     1  0.0000000  0.6508444  3
   8820   8819   8816   8828     1  0.0000000  0.6508444  3
   8821   8837   8815   8829     1  180.0000771  0.4184000  2
   8821   8837   8815   8829     1  0.0000000  1.6024720  3
   8821   8820   8819   8827     1  0.0000000  0.6508444  3
   8825   8821   8820   8826     1  0.0000000  4.9162000  2
   8825   8821   8820   8826     1  0.0000000  0.6024960  3
   8826   8820   8821   8837     1  0.0000000  4.9162000  2
   8826   8820   8821   8837     1  0.0000000  0.6024960  3
   8826   8820   8819   8827     1  0.0000000  4.9162000  2
   8826   8820   8819   8827     1  0.0000000  0.6024960  3
   8827   8819   8816   8828     1  0.0000000  4.9162000  2
   8827   8819   8816   8828     1  0.0000000  0.6024960  3
   8828   8816   8815   8829     1  0.0000000  0.6508444  3
   8828   8816   8815   8837     1  0.0000000  4.9162000  2
   8828   8816   8815   8837     1  0.0000000  0.6024960  3
   8835   8829   8815   8837     1  0.0000000  4.9162000  2
   8835   8829   8815   8837     1  0.0000000  0.6024960  3
   8838   8839   8842   8843     1  180.0000771  0.8368000  1
   8838   8839   8842   8843     1  180.0000771  1.0460000  2
   8838   8839   8842   8843     1  0.0000000  0.7531200  3
   8838   8839   8842   8850     1  0.0000000  0.6508444  3
   8838   8860   8844   8843     1  180.0000771  0.4184000  2
   8838   8860   8844   8843     1  0.0000000  1.6024720  3
   8838   8860   8844   8848     1  180.0000771  5.6484000  1
   8838   8860   8844   8848     1  180.0000771  3.5564000  2
   8838   8860   8844   8848     1  0.0000000  0.4184000  3
   8839   8838   8852   8858     1  0.0000000  0.6508444  3
   8839   8838   8860   8844     1  180.0000771  0.4184000  2
   8839   8838   8860   8844     1  0.0000000  1.6024720  3
   8839   8842   8843   8844     1  180.0000771  0.8368000  1
   8839   8842   8843   8844     1  180.0000771  1.0460000  2
   8839   8842   8843   8844     1  0.0000000  0.7531200  3
   8839   8842   8843   8849     1  0.0000000  0.6508444  3
   8842   8839   8838   8852     1  180.0000771  0.8368000  1
   8842   8839   8838   8852     1  180.0000771  1.0460000  2
   8842   8839   8838   8852     1  0.0000000  0.7531200  3
   8842   8839   8838   8860     1  0.0000000  0.6508444  3
   8842   8843   8844   8848     1  0.0000000  0.6508444  3
   8842   8843   8844   8860     1  0.0000000  0.6508444  3
   8843   8842   8839   8851     1  0.0000000  0.6508444  3
   8844   8843   8842   8850     1  0.0000000  0.6508444  3
   8844   8860   8838   8852     1  180.0000771  0.4184000  2
   8844   8860   8838   8852     1  0.0000000  1.6024720  3
   8848   8844   8843   8849     1  0.0000000  4.9162000  2
   8848   8844   8843   8849     1  0.0000000  0.6024960  3
   8849   8843   8842   8850     1  0.0000000  4.9162000  2
   8849   8843   8842   8850     1  0.0000000  0.6024960  3
   8849   8843   8844   8860     1  0.0000000  4.9162000  2
   8849   8843   8844   8860     1  0.0000000  0.6024960  3
   8850   8842   8839   8851     1  0.0000000  4.9162000  2
   8850   8842   8839   8851     1  0.0000000  0.6024960  3
   8851   8839   8838   8852     1  0.0000000  0.6508444  3
   8851   8839   8838   8860     1  0.0000000  4.9162000  2
   8851   8839   8838   8860     1  0.0000000  0.6024960  3
   8858   8852   8838   8860     1  0.0000000  4.9162000  2
   8858   8852   8838   8860     1  0.0000000  0.6024960  3
   8861   8862   8865   8866     1  180.0000771  0.8368000  1
   8861   8862   8865   8866     1  180.0000771  1.0460000  2
   8861   8862   8865   8866     1  0.0000000  0.7531200  3
   8861   8862   8865   8873     1  0.0000000  0.6508444  3
   8861   8883   8867   8871     1  180.0000771  5.6484000  1
   8861   8883   8867   8871     1  180.0000771  3.5564000  2
   8861   8883   8867   8871     1  0.0000000  0.4184000  3
   8861   8883   8867   8866     1  180.0000771  0.4184000  2
   8861   8883   8867   8866     1  0.0000000  1.6024720  3
   8862   8865   8866   8867     1  180.0000771  0.8368000  1
   8862   8865   8866   8867     1  180.0000771  1.0460000  2
   8862   8865   8866   8867     1  0.0000000  0.7531200  3
   8862   8865   8866   8872     1  0.0000000  0.6508444  3
   8862   8861   8875   8881     1  0.0000000  0.6508444  3
   8862   8861   8883   8867     1  180.0000771  0.4184000  2
   8862   8861   8883   8867     1  0.0000000  1.6024720  3
   8865   8866   8867   8871     1  0.0000000  0.6508444  3
   8865   8866   8867   8883     1  0.0000000  0.6508444  3
   8865   8862   8861   8875     1  180.0000771  0.8368000  1
   8865   8862   8861   8875     1  180.0000771  1.0460000  2
   8865   8862   8861   8875     1  0.0000000  0.7531200  3
   8865   8862   8861   8883     1  0.0000000  0.6508444  3
   8866   8865   8862   8874     1  0.0000000  0.6508444  3
   8867   8883   8861   8875     1  180.0000771  0.4184000  2
   8867   8883   8861   8875     1  0.0000000  1.6024720  3
   8867   8866   8865   8873     1  0.0000000  0.6508444  3
   8871   8867   8866   8872     1  0.0000000  4.9162000  2
   8871   8867   8866   8872     1  0.0000000  0.6024960  3
   8872   8866   8867   8883     1  0.0000000  4.9162000  2
   8872   8866   8867   8883     1  0.0000000  0.6024960  3
   8872   8866   8865   8873     1  0.0000000  4.9162000  2
   8872   8866   8865   8873     1  0.0000000  0.6024960  3
   8873   8865   8862   8874     1  0.0000000  4.9162000  2
   8873   8865   8862   8874     1  0.0000000  0.6024960  3
   8874   8862   8861   8875     1  0.0000000  0.6508444  3
   8874   8862   8861   8883     1  0.0000000  4.9162000  2
   8874   8862   8861   8883     1  0.0000000  0.6024960  3
   8881   8875   8861   8883     1  0.0000000  4.9162000  2
   8881   8875   8861   8883     1  0.0000000  0.6024960  3
   8884   8885   8888   8889     1  180.0000771  0.8368000  1
   8884   8885   8888   8889     1  180.0000771  1.0460000  2
   8884   8885   8888   8889     1  0.0000000  0.7531200  3
   8884   8885   8888   8896     1  0.0000000  0.6508444  3
   8884   8906   8890   8889     1  180.0000771  0.4184000  2
   8884   8906   8890   8889     1  0.0000000  1.6024720  3
   8884   8906   8890   8894     1  180.0000771  5.6484000  1
   8884   8906   8890   8894     1  180.0000771  3.5564000  2
   8884   8906   8890   8894     1  0.0000000  0.4184000  3
   8885   8884   8898   8904     1  0.0000000  0.6508444  3
   8885   8884   8906   8890     1  180.0000771  0.4184000  2
   8885   8884   8906   8890     1  0.0000000  1.6024720  3
   8885   8888   8889   8890     1  180.0000771  0.8368000  1
   8885   8888   8889   8890     1  180.0000771  1.0460000  2
   8885   8888   8889   8890     1  0.0000000  0.7531200  3
   8885   8888   8889   8895     1  0.0000000  0.6508444  3
   8888   8885   8884   8898     1  180.0000771  0.8368000  1
   8888   8885   8884   8898     1  180.0000771  1.0460000  2
   8888   8885   8884   8898     1  0.0000000  0.7531200  3
   8888   8885   8884   8906     1  0.0000000  0.6508444  3
   8888   8889   8890   8894     1  0.0000000  0.6508444  3
   8888   8889   8890   8906     1  0.0000000  0.6508444  3
   8889   8888   8885   8897     1  0.0000000  0.6508444  3
   8890   8889   8888   8896     1  0.0000000  0.6508444  3
   8890   8906   8884   8898     1  180.0000771  0.4184000  2
   8890   8906   8884   8898     1  0.0000000  1.6024720  3
   8894   8890   8889   8895     1  0.0000000  4.9162000  2
   8894   8890   8889   8895     1  0.0000000  0.6024960  3
   8895   8889   8888   8896     1  0.0000000  4.9162000  2
   8895   8889   8888   8896     1  0.0000000  0.6024960  3
   8895   8889   8890   8906     1  0.0000000  4.9162000  2
   8895   8889   8890   8906     1  0.0000000  0.6024960  3
   8896   8888   8885   8897     1  0.0000000  4.9162000  2
   8896   8888   8885   8897     1  0.0000000  0.6024960  3
   8897   8885   8884   8898     1  0.0000000  0.6508444  3
   8897   8885   8884   8906     1  0.0000000  4.9162000  2
   8897   8885   8884   8906     1  0.0000000  0.6024960  3
   8904   8898   8884   8906     1  0.0000000  4.9162000  2
   8904   8898   8884   8906     1  0.0000000  0.6024960  3
   8907   8908   8911   8912     1  180.0000771  0.8368000  1
   8907   8908   8911   8912     1  180.0000771  1.0460000  2
   8907   8908   8911   8912     1  0.0000000  0.7531200  3
   8907   8908   8911   8919     1  0.0000000  0.6508444  3
   8907   8929   8913   8917     1  180.0000771  5.6484000  1
   8907   8929   8913   8917     1  180.0000771  3.5564000  2
   8907   8929   8913   8917     1  0.0000000  0.4184000  3
   8907   8929   8913   8912     1  180.0000771  0.4184000  2
   8907   8929   8913   8912     1  0.0000000  1.6024720  3
   8908   8911   8912   8913     1  180.0000771  0.8368000  1
   8908   8911   8912   8913     1  180.0000771  1.0460000  2
   8908   8911   8912   8913     1  0.0000000  0.7531200  3
   8908   8911   8912   8918     1  0.0000000  0.6508444  3
   8908   8907   8921   8927     1  0.0000000  0.6508444  3
   8908   8907   8929   8913     1  180.0000771  0.4184000  2
   8908   8907   8929   8913     1  0.0000000  1.6024720  3
   8911   8912   8913   8917     1  0.0000000  0.6508444  3
   8911   8912   8913   8929     1  0.0000000  0.6508444  3
   8911   8908   8907   8921     1  180.0000771  0.8368000  1
   8911   8908   8907   8921     1  180.0000771  1.0460000  2
   8911   8908   8907   8921     1  0.0000000  0.7531200  3
   8911   8908   8907   8929     1  0.0000000  0.6508444  3
   8912   8911   8908   8920     1  0.0000000  0.6508444  3
   8913   8929   8907   8921     1  180.0000771  0.4184000  2
   8913   8929   8907   8921     1  0.0000000  1.6024720  3
   8913   8912   8911   8919     1  0.0000000  0.6508444  3
   8917   8913   8912   8918     1  0.0000000  4.9162000  2
   8917   8913   8912   8918     1  0.0000000  0.6024960  3
   8918   8912   8913   8929     1  0.0000000  4.9162000  2
   8918   8912   8913   8929     1  0.0000000  0.6024960  3
   8918   8912   8911   8919     1  0.0000000  4.9162000  2
   8918   8912   8911   8919     1  0.0000000  0.6024960  3
   8919   8911   8908   8920     1  0.0000000  4.9162000  2
   8919   8911   8908   8920     1  0.0000000  0.6024960  3
   8920   8908   8907   8921     1  0.0000000  0.6508444  3
   8920   8908   8907   8929     1  0.0000000  4.9162000  2
   8920   8908   8907   8929     1  0.0000000  0.6024960  3
   8927   8921   8907   8929     1  0.0000000  4.9162000  2
   8927   8921   8907   8929     1  0.0000000  0.6024960  3
   8930   8931   8934   8935     1  180.0000771  0.8368000  1
   8930   8931   8934   8935     1  180.0000771  1.0460000  2
   8930   8931   8934   8935     1  0.0000000  0.7531200  3
   8930   8931   8934   8942     1  0.0000000  0.6508444  3
   8930   8952   8936   8935     1  180.0000771  0.4184000  2
   8930   8952   8936   8935     1  0.0000000  1.6024720  3
   8930   8952   8936   8940     1  180.0000771  5.6484000  1
   8930   8952   8936   8940     1  180.0000771  3.5564000  2
   8930   8952   8936   8940     1  0.0000000  0.4184000  3
   8931   8930   8944   8950     1  0.0000000  0.6508444  3
   8931   8930   8952   8936     1  180.0000771  0.4184000  2
   8931   8930   8952   8936     1  0.0000000  1.6024720  3
   8931   8934   8935   8936     1  180.0000771  0.8368000  1
   8931   8934   8935   8936     1  180.0000771  1.0460000  2
   8931   8934   8935   8936     1  0.0000000  0.7531200  3
   8931   8934   8935   8941     1  0.0000000  0.6508444  3
   8934   8931   8930   8944     1  180.0000771  0.8368000  1
   8934   8931   8930   8944     1  180.0000771  1.0460000  2
   8934   8931   8930   8944     1  0.0000000  0.7531200  3
   8934   8931   8930   8952     1  0.0000000  0.6508444  3
   8934   8935   8936   8940     1  0.0000000  0.6508444  3
   8934   8935   8936   8952     1  0.0000000  0.6508444  3
   8935   8934   8931   8943     1  0.0000000  0.6508444  3
   8936   8935   8934   8942     1  0.0000000  0.6508444  3
   8936   8952   8930   8944     1  180.0000771  0.4184000  2
   8936   8952   8930   8944     1  0.0000000  1.6024720  3
   8940   8936   8935   8941     1  0.0000000  4.9162000  2
   8940   8936   8935   8941     1  0.0000000  0.6024960  3
   8941   8935   8934   8942     1  0.0000000  4.9162000  2
   8941   8935   8934   8942     1  0.0000000  0.6024960  3
   8941   8935   8936   8952     1  0.0000000  4.9162000  2
   8941   8935   8936   8952     1  0.0000000  0.6024960  3
   8942   8934   8931   8943     1  0.0000000  4.9162000  2
   8942   8934   8931   8943     1  0.0000000  0.6024960  3
   8943   8931   8930   8944     1  0.0000000  0.6508444  3
   8943   8931   8930   8952     1  0.0000000  4.9162000  2
   8943   8931   8930   8952     1  0.0000000  0.6024960  3
   8950   8944   8930   8952     1  0.0000000  4.9162000  2
   8950   8944   8930   8952     1  0.0000000  0.6024960  3
   8953   8954   8957   8958     1  180.0000771  0.8368000  1
   8953   8954   8957   8958     1  180.0000771  1.0460000  2
   8953   8954   8957   8958     1  0.0000000  0.7531200  3
   8953   8954   8957   8965     1  0.0000000  0.6508444  3
   8953   8975   8959   8963     1  180.0000771  5.6484000  1
   8953   8975   8959   8963     1  180.0000771  3.5564000  2
   8953   8975   8959   8963     1  0.0000000  0.4184000  3
   8953   8975   8959   8958     1  180.0000771  0.4184000  2
   8953   8975   8959   8958     1  0.0000000  1.6024720  3
   8954   8957   8958   8959     1  180.0000771  0.8368000  1
   8954   8957   8958   8959     1  180.0000771  1.0460000  2
   8954   8957   8958   8959     1  0.0000000  0.7531200  3
   8954   8957   8958   8964     1  0.0000000  0.6508444  3
   8954   8953   8967   8973     1  0.0000000  0.6508444  3
   8954   8953   8975   8959     1  180.0000771  0.4184000  2
   8954   8953   8975   8959     1  0.0000000  1.6024720  3
   8957   8958   8959   8963     1  0.0000000  0.6508444  3
   8957   8958   8959   8975     1  0.0000000  0.6508444  3
   8957   8954   8953   8967     1  180.0000771  0.8368000  1
   8957   8954   8953   8967     1  180.0000771  1.0460000  2
   8957   8954   8953   8967     1  0.0000000  0.7531200  3
   8957   8954   8953   8975     1  0.0000000  0.6508444  3
   8958   8957   8954   8966     1  0.0000000  0.6508444  3
   8959   8975   8953   8967     1  180.0000771  0.4184000  2
   8959   8975   8953   8967     1  0.0000000  1.6024720  3
   8959   8958   8957   8965     1  0.0000000  0.6508444  3
   8963   8959   8958   8964     1  0.0000000  4.9162000  2
   8963   8959   8958   8964     1  0.0000000  0.6024960  3
   8964   8958   8959   8975     1  0.0000000  4.9162000  2
   8964   8958   8959   8975     1  0.0000000  0.6024960  3
   8964   8958   8957   8965     1  0.0000000  4.9162000  2
   8964   8958   8957   8965     1  0.0000000  0.6024960  3
   8965   8957   8954   8966     1  0.0000000  4.9162000  2
   8965   8957   8954   8966     1  0.0000000  0.6024960  3
   8966   8954   8953   8967     1  0.0000000  0.6508444  3
   8966   8954   8953   8975     1  0.0000000  4.9162000  2
   8966   8954   8953   8975     1  0.0000000  0.6024960  3
   8973   8967   8953   8975     1  0.0000000  4.9162000  2
   8973   8967   8953   8975     1  0.0000000  0.6024960  3
   8976   8977   8980   8981     1  180.0000771  0.8368000  1
   8976   8977   8980   8981     1  180.0000771  1.0460000  2
   8976   8977   8980   8981     1  0.0000000  0.7531200  3
   8976   8977   8980   8988     1  0.0000000  0.6508444  3
   8976   8998   8982   8981     1  180.0000771  0.4184000  2
   8976   8998   8982   8981     1  0.0000000  1.6024720  3
   8976   8998   8982   8986     1  180.0000771  5.6484000  1
   8976   8998   8982   8986     1  180.0000771  3.5564000  2
   8976   8998   8982   8986     1  0.0000000  0.4184000  3
   8977   8976   8990   8996     1  0.0000000  0.6508444  3
   8977   8976   8998   8982     1  180.0000771  0.4184000  2
   8977   8976   8998   8982     1  0.0000000  1.6024720  3
   8977   8980   8981   8982     1  180.0000771  0.8368000  1
   8977   8980   8981   8982     1  180.0000771  1.0460000  2
   8977   8980   8981   8982     1  0.0000000  0.7531200  3
   8977   8980   8981   8987     1  0.0000000  0.6508444  3
   8980   8977   8976   8990     1  180.0000771  0.8368000  1
   8980   8977   8976   8990     1  180.0000771  1.0460000  2
   8980   8977   8976   8990     1  0.0000000  0.7531200  3
   8980   8977   8976   8998     1  0.0000000  0.6508444  3
   8980   8981   8982   8986     1  0.0000000  0.6508444  3
   8980   8981   8982   8998     1  0.0000000  0.6508444  3
   8981   8980   8977   8989     1  0.0000000  0.6508444  3
   8982   8981   8980   8988     1  0.0000000  0.6508444  3
   8982   8998   8976   8990     1  180.0000771  0.4184000  2
   8982   8998   8976   8990     1  0.0000000  1.6024720  3
   8986   8982   8981   8987     1  0.0000000  4.9162000  2
   8986   8982   8981   8987     1  0.0000000  0.6024960  3
   8987   8981   8980   8988     1  0.0000000  4.9162000  2
   8987   8981   8980   8988     1  0.0000000  0.6024960  3
   8987   8981   8982   8998     1  0.0000000  4.9162000  2
   8987   8981   8982   8998     1  0.0000000  0.6024960  3
   8988   8980   8977   8989     1  0.0000000  4.9162000  2
   8988   8980   8977   8989     1  0.0000000  0.6024960  3
   8989   8977   8976   8990     1  0.0000000  0.6508444  3
   8989   8977   8976   8998     1  0.0000000  4.9162000  2
   8989   8977   8976   8998     1  0.0000000  0.6024960  3
   8996   8990   8976   8998     1  0.0000000  4.9162000  2
   8996   8990   8976   8998     1  0.0000000  0.6024960  3
   8999   9000   9003   9004     1  180.0000771  0.8368000  1
   8999   9000   9003   9004     1  180.0000771  1.0460000  2
   8999   9000   9003   9004     1  0.0000000  0.7531200  3
   8999   9000   9003   9011     1  0.0000000  0.6508444  3
   8999   9021   9005   9009     1  180.0000771  5.6484000  1
   8999   9021   9005   9009     1  180.0000771  3.5564000  2
   8999   9021   9005   9009     1  0.0000000  0.4184000  3
   8999   9021   9005   9004     1  180.0000771  0.4184000  2
   8999   9021   9005   9004     1  0.0000000  1.6024720  3
   9000   9003   9004   9005     1  180.0000771  0.8368000  1
   9000   9003   9004   9005     1  180.0000771  1.0460000  2
   9000   9003   9004   9005     1  0.0000000  0.7531200  3
   9000   9003   9004   9010     1  0.0000000  0.6508444  3
   9000   8999   9013   9019     1  0.0000000  0.6508444  3
   9000   8999   9021   9005     1  180.0000771  0.4184000  2
   9000   8999   9021   9005     1  0.0000000  1.6024720  3
   9003   9004   9005   9009     1  0.0000000  0.6508444  3
   9003   9004   9005   9021     1  0.0000000  0.6508444  3
   9003   9000   8999   9013     1  180.0000771  0.8368000  1
   9003   9000   8999   9013     1  180.0000771  1.0460000  2
   9003   9000   8999   9013     1  0.0000000  0.7531200  3
   9003   9000   8999   9021     1  0.0000000  0.6508444  3
   9004   9003   9000   9012     1  0.0000000  0.6508444  3
   9005   9021   8999   9013     1  180.0000771  0.4184000  2
   9005   9021   8999   9013     1  0.0000000  1.6024720  3
   9005   9004   9003   9011     1  0.0000000  0.6508444  3
   9009   9005   9004   9010     1  0.0000000  4.9162000  2
   9009   9005   9004   9010     1  0.0000000  0.6024960  3
   9010   9004   9005   9021     1  0.0000000  4.9162000  2
   9010   9004   9005   9021     1  0.0000000  0.6024960  3
   9010   9004   9003   9011     1  0.0000000  4.9162000  2
   9010   9004   9003   9011     1  0.0000000  0.6024960  3
   9011   9003   9000   9012     1  0.0000000  4.9162000  2
   9011   9003   9000   9012     1  0.0000000  0.6024960  3
   9012   9000   8999   9013     1  0.0000000  0.6508444  3
   9012   9000   8999   9021     1  0.0000000  4.9162000  2
   9012   9000   8999   9021     1  0.0000000  0.6024960  3
   9019   9013   8999   9021     1  0.0000000  4.9162000  2
   9019   9013   8999   9021     1  0.0000000  0.6024960  3
   9022   9023   9026   9027     1  180.0000771  0.8368000  1
   9022   9023   9026   9027     1  180.0000771  1.0460000  2
   9022   9023   9026   9027     1  0.0000000  0.7531200  3
   9022   9023   9026   9034     1  0.0000000  0.6508444  3
   9022   9044   9028   9027     1  180.0000771  0.4184000  2
   9022   9044   9028   9027     1  0.0000000  1.6024720  3
   9022   9044   9028   9032     1  180.0000771  5.6484000  1
   9022   9044   9028   9032     1  180.0000771  3.5564000  2
   9022   9044   9028   9032     1  0.0000000  0.4184000  3
   9023   9022   9036   9042     1  0.0000000  0.6508444  3
   9023   9022   9044   9028     1  180.0000771  0.4184000  2
   9023   9022   9044   9028     1  0.0000000  1.6024720  3
   9023   9026   9027   9028     1  180.0000771  0.8368000  1
   9023   9026   9027   9028     1  180.0000771  1.0460000  2
   9023   9026   9027   9028     1  0.0000000  0.7531200  3
   9023   9026   9027   9033     1  0.0000000  0.6508444  3
   9026   9023   9022   9036     1  180.0000771  0.8368000  1
   9026   9023   9022   9036     1  180.0000771  1.0460000  2
   9026   9023   9022   9036     1  0.0000000  0.7531200  3
   9026   9023   9022   9044     1  0.0000000  0.6508444  3
   9026   9027   9028   9032     1  0.0000000  0.6508444  3
   9026   9027   9028   9044     1  0.0000000  0.6508444  3
   9027   9026   9023   9035     1  0.0000000  0.6508444  3
   9028   9027   9026   9034     1  0.0000000  0.6508444  3
   9028   9044   9022   9036     1  180.0000771  0.4184000  2
   9028   9044   9022   9036     1  0.0000000  1.6024720  3
   9032   9028   9027   9033     1  0.0000000  4.9162000  2
   9032   9028   9027   9033     1  0.0000000  0.6024960  3
   9033   9027   9026   9034     1  0.0000000  4.9162000  2
   9033   9027   9026   9034     1  0.0000000  0.6024960  3
   9033   9027   9028   9044     1  0.0000000  4.9162000  2
   9033   9027   9028   9044     1  0.0000000  0.6024960  3
   9034   9026   9023   9035     1  0.0000000  4.9162000  2
   9034   9026   9023   9035     1  0.0000000  0.6024960  3
   9035   9023   9022   9036     1  0.0000000  0.6508444  3
   9035   9023   9022   9044     1  0.0000000  4.9162000  2
   9035   9023   9022   9044     1  0.0000000  0.6024960  3
   9042   9036   9022   9044     1  0.0000000  4.9162000  2
   9042   9036   9022   9044     1  0.0000000  0.6024960  3
   9045   9046   9049   9050     1  180.0000771  0.8368000  1
   9045   9046   9049   9050     1  180.0000771  1.0460000  2
   9045   9046   9049   9050     1  0.0000000  0.7531200  3
   9045   9046   9049   9057     1  0.0000000  0.6508444  3
   9045   9067   9051   9055     1  180.0000771  5.6484000  1
   9045   9067   9051   9055     1  180.0000771  3.5564000  2
   9045   9067   9051   9055     1  0.0000000  0.4184000  3
   9045   9067   9051   9050     1  180.0000771  0.4184000  2
   9045   9067   9051   9050     1  0.0000000  1.6024720  3
   9046   9049   9050   9051     1  180.0000771  0.8368000  1
   9046   9049   9050   9051     1  180.0000771  1.0460000  2
   9046   9049   9050   9051     1  0.0000000  0.7531200  3
   9046   9049   9050   9056     1  0.0000000  0.6508444  3
   9046   9045   9059   9065     1  0.0000000  0.6508444  3
   9046   9045   9067   9051     1  180.0000771  0.4184000  2
   9046   9045   9067   9051     1  0.0000000  1.6024720  3
   9049   9050   9051   9055     1  0.0000000  0.6508444  3
   9049   9050   9051   9067     1  0.0000000  0.6508444  3
   9049   9046   9045   9059     1  180.0000771  0.8368000  1
   9049   9046   9045   9059     1  180.0000771  1.0460000  2
   9049   9046   9045   9059     1  0.0000000  0.7531200  3
   9049   9046   9045   9067     1  0.0000000  0.6508444  3
   9050   9049   9046   9058     1  0.0000000  0.6508444  3
   9051   9067   9045   9059     1  180.0000771  0.4184000  2
   9051   9067   9045   9059     1  0.0000000  1.6024720  3
   9051   9050   9049   9057     1  0.0000000  0.6508444  3
   9055   9051   9050   9056     1  0.0000000  4.9162000  2
   9055   9051   9050   9056     1  0.0000000  0.6024960  3
   9056   9050   9051   9067     1  0.0000000  4.9162000  2
   9056   9050   9051   9067     1  0.0000000  0.6024960  3
   9056   9050   9049   9057     1  0.0000000  4.9162000  2
   9056   9050   9049   9057     1  0.0000000  0.6024960  3
   9057   9049   9046   9058     1  0.0000000  4.9162000  2
   9057   9049   9046   9058     1  0.0000000  0.6024960  3
   9058   9046   9045   9059     1  0.0000000  0.6508444  3
   9058   9046   9045   9067     1  0.0000000  4.9162000  2
   9058   9046   9045   9067     1  0.0000000  0.6024960  3
   9065   9059   9045   9067     1  0.0000000  4.9162000  2
   9065   9059   9045   9067     1  0.0000000  0.6024960  3
   9068   9069   9072   9073     1  180.0000771  0.8368000  1
   9068   9069   9072   9073     1  180.0000771  1.0460000  2
   9068   9069   9072   9073     1  0.0000000  0.7531200  3
   9068   9069   9072   9080     1  0.0000000  0.6508444  3
   9068   9090   9074   9073     1  180.0000771  0.4184000  2
   9068   9090   9074   9073     1  0.0000000  1.6024720  3
   9068   9090   9074   9078     1  180.0000771  5.6484000  1
   9068   9090   9074   9078     1  180.0000771  3.5564000  2
   9068   9090   9074   9078     1  0.0000000  0.4184000  3
   9069   9068   9082   9088     1  0.0000000  0.6508444  3
   9069   9068   9090   9074     1  180.0000771  0.4184000  2
   9069   9068   9090   9074     1  0.0000000  1.6024720  3
   9069   9072   9073   9074     1  180.0000771  0.8368000  1
   9069   9072   9073   9074     1  180.0000771  1.0460000  2
   9069   9072   9073   9074     1  0.0000000  0.7531200  3
   9069   9072   9073   9079     1  0.0000000  0.6508444  3
   9072   9069   9068   9082     1  180.0000771  0.8368000  1
   9072   9069   9068   9082     1  180.0000771  1.0460000  2
   9072   9069   9068   9082     1  0.0000000  0.7531200  3
   9072   9069   9068   9090     1  0.0000000  0.6508444  3
   9072   9073   9074   9078     1  0.0000000  0.6508444  3
   9072   9073   9074   9090     1  0.0000000  0.6508444  3
   9073   9072   9069   9081     1  0.0000000  0.6508444  3
   9074   9073   9072   9080     1  0.0000000  0.6508444  3
   9074   9090   9068   9082     1  180.0000771  0.4184000  2
   9074   9090   9068   9082     1  0.0000000  1.6024720  3
   9078   9074   9073   9079     1  0.0000000  4.9162000  2
   9078   9074   9073   9079     1  0.0000000  0.6024960  3
   9079   9073   9072   9080     1  0.0000000  4.9162000  2
   9079   9073   9072   9080     1  0.0000000  0.6024960  3
   9079   9073   9074   9090     1  0.0000000  4.9162000  2
   9079   9073   9074   9090     1  0.0000000  0.6024960  3
   9080   9072   9069   9081     1  0.0000000  4.9162000  2
   9080   9072   9069   9081     1  0.0000000  0.6024960  3
   9081   9069   9068   9082     1  0.0000000  0.6508444  3
   9081   9069   9068   9090     1  0.0000000  4.9162000  2
   9081   9069   9068   9090     1  0.0000000  0.6024960  3
   9088   9082   9068   9090     1  0.0000000  4.9162000  2
   9088   9082   9068   9090     1  0.0000000  0.6024960  3
   9091   9092   9095   9096     1  180.0000771  0.8368000  1
   9091   9092   9095   9096     1  180.0000771  1.0460000  2
   9091   9092   9095   9096     1  0.0000000  0.7531200  3
   9091   9092   9095   9103     1  0.0000000  0.6508444  3
   9091   9113   9097   9101     1  180.0000771  5.6484000  1
   9091   9113   9097   9101     1  180.0000771  3.5564000  2
   9091   9113   9097   9101     1  0.0000000  0.4184000  3
   9091   9113   9097   9096     1  180.0000771  0.4184000  2
   9091   9113   9097   9096     1  0.0000000  1.6024720  3
   9092   9095   9096   9097     1  180.0000771  0.8368000  1
   9092   9095   9096   9097     1  180.0000771  1.0460000  2
   9092   9095   9096   9097     1  0.0000000  0.7531200  3
   9092   9095   9096   9102     1  0.0000000  0.6508444  3
   9092   9091   9105   9111     1  0.0000000  0.6508444  3
   9092   9091   9113   9097     1  180.0000771  0.4184000  2
   9092   9091   9113   9097     1  0.0000000  1.6024720  3
   9095   9096   9097   9101     1  0.0000000  0.6508444  3
   9095   9096   9097   9113     1  0.0000000  0.6508444  3
   9095   9092   9091   9105     1  180.0000771  0.8368000  1
   9095   9092   9091   9105     1  180.0000771  1.0460000  2
   9095   9092   9091   9105     1  0.0000000  0.7531200  3
   9095   9092   9091   9113     1  0.0000000  0.6508444  3
   9096   9095   9092   9104     1  0.0000000  0.6508444  3
   9097   9113   9091   9105     1  180.0000771  0.4184000  2
   9097   9113   9091   9105     1  0.0000000  1.6024720  3
   9097   9096   9095   9103     1  0.0000000  0.6508444  3
   9101   9097   9096   9102     1  0.0000000  4.9162000  2
   9101   9097   9096   9102     1  0.0000000  0.6024960  3
   9102   9096   9097   9113     1  0.0000000  4.9162000  2
   9102   9096   9097   9113     1  0.0000000  0.6024960  3
   9102   9096   9095   9103     1  0.0000000  4.9162000  2
   9102   9096   9095   9103     1  0.0000000  0.6024960  3
   9103   9095   9092   9104     1  0.0000000  4.9162000  2
   9103   9095   9092   9104     1  0.0000000  0.6024960  3
   9104   9092   9091   9105     1  0.0000000  0.6508444  3
   9104   9092   9091   9113     1  0.0000000  4.9162000  2
   9104   9092   9091   9113     1  0.0000000  0.6024960  3
   9111   9105   9091   9113     1  0.0000000  4.9162000  2
   9111   9105   9091   9113     1  0.0000000  0.6024960  3
   9114   9115   9118   9119     1  180.0000771  0.8368000  1
   9114   9115   9118   9119     1  180.0000771  1.0460000  2
   9114   9115   9118   9119     1  0.0000000  0.7531200  3
   9114   9115   9118   9126     1  0.0000000  0.6508444  3
   9114   9136   9120   9119     1  180.0000771  0.4184000  2
   9114   9136   9120   9119     1  0.0000000  1.6024720  3
   9114   9136   9120   9124     1  180.0000771  5.6484000  1
   9114   9136   9120   9124     1  180.0000771  3.5564000  2
   9114   9136   9120   9124     1  0.0000000  0.4184000  3
   9115   9114   9128   9134     1  0.0000000  0.6508444  3
   9115   9114   9136   9120     1  180.0000771  0.4184000  2
   9115   9114   9136   9120     1  0.0000000  1.6024720  3
   9115   9118   9119   9120     1  180.0000771  0.8368000  1
   9115   9118   9119   9120     1  180.0000771  1.0460000  2
   9115   9118   9119   9120     1  0.0000000  0.7531200  3
   9115   9118   9119   9125     1  0.0000000  0.6508444  3
   9118   9115   9114   9128     1  180.0000771  0.8368000  1
   9118   9115   9114   9128     1  180.0000771  1.0460000  2
   9118   9115   9114   9128     1  0.0000000  0.7531200  3
   9118   9115   9114   9136     1  0.0000000  0.6508444  3
   9118   9119   9120   9124     1  0.0000000  0.6508444  3
   9118   9119   9120   9136     1  0.0000000  0.6508444  3
   9119   9118   9115   9127     1  0.0000000  0.6508444  3
   9120   9119   9118   9126     1  0.0000000  0.6508444  3
   9120   9136   9114   9128     1  180.0000771  0.4184000  2
   9120   9136   9114   9128     1  0.0000000  1.6024720  3
   9124   9120   9119   9125     1  0.0000000  4.9162000  2
   9124   9120   9119   9125     1  0.0000000  0.6024960  3
   9125   9119   9118   9126     1  0.0000000  4.9162000  2
   9125   9119   9118   9126     1  0.0000000  0.6024960  3
   9125   9119   9120   9136     1  0.0000000  4.9162000  2
   9125   9119   9120   9136     1  0.0000000  0.6024960  3
   9126   9118   9115   9127     1  0.0000000  4.9162000  2
   9126   9118   9115   9127     1  0.0000000  0.6024960  3
   9127   9115   9114   9128     1  0.0000000  0.6508444  3
   9127   9115   9114   9136     1  0.0000000  4.9162000  2
   9127   9115   9114   9136     1  0.0000000  0.6024960  3
   9134   9128   9114   9136     1  0.0000000  4.9162000  2
   9134   9128   9114   9136     1  0.0000000  0.6024960  3
   9137   9138   9141   9142     1  180.0000771  0.8368000  1
   9137   9138   9141   9142     1  180.0000771  1.0460000  2
   9137   9138   9141   9142     1  0.0000000  0.7531200  3
   9137   9138   9141   9149     1  0.0000000  0.6508444  3
   9137   9159   9143   9147     1  180.0000771  5.6484000  1
   9137   9159   9143   9147     1  180.0000771  3.5564000  2
   9137   9159   9143   9147     1  0.0000000  0.4184000  3
   9137   9159   9143   9142     1  180.0000771  0.4184000  2
   9137   9159   9143   9142     1  0.0000000  1.6024720  3
   9138   9141   9142   9143     1  180.0000771  0.8368000  1
   9138   9141   9142   9143     1  180.0000771  1.0460000  2
   9138   9141   9142   9143     1  0.0000000  0.7531200  3
   9138   9141   9142   9148     1  0.0000000  0.6508444  3
   9138   9137   9151   9157     1  0.0000000  0.6508444  3
   9138   9137   9159   9143     1  180.0000771  0.4184000  2
   9138   9137   9159   9143     1  0.0000000  1.6024720  3
   9141   9142   9143   9147     1  0.0000000  0.6508444  3
   9141   9142   9143   9159     1  0.0000000  0.6508444  3
   9141   9138   9137   9151     1  180.0000771  0.8368000  1
   9141   9138   9137   9151     1  180.0000771  1.0460000  2
   9141   9138   9137   9151     1  0.0000000  0.7531200  3
   9141   9138   9137   9159     1  0.0000000  0.6508444  3
   9142   9141   9138   9150     1  0.0000000  0.6508444  3
   9143   9159   9137   9151     1  180.0000771  0.4184000  2
   9143   9159   9137   9151     1  0.0000000  1.6024720  3
   9143   9142   9141   9149     1  0.0000000  0.6508444  3
   9147   9143   9142   9148     1  0.0000000  4.9162000  2
   9147   9143   9142   9148     1  0.0000000  0.6024960  3
   9148   9142   9143   9159     1  0.0000000  4.9162000  2
   9148   9142   9143   9159     1  0.0000000  0.6024960  3
   9148   9142   9141   9149     1  0.0000000  4.9162000  2
   9148   9142   9141   9149     1  0.0000000  0.6024960  3
   9149   9141   9138   9150     1  0.0000000  4.9162000  2
   9149   9141   9138   9150     1  0.0000000  0.6024960  3
   9150   9138   9137   9151     1  0.0000000  0.6508444  3
   9150   9138   9137   9159     1  0.0000000  4.9162000  2
   9150   9138   9137   9159     1  0.0000000  0.6024960  3
   9157   9151   9137   9159     1  0.0000000  4.9162000  2
   9157   9151   9137   9159     1  0.0000000  0.6024960  3
   9160   9161   9164   9165     1  180.0000771  0.8368000  1
   9160   9161   9164   9165     1  180.0000771  1.0460000  2
   9160   9161   9164   9165     1  0.0000000  0.7531200  3
   9160   9161   9164   9172     1  0.0000000  0.6508444  3
   9160   9182   9166   9165     1  180.0000771  0.4184000  2
   9160   9182   9166   9165     1  0.0000000  1.6024720  3
   9160   9182   9166   9170     1  180.0000771  5.6484000  1
   9160   9182   9166   9170     1  180.0000771  3.5564000  2
   9160   9182   9166   9170     1  0.0000000  0.4184000  3
   9161   9160   9174   9180     1  0.0000000  0.6508444  3
   9161   9160   9182   9166     1  180.0000771  0.4184000  2
   9161   9160   9182   9166     1  0.0000000  1.6024720  3
   9161   9164   9165   9166     1  180.0000771  0.8368000  1
   9161   9164   9165   9166     1  180.0000771  1.0460000  2
   9161   9164   9165   9166     1  0.0000000  0.7531200  3
   9161   9164   9165   9171     1  0.0000000  0.6508444  3
   9164   9161   9160   9174     1  180.0000771  0.8368000  1
   9164   9161   9160   9174     1  180.0000771  1.0460000  2
   9164   9161   9160   9174     1  0.0000000  0.7531200  3
   9164   9161   9160   9182     1  0.0000000  0.6508444  3
   9164   9165   9166   9170     1  0.0000000  0.6508444  3
   9164   9165   9166   9182     1  0.0000000  0.6508444  3
   9165   9164   9161   9173     1  0.0000000  0.6508444  3
   9166   9165   9164   9172     1  0.0000000  0.6508444  3
   9166   9182   9160   9174     1  180.0000771  0.4184000  2
   9166   9182   9160   9174     1  0.0000000  1.6024720  3
   9170   9166   9165   9171     1  0.0000000  4.9162000  2
   9170   9166   9165   9171     1  0.0000000  0.6024960  3
   9171   9165   9164   9172     1  0.0000000  4.9162000  2
   9171   9165   9164   9172     1  0.0000000  0.6024960  3
   9171   9165   9166   9182     1  0.0000000  4.9162000  2
   9171   9165   9166   9182     1  0.0000000  0.6024960  3
   9172   9164   9161   9173     1  0.0000000  4.9162000  2
   9172   9164   9161   9173     1  0.0000000  0.6024960  3
   9173   9161   9160   9174     1  0.0000000  0.6508444  3
   9173   9161   9160   9182     1  0.0000000  4.9162000  2
   9173   9161   9160   9182     1  0.0000000  0.6024960  3
   9180   9174   9160   9182     1  0.0000000  4.9162000  2
   9180   9174   9160   9182     1  0.0000000  0.6024960  3
   9183   9184   9187   9188     1  180.0000771  0.8368000  1
   9183   9184   9187   9188     1  180.0000771  1.0460000  2
   9183   9184   9187   9188     1  0.0000000  0.7531200  3
   9183   9184   9187   9195     1  0.0000000  0.6508444  3
   9183   9205   9189   9193     1  180.0000771  5.6484000  1
   9183   9205   9189   9193     1  180.0000771  3.5564000  2
   9183   9205   9189   9193     1  0.0000000  0.4184000  3
   9183   9205   9189   9188     1  180.0000771  0.4184000  2
   9183   9205   9189   9188     1  0.0000000  1.6024720  3
   9184   9187   9188   9189     1  180.0000771  0.8368000  1
   9184   9187   9188   9189     1  180.0000771  1.0460000  2
   9184   9187   9188   9189     1  0.0000000  0.7531200  3
   9184   9187   9188   9194     1  0.0000000  0.6508444  3
   9184   9183   9197   9203     1  0.0000000  0.6508444  3
   9184   9183   9205   9189     1  180.0000771  0.4184000  2
   9184   9183   9205   9189     1  0.0000000  1.6024720  3
   9187   9188   9189   9193     1  0.0000000  0.6508444  3
   9187   9188   9189   9205     1  0.0000000  0.6508444  3
   9187   9184   9183   9197     1  180.0000771  0.8368000  1
   9187   9184   9183   9197     1  180.0000771  1.0460000  2
   9187   9184   9183   9197     1  0.0000000  0.7531200  3
   9187   9184   9183   9205     1  0.0000000  0.6508444  3
   9188   9187   9184   9196     1  0.0000000  0.6508444  3
   9189   9205   9183   9197     1  180.0000771  0.4184000  2
   9189   9205   9183   9197     1  0.0000000  1.6024720  3
   9189   9188   9187   9195     1  0.0000000  0.6508444  3
   9193   9189   9188   9194     1  0.0000000  4.9162000  2
   9193   9189   9188   9194     1  0.0000000  0.6024960  3
   9194   9188   9189   9205     1  0.0000000  4.9162000  2
   9194   9188   9189   9205     1  0.0000000  0.6024960  3
   9194   9188   9187   9195     1  0.0000000  4.9162000  2
   9194   9188   9187   9195     1  0.0000000  0.6024960  3
   9195   9187   9184   9196     1  0.0000000  4.9162000  2
   9195   9187   9184   9196     1  0.0000000  0.6024960  3
   9196   9184   9183   9197     1  0.0000000  0.6508444  3
   9196   9184   9183   9205     1  0.0000000  4.9162000  2
   9196   9184   9183   9205     1  0.0000000  0.6024960  3
   9203   9197   9183   9205     1  0.0000000  4.9162000  2
   9203   9197   9183   9205     1  0.0000000  0.6024960  3
   9206   9207   9210   9211     1  180.0000771  0.8368000  1
   9206   9207   9210   9211     1  180.0000771  1.0460000  2
   9206   9207   9210   9211     1  0.0000000  0.7531200  3
   9206   9207   9210   9218     1  0.0000000  0.6508444  3
   9206   9228   9212   9211     1  180.0000771  0.4184000  2
   9206   9228   9212   9211     1  0.0000000  1.6024720  3
   9206   9228   9212   9216     1  180.0000771  5.6484000  1
   9206   9228   9212   9216     1  180.0000771  3.5564000  2
   9206   9228   9212   9216     1  0.0000000  0.4184000  3
   9207   9206   9220   9226     1  0.0000000  0.6508444  3
   9207   9206   9228   9212     1  180.0000771  0.4184000  2
   9207   9206   9228   9212     1  0.0000000  1.6024720  3
   9207   9210   9211   9212     1  180.0000771  0.8368000  1
   9207   9210   9211   9212     1  180.0000771  1.0460000  2
   9207   9210   9211   9212     1  0.0000000  0.7531200  3
   9207   9210   9211   9217     1  0.0000000  0.6508444  3
   9210   9207   9206   9220     1  180.0000771  0.8368000  1
   9210   9207   9206   9220     1  180.0000771  1.0460000  2
   9210   9207   9206   9220     1  0.0000000  0.7531200  3
   9210   9207   9206   9228     1  0.0000000  0.6508444  3
   9210   9211   9212   9216     1  0.0000000  0.6508444  3
   9210   9211   9212   9228     1  0.0000000  0.6508444  3
   9211   9210   9207   9219     1  0.0000000  0.6508444  3
   9212   9211   9210   9218     1  0.0000000  0.6508444  3
   9212   9228   9206   9220     1  180.0000771  0.4184000  2
   9212   9228   9206   9220     1  0.0000000  1.6024720  3
   9216   9212   9211   9217     1  0.0000000  4.9162000  2
   9216   9212   9211   9217     1  0.0000000  0.6024960  3
   9217   9211   9210   9218     1  0.0000000  4.9162000  2
   9217   9211   9210   9218     1  0.0000000  0.6024960  3
   9217   9211   9212   9228     1  0.0000000  4.9162000  2
   9217   9211   9212   9228     1  0.0000000  0.6024960  3
   9218   9210   9207   9219     1  0.0000000  4.9162000  2
   9218   9210   9207   9219     1  0.0000000  0.6024960  3
   9219   9207   9206   9220     1  0.0000000  0.6508444  3
   9219   9207   9206   9228     1  0.0000000  4.9162000  2
   9219   9207   9206   9228     1  0.0000000  0.6024960  3
   9226   9220   9206   9228     1  0.0000000  4.9162000  2
   9226   9220   9206   9228     1  0.0000000  0.6024960  3
   9229   9230   9233   9234     1  180.0000771  0.8368000  1
   9229   9230   9233   9234     1  180.0000771  1.0460000  2
   9229   9230   9233   9234     1  0.0000000  0.7531200  3
   9229   9230   9233   9241     1  0.0000000  0.6508444  3
   9229   9251   9235   9239     1  180.0000771  5.6484000  1
   9229   9251   9235   9239     1  180.0000771  3.5564000  2
   9229   9251   9235   9239     1  0.0000000  0.4184000  3
   9229   9251   9235   9234     1  180.0000771  0.4184000  2
   9229   9251   9235   9234     1  0.0000000  1.6024720  3
   9230   9233   9234   9235     1  180.0000771  0.8368000  1
   9230   9233   9234   9235     1  180.0000771  1.0460000  2
   9230   9233   9234   9235     1  0.0000000  0.7531200  3
   9230   9233   9234   9240     1  0.0000000  0.6508444  3
   9230   9229   9243   9249     1  0.0000000  0.6508444  3
   9230   9229   9251   9235     1  180.0000771  0.4184000  2
   9230   9229   9251   9235     1  0.0000000  1.6024720  3
   9233   9234   9235   9239     1  0.0000000  0.6508444  3
   9233   9234   9235   9251     1  0.0000000  0.6508444  3
   9233   9230   9229   9243     1  180.0000771  0.8368000  1
   9233   9230   9229   9243     1  180.0000771  1.0460000  2
   9233   9230   9229   9243     1  0.0000000  0.7531200  3
   9233   9230   9229   9251     1  0.0000000  0.6508444  3
   9234   9233   9230   9242     1  0.0000000  0.6508444  3
   9235   9251   9229   9243     1  180.0000771  0.4184000  2
   9235   9251   9229   9243     1  0.0000000  1.6024720  3
   9235   9234   9233   9241     1  0.0000000  0.6508444  3
   9239   9235   9234   9240     1  0.0000000  4.9162000  2
   9239   9235   9234   9240     1  0.0000000  0.6024960  3
   9240   9234   9235   9251     1  0.0000000  4.9162000  2
   9240   9234   9235   9251     1  0.0000000  0.6024960  3
   9240   9234   9233   9241     1  0.0000000  4.9162000  2
   9240   9234   9233   9241     1  0.0000000  0.6024960  3
   9241   9233   9230   9242     1  0.0000000  4.9162000  2
   9241   9233   9230   9242     1  0.0000000  0.6024960  3
   9242   9230   9229   9243     1  0.0000000  0.6508444  3
   9242   9230   9229   9251     1  0.0000000  4.9162000  2
   9242   9230   9229   9251     1  0.0000000  0.6024960  3
   9249   9243   9229   9251     1  0.0000000  4.9162000  2
   9249   9243   9229   9251     1  0.0000000  0.6024960  3
   9252   9253   9256   9257     1  180.0000771  0.8368000  1
   9252   9253   9256   9257     1  180.0000771  1.0460000  2
   9252   9253   9256   9257     1  0.0000000  0.7531200  3
   9252   9253   9256   9264     1  0.0000000  0.6508444  3
   9252   9274   9258   9257     1  180.0000771  0.4184000  2
   9252   9274   9258   9257     1  0.0000000  1.6024720  3
   9252   9274   9258   9262     1  180.0000771  5.6484000  1
   9252   9274   9258   9262     1  180.0000771  3.5564000  2
   9252   9274   9258   9262     1  0.0000000  0.4184000  3
   9253   9252   9266   9272     1  0.0000000  0.6508444  3
   9253   9252   9274   9258     1  180.0000771  0.4184000  2
   9253   9252   9274   9258     1  0.0000000  1.6024720  3
   9253   9256   9257   9258     1  180.0000771  0.8368000  1
   9253   9256   9257   9258     1  180.0000771  1.0460000  2
   9253   9256   9257   9258     1  0.0000000  0.7531200  3
   9253   9256   9257   9263     1  0.0000000  0.6508444  3
   9256   9253   9252   9266     1  180.0000771  0.8368000  1
   9256   9253   9252   9266     1  180.0000771  1.0460000  2
   9256   9253   9252   9266     1  0.0000000  0.7531200  3
   9256   9253   9252   9274     1  0.0000000  0.6508444  3
   9256   9257   9258   9262     1  0.0000000  0.6508444  3
   9256   9257   9258   9274     1  0.0000000  0.6508444  3
   9257   9256   9253   9265     1  0.0000000  0.6508444  3
   9258   9257   9256   9264     1  0.0000000  0.6508444  3
   9258   9274   9252   9266     1  180.0000771  0.4184000  2
   9258   9274   9252   9266     1  0.0000000  1.6024720  3
   9262   9258   9257   9263     1  0.0000000  4.9162000  2
   9262   9258   9257   9263     1  0.0000000  0.6024960  3
   9263   9257   9256   9264     1  0.0000000  4.9162000  2
   9263   9257   9256   9264     1  0.0000000  0.6024960  3
   9263   9257   9258   9274     1  0.0000000  4.9162000  2
   9263   9257   9258   9274     1  0.0000000  0.6024960  3
   9264   9256   9253   9265     1  0.0000000  4.9162000  2
   9264   9256   9253   9265     1  0.0000000  0.6024960  3
   9265   9253   9252   9266     1  0.0000000  0.6508444  3
   9265   9253   9252   9274     1  0.0000000  4.9162000  2
   9265   9253   9252   9274     1  0.0000000  0.6024960  3
   9272   9266   9252   9274     1  0.0000000  4.9162000  2
   9272   9266   9252   9274     1  0.0000000  0.6024960  3
   9275   9276   9279   9280     1  180.0000771  0.8368000  1
   9275   9276   9279   9280     1  180.0000771  1.0460000  2
   9275   9276   9279   9280     1  0.0000000  0.7531200  3
   9275   9276   9279   9287     1  0.0000000  0.6508444  3
   9275   9297   9281   9285     1  180.0000771  5.6484000  1
   9275   9297   9281   9285     1  180.0000771  3.5564000  2
   9275   9297   9281   9285     1  0.0000000  0.4184000  3
   9275   9297   9281   9280     1  180.0000771  0.4184000  2
   9275   9297   9281   9280     1  0.0000000  1.6024720  3
   9276   9279   9280   9281     1  180.0000771  0.8368000  1
   9276   9279   9280   9281     1  180.0000771  1.0460000  2
   9276   9279   9280   9281     1  0.0000000  0.7531200  3
   9276   9279   9280   9286     1  0.0000000  0.6508444  3
   9276   9275   9289   9295     1  0.0000000  0.6508444  3
   9276   9275   9297   9281     1  180.0000771  0.4184000  2
   9276   9275   9297   9281     1  0.0000000  1.6024720  3
   9279   9280   9281   9285     1  0.0000000  0.6508444  3
   9279   9280   9281   9297     1  0.0000000  0.6508444  3
   9279   9276   9275   9289     1  180.0000771  0.8368000  1
   9279   9276   9275   9289     1  180.0000771  1.0460000  2
   9279   9276   9275   9289     1  0.0000000  0.7531200  3
   9279   9276   9275   9297     1  0.0000000  0.6508444  3
   9280   9279   9276   9288     1  0.0000000  0.6508444  3
   9281   9297   9275   9289     1  180.0000771  0.4184000  2
   9281   9297   9275   9289     1  0.0000000  1.6024720  3
   9281   9280   9279   9287     1  0.0000000  0.6508444  3
   9285   9281   9280   9286     1  0.0000000  4.9162000  2
   9285   9281   9280   9286     1  0.0000000  0.6024960  3
   9286   9280   9281   9297     1  0.0000000  4.9162000  2
   9286   9280   9281   9297     1  0.0000000  0.6024960  3
   9286   9280   9279   9287     1  0.0000000  4.9162000  2
   9286   9280   9279   9287     1  0.0000000  0.6024960  3
   9287   9279   9276   9288     1  0.0000000  4.9162000  2
   9287   9279   9276   9288     1  0.0000000  0.6024960  3
   9288   9276   9275   9289     1  0.0000000  0.6508444  3
   9288   9276   9275   9297     1  0.0000000  4.9162000  2
   9288   9276   9275   9297     1  0.0000000  0.6024960  3
   9295   9289   9275   9297     1  0.0000000  4.9162000  2
   9295   9289   9275   9297     1  0.0000000  0.6024960  3
   9298   9299   9302   9303     1  180.0000771  0.8368000  1
   9298   9299   9302   9303     1  180.0000771  1.0460000  2
   9298   9299   9302   9303     1  0.0000000  0.7531200  3
   9298   9299   9302   9310     1  0.0000000  0.6508444  3
   9298   9320   9304   9303     1  180.0000771  0.4184000  2
   9298   9320   9304   9303     1  0.0000000  1.6024720  3
   9298   9320   9304   9308     1  180.0000771  5.6484000  1
   9298   9320   9304   9308     1  180.0000771  3.5564000  2
   9298   9320   9304   9308     1  0.0000000  0.4184000  3
   9299   9298   9312   9318     1  0.0000000  0.6508444  3
   9299   9298   9320   9304     1  180.0000771  0.4184000  2
   9299   9298   9320   9304     1  0.0000000  1.6024720  3
   9299   9302   9303   9304     1  180.0000771  0.8368000  1
   9299   9302   9303   9304     1  180.0000771  1.0460000  2
   9299   9302   9303   9304     1  0.0000000  0.7531200  3
   9299   9302   9303   9309     1  0.0000000  0.6508444  3
   9302   9299   9298   9312     1  180.0000771  0.8368000  1
   9302   9299   9298   9312     1  180.0000771  1.0460000  2
   9302   9299   9298   9312     1  0.0000000  0.7531200  3
   9302   9299   9298   9320     1  0.0000000  0.6508444  3
   9302   9303   9304   9308     1  0.0000000  0.6508444  3
   9302   9303   9304   9320     1  0.0000000  0.6508444  3
   9303   9302   9299   9311     1  0.0000000  0.6508444  3
   9304   9303   9302   9310     1  0.0000000  0.6508444  3
   9304   9320   9298   9312     1  180.0000771  0.4184000  2
   9304   9320   9298   9312     1  0.0000000  1.6024720  3
   9308   9304   9303   9309     1  0.0000000  4.9162000  2
   9308   9304   9303   9309     1  0.0000000  0.6024960  3
   9309   9303   9302   9310     1  0.0000000  4.9162000  2
   9309   9303   9302   9310     1  0.0000000  0.6024960  3
   9309   9303   9304   9320     1  0.0000000  4.9162000  2
   9309   9303   9304   9320     1  0.0000000  0.6024960  3
   9310   9302   9299   9311     1  0.0000000  4.9162000  2
   9310   9302   9299   9311     1  0.0000000  0.6024960  3
   9311   9299   9298   9312     1  0.0000000  0.6508444  3
   9311   9299   9298   9320     1  0.0000000  4.9162000  2
   9311   9299   9298   9320     1  0.0000000  0.6024960  3
   9318   9312   9298   9320     1  0.0000000  4.9162000  2
   9318   9312   9298   9320     1  0.0000000  0.6024960  3
   9321   9322   9325   9326     1  180.0000771  0.8368000  1
   9321   9322   9325   9326     1  180.0000771  1.0460000  2
   9321   9322   9325   9326     1  0.0000000  0.7531200  3
   9321   9322   9325   9333     1  0.0000000  0.6508444  3
   9321   9343   9327   9331     1  180.0000771  5.6484000  1
   9321   9343   9327   9331     1  180.0000771  3.5564000  2
   9321   9343   9327   9331     1  0.0000000  0.4184000  3
   9321   9343   9327   9326     1  180.0000771  0.4184000  2
   9321   9343   9327   9326     1  0.0000000  1.6024720  3
   9322   9325   9326   9327     1  180.0000771  0.8368000  1
   9322   9325   9326   9327     1  180.0000771  1.0460000  2
   9322   9325   9326   9327     1  0.0000000  0.7531200  3
   9322   9325   9326   9332     1  0.0000000  0.6508444  3
   9322   9321   9335   9341     1  0.0000000  0.6508444  3
   9322   9321   9343   9327     1  180.0000771  0.4184000  2
   9322   9321   9343   9327     1  0.0000000  1.6024720  3
   9325   9326   9327   9331     1  0.0000000  0.6508444  3
   9325   9326   9327   9343     1  0.0000000  0.6508444  3
   9325   9322   9321   9335     1  180.0000771  0.8368000  1
   9325   9322   9321   9335     1  180.0000771  1.0460000  2
   9325   9322   9321   9335     1  0.0000000  0.7531200  3
   9325   9322   9321   9343     1  0.0000000  0.6508444  3
   9326   9325   9322   9334     1  0.0000000  0.6508444  3
   9327   9343   9321   9335     1  180.0000771  0.4184000  2
   9327   9343   9321   9335     1  0.0000000  1.6024720  3
   9327   9326   9325   9333     1  0.0000000  0.6508444  3
   9331   9327   9326   9332     1  0.0000000  4.9162000  2
   9331   9327   9326   9332     1  0.0000000  0.6024960  3
   9332   9326   9327   9343     1  0.0000000  4.9162000  2
   9332   9326   9327   9343     1  0.0000000  0.6024960  3
   9332   9326   9325   9333     1  0.0000000  4.9162000  2
   9332   9326   9325   9333     1  0.0000000  0.6024960  3
   9333   9325   9322   9334     1  0.0000000  4.9162000  2
   9333   9325   9322   9334     1  0.0000000  0.6024960  3
   9334   9322   9321   9335     1  0.0000000  0.6508444  3
   9334   9322   9321   9343     1  0.0000000  4.9162000  2
   9334   9322   9321   9343     1  0.0000000  0.6024960  3
   9341   9335   9321   9343     1  0.0000000  4.9162000  2
   9341   9335   9321   9343     1  0.0000000  0.6024960  3
   9344   9345   9348   9349     1  180.0000771  0.8368000  1
   9344   9345   9348   9349     1  180.0000771  1.0460000  2
   9344   9345   9348   9349     1  0.0000000  0.7531200  3
   9344   9345   9348   9356     1  0.0000000  0.6508444  3
   9344   9366   9350   9349     1  180.0000771  0.4184000  2
   9344   9366   9350   9349     1  0.0000000  1.6024720  3
   9344   9366   9350   9354     1  180.0000771  5.6484000  1
   9344   9366   9350   9354     1  180.0000771  3.5564000  2
   9344   9366   9350   9354     1  0.0000000  0.4184000  3
   9345   9344   9358   9364     1  0.0000000  0.6508444  3
   9345   9344   9366   9350     1  180.0000771  0.4184000  2
   9345   9344   9366   9350     1  0.0000000  1.6024720  3
   9345   9348   9349   9350     1  180.0000771  0.8368000  1
   9345   9348   9349   9350     1  180.0000771  1.0460000  2
   9345   9348   9349   9350     1  0.0000000  0.7531200  3
   9345   9348   9349   9355     1  0.0000000  0.6508444  3
   9348   9345   9344   9358     1  180.0000771  0.8368000  1
   9348   9345   9344   9358     1  180.0000771  1.0460000  2
   9348   9345   9344   9358     1  0.0000000  0.7531200  3
   9348   9345   9344   9366     1  0.0000000  0.6508444  3
   9348   9349   9350   9354     1  0.0000000  0.6508444  3
   9348   9349   9350   9366     1  0.0000000  0.6508444  3
   9349   9348   9345   9357     1  0.0000000  0.6508444  3
   9350   9349   9348   9356     1  0.0000000  0.6508444  3
   9350   9366   9344   9358     1  180.0000771  0.4184000  2
   9350   9366   9344   9358     1  0.0000000  1.6024720  3
   9354   9350   9349   9355     1  0.0000000  4.9162000  2
   9354   9350   9349   9355     1  0.0000000  0.6024960  3
   9355   9349   9348   9356     1  0.0000000  4.9162000  2
   9355   9349   9348   9356     1  0.0000000  0.6024960  3
   9355   9349   9350   9366     1  0.0000000  4.9162000  2
   9355   9349   9350   9366     1  0.0000000  0.6024960  3
   9356   9348   9345   9357     1  0.0000000  4.9162000  2
   9356   9348   9345   9357     1  0.0000000  0.6024960  3
   9357   9345   9344   9358     1  0.0000000  0.6508444  3
   9357   9345   9344   9366     1  0.0000000  4.9162000  2
   9357   9345   9344   9366     1  0.0000000  0.6024960  3
   9364   9358   9344   9366     1  0.0000000  4.9162000  2
   9364   9358   9344   9366     1  0.0000000  0.6024960  3
   9367   9368   9371   9372     1  180.0000771  0.8368000  1
   9367   9368   9371   9372     1  180.0000771  1.0460000  2
   9367   9368   9371   9372     1  0.0000000  0.7531200  3
   9367   9368   9371   9379     1  0.0000000  0.6508444  3
   9367   9389   9373   9377     1  180.0000771  5.6484000  1
   9367   9389   9373   9377     1  180.0000771  3.5564000  2
   9367   9389   9373   9377     1  0.0000000  0.4184000  3
   9367   9389   9373   9372     1  180.0000771  0.4184000  2
   9367   9389   9373   9372     1  0.0000000  1.6024720  3
   9368   9371   9372   9373     1  180.0000771  0.8368000  1
   9368   9371   9372   9373     1  180.0000771  1.0460000  2
   9368   9371   9372   9373     1  0.0000000  0.7531200  3
   9368   9371   9372   9378     1  0.0000000  0.6508444  3
   9368   9367   9381   9387     1  0.0000000  0.6508444  3
   9368   9367   9389   9373     1  180.0000771  0.4184000  2
   9368   9367   9389   9373     1  0.0000000  1.6024720  3
   9371   9372   9373   9377     1  0.0000000  0.6508444  3
   9371   9372   9373   9389     1  0.0000000  0.6508444  3
   9371   9368   9367   9381     1  180.0000771  0.8368000  1
   9371   9368   9367   9381     1  180.0000771  1.0460000  2
   9371   9368   9367   9381     1  0.0000000  0.7531200  3
   9371   9368   9367   9389     1  0.0000000  0.6508444  3
   9372   9371   9368   9380     1  0.0000000  0.6508444  3
   9373   9389   9367   9381     1  180.0000771  0.4184000  2
   9373   9389   9367   9381     1  0.0000000  1.6024720  3
   9373   9372   9371   9379     1  0.0000000  0.6508444  3
   9377   9373   9372   9378     1  0.0000000  4.9162000  2
   9377   9373   9372   9378     1  0.0000000  0.6024960  3
   9378   9372   9373   9389     1  0.0000000  4.9162000  2
   9378   9372   9373   9389     1  0.0000000  0.6024960  3
   9378   9372   9371   9379     1  0.0000000  4.9162000  2
   9378   9372   9371   9379     1  0.0000000  0.6024960  3
   9379   9371   9368   9380     1  0.0000000  4.9162000  2
   9379   9371   9368   9380     1  0.0000000  0.6024960  3
   9380   9368   9367   9381     1  0.0000000  0.6508444  3
   9380   9368   9367   9389     1  0.0000000  4.9162000  2
   9380   9368   9367   9389     1  0.0000000  0.6024960  3
   9387   9381   9367   9389     1  0.0000000  4.9162000  2
   9387   9381   9367   9389     1  0.0000000  0.6024960  3
   9390   9391   9394   9395     1  180.0000771  0.8368000  1
   9390   9391   9394   9395     1  180.0000771  1.0460000  2
   9390   9391   9394   9395     1  0.0000000  0.7531200  3
   9390   9391   9394   9402     1  0.0000000  0.6508444  3
   9390   9412   9396   9395     1  180.0000771  0.4184000  2
   9390   9412   9396   9395     1  0.0000000  1.6024720  3
   9390   9412   9396   9400     1  180.0000771  5.6484000  1
   9390   9412   9396   9400     1  180.0000771  3.5564000  2
   9390   9412   9396   9400     1  0.0000000  0.4184000  3
   9391   9390   9404   9410     1  0.0000000  0.6508444  3
   9391   9390   9412   9396     1  180.0000771  0.4184000  2
   9391   9390   9412   9396     1  0.0000000  1.6024720  3
   9391   9394   9395   9396     1  180.0000771  0.8368000  1
   9391   9394   9395   9396     1  180.0000771  1.0460000  2
   9391   9394   9395   9396     1  0.0000000  0.7531200  3
   9391   9394   9395   9401     1  0.0000000  0.6508444  3
   9394   9391   9390   9404     1  180.0000771  0.8368000  1
   9394   9391   9390   9404     1  180.0000771  1.0460000  2
   9394   9391   9390   9404     1  0.0000000  0.7531200  3
   9394   9391   9390   9412     1  0.0000000  0.6508444  3
   9394   9395   9396   9400     1  0.0000000  0.6508444  3
   9394   9395   9396   9412     1  0.0000000  0.6508444  3
   9395   9394   9391   9403     1  0.0000000  0.6508444  3
   9396   9395   9394   9402     1  0.0000000  0.6508444  3
   9396   9412   9390   9404     1  180.0000771  0.4184000  2
   9396   9412   9390   9404     1  0.0000000  1.6024720  3
   9400   9396   9395   9401     1  0.0000000  4.9162000  2
   9400   9396   9395   9401     1  0.0000000  0.6024960  3
   9401   9395   9394   9402     1  0.0000000  4.9162000  2
   9401   9395   9394   9402     1  0.0000000  0.6024960  3
   9401   9395   9396   9412     1  0.0000000  4.9162000  2
   9401   9395   9396   9412     1  0.0000000  0.6024960  3
   9402   9394   9391   9403     1  0.0000000  4.9162000  2
   9402   9394   9391   9403     1  0.0000000  0.6024960  3
   9403   9391   9390   9404     1  0.0000000  0.6508444  3
   9403   9391   9390   9412     1  0.0000000  4.9162000  2
   9403   9391   9390   9412     1  0.0000000  0.6024960  3
   9410   9404   9390   9412     1  0.0000000  4.9162000  2
   9410   9404   9390   9412     1  0.0000000  0.6024960  3
   9413   9414   9417   9418     1  180.0000771  0.8368000  1
   9413   9414   9417   9418     1  180.0000771  1.0460000  2
   9413   9414   9417   9418     1  0.0000000  0.7531200  3
   9413   9414   9417   9425     1  0.0000000  0.6508444  3
   9413   9435   9419   9423     1  180.0000771  5.6484000  1
   9413   9435   9419   9423     1  180.0000771  3.5564000  2
   9413   9435   9419   9423     1  0.0000000  0.4184000  3
   9413   9435   9419   9418     1  180.0000771  0.4184000  2
   9413   9435   9419   9418     1  0.0000000  1.6024720  3
   9414   9417   9418   9419     1  180.0000771  0.8368000  1
   9414   9417   9418   9419     1  180.0000771  1.0460000  2
   9414   9417   9418   9419     1  0.0000000  0.7531200  3
   9414   9417   9418   9424     1  0.0000000  0.6508444  3
   9414   9413   9427   9433     1  0.0000000  0.6508444  3
   9414   9413   9435   9419     1  180.0000771  0.4184000  2
   9414   9413   9435   9419     1  0.0000000  1.6024720  3
   9417   9418   9419   9423     1  0.0000000  0.6508444  3
   9417   9418   9419   9435     1  0.0000000  0.6508444  3
   9417   9414   9413   9427     1  180.0000771  0.8368000  1
   9417   9414   9413   9427     1  180.0000771  1.0460000  2
   9417   9414   9413   9427     1  0.0000000  0.7531200  3
   9417   9414   9413   9435     1  0.0000000  0.6508444  3
   9418   9417   9414   9426     1  0.0000000  0.6508444  3
   9419   9435   9413   9427     1  180.0000771  0.4184000  2
   9419   9435   9413   9427     1  0.0000000  1.6024720  3
   9419   9418   9417   9425     1  0.0000000  0.6508444  3
   9423   9419   9418   9424     1  0.0000000  4.9162000  2
   9423   9419   9418   9424     1  0.0000000  0.6024960  3
   9424   9418   9419   9435     1  0.0000000  4.9162000  2
   9424   9418   9419   9435     1  0.0000000  0.6024960  3
   9424   9418   9417   9425     1  0.0000000  4.9162000  2
   9424   9418   9417   9425     1  0.0000000  0.6024960  3
   9425   9417   9414   9426     1  0.0000000  4.9162000  2
   9425   9417   9414   9426     1  0.0000000  0.6024960  3
   9426   9414   9413   9427     1  0.0000000  0.6508444  3
   9426   9414   9413   9435     1  0.0000000  4.9162000  2
   9426   9414   9413   9435     1  0.0000000  0.6024960  3
   9433   9427   9413   9435     1  0.0000000  4.9162000  2
   9433   9427   9413   9435     1  0.0000000  0.6024960  3
   9436   9437   9440   9441     1  180.0000771  0.8368000  1
   9436   9437   9440   9441     1  180.0000771  1.0460000  2
   9436   9437   9440   9441     1  0.0000000  0.7531200  3
   9436   9437   9440   9448     1  0.0000000  0.6508444  3
   9436   9458   9442   9441     1  180.0000771  0.4184000  2
   9436   9458   9442   9441     1  0.0000000  1.6024720  3
   9436   9458   9442   9446     1  180.0000771  5.6484000  1
   9436   9458   9442   9446     1  180.0000771  3.5564000  2
   9436   9458   9442   9446     1  0.0000000  0.4184000  3
   9437   9436   9450   9456     1  0.0000000  0.6508444  3
   9437   9436   9458   9442     1  180.0000771  0.4184000  2
   9437   9436   9458   9442     1  0.0000000  1.6024720  3
   9437   9440   9441   9442     1  180.0000771  0.8368000  1
   9437   9440   9441   9442     1  180.0000771  1.0460000  2
   9437   9440   9441   9442     1  0.0000000  0.7531200  3
   9437   9440   9441   9447     1  0.0000000  0.6508444  3
   9440   9437   9436   9450     1  180.0000771  0.8368000  1
   9440   9437   9436   9450     1  180.0000771  1.0460000  2
   9440   9437   9436   9450     1  0.0000000  0.7531200  3
   9440   9437   9436   9458     1  0.0000000  0.6508444  3
   9440   9441   9442   9446     1  0.0000000  0.6508444  3
   9440   9441   9442   9458     1  0.0000000  0.6508444  3
   9441   9440   9437   9449     1  0.0000000  0.6508444  3
   9442   9441   9440   9448     1  0.0000000  0.6508444  3
   9442   9458   9436   9450     1  180.0000771  0.4184000  2
   9442   9458   9436   9450     1  0.0000000  1.6024720  3
   9446   9442   9441   9447     1  0.0000000  4.9162000  2
   9446   9442   9441   9447     1  0.0000000  0.6024960  3
   9447   9441   9440   9448     1  0.0000000  4.9162000  2
   9447   9441   9440   9448     1  0.0000000  0.6024960  3
   9447   9441   9442   9458     1  0.0000000  4.9162000  2
   9447   9441   9442   9458     1  0.0000000  0.6024960  3
   9448   9440   9437   9449     1  0.0000000  4.9162000  2
   9448   9440   9437   9449     1  0.0000000  0.6024960  3
   9449   9437   9436   9450     1  0.0000000  0.6508444  3
   9449   9437   9436   9458     1  0.0000000  4.9162000  2
   9449   9437   9436   9458     1  0.0000000  0.6024960  3
   9456   9450   9436   9458     1  0.0000000  4.9162000  2
   9456   9450   9436   9458     1  0.0000000  0.6024960  3
   9459   9460   9463   9464     1  180.0000771  0.8368000  1
   9459   9460   9463   9464     1  180.0000771  1.0460000  2
   9459   9460   9463   9464     1  0.0000000  0.7531200  3
   9459   9460   9463   9471     1  0.0000000  0.6508444  3
   9459   9481   9465   9469     1  180.0000771  5.6484000  1
   9459   9481   9465   9469     1  180.0000771  3.5564000  2
   9459   9481   9465   9469     1  0.0000000  0.4184000  3
   9459   9481   9465   9464     1  180.0000771  0.4184000  2
   9459   9481   9465   9464     1  0.0000000  1.6024720  3
   9460   9463   9464   9465     1  180.0000771  0.8368000  1
   9460   9463   9464   9465     1  180.0000771  1.0460000  2
   9460   9463   9464   9465     1  0.0000000  0.7531200  3
   9460   9463   9464   9470     1  0.0000000  0.6508444  3
   9460   9459   9473   9479     1  0.0000000  0.6508444  3
   9460   9459   9481   9465     1  180.0000771  0.4184000  2
   9460   9459   9481   9465     1  0.0000000  1.6024720  3
   9463   9464   9465   9469     1  0.0000000  0.6508444  3
   9463   9464   9465   9481     1  0.0000000  0.6508444  3
   9463   9460   9459   9473     1  180.0000771  0.8368000  1
   9463   9460   9459   9473     1  180.0000771  1.0460000  2
   9463   9460   9459   9473     1  0.0000000  0.7531200  3
   9463   9460   9459   9481     1  0.0000000  0.6508444  3
   9464   9463   9460   9472     1  0.0000000  0.6508444  3
   9465   9481   9459   9473     1  180.0000771  0.4184000  2
   9465   9481   9459   9473     1  0.0000000  1.6024720  3
   9465   9464   9463   9471     1  0.0000000  0.6508444  3
   9469   9465   9464   9470     1  0.0000000  4.9162000  2
   9469   9465   9464   9470     1  0.0000000  0.6024960  3
   9470   9464   9465   9481     1  0.0000000  4.9162000  2
   9470   9464   9465   9481     1  0.0000000  0.6024960  3
   9470   9464   9463   9471     1  0.0000000  4.9162000  2
   9470   9464   9463   9471     1  0.0000000  0.6024960  3
   9471   9463   9460   9472     1  0.0000000  4.9162000  2
   9471   9463   9460   9472     1  0.0000000  0.6024960  3
   9472   9460   9459   9473     1  0.0000000  0.6508444  3
   9472   9460   9459   9481     1  0.0000000  4.9162000  2
   9472   9460   9459   9481     1  0.0000000  0.6024960  3
   9479   9473   9459   9481     1  0.0000000  4.9162000  2
   9479   9473   9459   9481     1  0.0000000  0.6024960  3
   9482   9483   9486   9487     1  180.0000771  0.8368000  1
   9482   9483   9486   9487     1  180.0000771  1.0460000  2
   9482   9483   9486   9487     1  0.0000000  0.7531200  3
   9482   9483   9486   9494     1  0.0000000  0.6508444  3
   9482   9504   9488   9487     1  180.0000771  0.4184000  2
   9482   9504   9488   9487     1  0.0000000  1.6024720  3
   9482   9504   9488   9492     1  180.0000771  5.6484000  1
   9482   9504   9488   9492     1  180.0000771  3.5564000  2
   9482   9504   9488   9492     1  0.0000000  0.4184000  3
   9483   9482   9496   9502     1  0.0000000  0.6508444  3
   9483   9482   9504   9488     1  180.0000771  0.4184000  2
   9483   9482   9504   9488     1  0.0000000  1.6024720  3
   9483   9486   9487   9488     1  180.0000771  0.8368000  1
   9483   9486   9487   9488     1  180.0000771  1.0460000  2
   9483   9486   9487   9488     1  0.0000000  0.7531200  3
   9483   9486   9487   9493     1  0.0000000  0.6508444  3
   9486   9483   9482   9496     1  180.0000771  0.8368000  1
   9486   9483   9482   9496     1  180.0000771  1.0460000  2
   9486   9483   9482   9496     1  0.0000000  0.7531200  3
   9486   9483   9482   9504     1  0.0000000  0.6508444  3
   9486   9487   9488   9492     1  0.0000000  0.6508444  3
   9486   9487   9488   9504     1  0.0000000  0.6508444  3
   9487   9486   9483   9495     1  0.0000000  0.6508444  3
   9488   9487   9486   9494     1  0.0000000  0.6508444  3
   9488   9504   9482   9496     1  180.0000771  0.4184000  2
   9488   9504   9482   9496     1  0.0000000  1.6024720  3
   9492   9488   9487   9493     1  0.0000000  4.9162000  2
   9492   9488   9487   9493     1  0.0000000  0.6024960  3
   9493   9487   9486   9494     1  0.0000000  4.9162000  2
   9493   9487   9486   9494     1  0.0000000  0.6024960  3
   9493   9487   9488   9504     1  0.0000000  4.9162000  2
   9493   9487   9488   9504     1  0.0000000  0.6024960  3
   9494   9486   9483   9495     1  0.0000000  4.9162000  2
   9494   9486   9483   9495     1  0.0000000  0.6024960  3
   9495   9483   9482   9496     1  0.0000000  0.6508444  3
   9495   9483   9482   9504     1  0.0000000  4.9162000  2
   9495   9483   9482   9504     1  0.0000000  0.6024960  3
   9502   9496   9482   9504     1  0.0000000  4.9162000  2
   9502   9496   9482   9504     1  0.0000000  0.6024960  3
   9505   9506   9509   9510     1  180.0000771  0.8368000  1
   9505   9506   9509   9510     1  180.0000771  1.0460000  2
   9505   9506   9509   9510     1  0.0000000  0.7531200  3
   9505   9506   9509   9517     1  0.0000000  0.6508444  3
   9505   9527   9511   9515     1  180.0000771  5.6484000  1
   9505   9527   9511   9515     1  180.0000771  3.5564000  2
   9505   9527   9511   9515     1  0.0000000  0.4184000  3
   9505   9527   9511   9510     1  180.0000771  0.4184000  2
   9505   9527   9511   9510     1  0.0000000  1.6024720  3
   9506   9509   9510   9511     1  180.0000771  0.8368000  1
   9506   9509   9510   9511     1  180.0000771  1.0460000  2
   9506   9509   9510   9511     1  0.0000000  0.7531200  3
   9506   9509   9510   9516     1  0.0000000  0.6508444  3
   9506   9505   9519   9525     1  0.0000000  0.6508444  3
   9506   9505   9527   9511     1  180.0000771  0.4184000  2
   9506   9505   9527   9511     1  0.0000000  1.6024720  3
   9509   9510   9511   9515     1  0.0000000  0.6508444  3
   9509   9510   9511   9527     1  0.0000000  0.6508444  3
   9509   9506   9505   9519     1  180.0000771  0.8368000  1
   9509   9506   9505   9519     1  180.0000771  1.0460000  2
   9509   9506   9505   9519     1  0.0000000  0.7531200  3
   9509   9506   9505   9527     1  0.0000000  0.6508444  3
   9510   9509   9506   9518     1  0.0000000  0.6508444  3
   9511   9527   9505   9519     1  180.0000771  0.4184000  2
   9511   9527   9505   9519     1  0.0000000  1.6024720  3
   9511   9510   9509   9517     1  0.0000000  0.6508444  3
   9515   9511   9510   9516     1  0.0000000  4.9162000  2
   9515   9511   9510   9516     1  0.0000000  0.6024960  3
   9516   9510   9511   9527     1  0.0000000  4.9162000  2
   9516   9510   9511   9527     1  0.0000000  0.6024960  3
   9516   9510   9509   9517     1  0.0000000  4.9162000  2
   9516   9510   9509   9517     1  0.0000000  0.6024960  3
   9517   9509   9506   9518     1  0.0000000  4.9162000  2
   9517   9509   9506   9518     1  0.0000000  0.6024960  3
   9518   9506   9505   9519     1  0.0000000  0.6508444  3
   9518   9506   9505   9527     1  0.0000000  4.9162000  2
   9518   9506   9505   9527     1  0.0000000  0.6024960  3
   9525   9519   9505   9527     1  0.0000000  4.9162000  2
   9525   9519   9505   9527     1  0.0000000  0.6024960  3
   9528   9529   9532   9533     1  180.0000771  0.8368000  1
   9528   9529   9532   9533     1  180.0000771  1.0460000  2
   9528   9529   9532   9533     1  0.0000000  0.7531200  3
   9528   9529   9532   9540     1  0.0000000  0.6508444  3
   9528   9550   9534   9533     1  180.0000771  0.4184000  2
   9528   9550   9534   9533     1  0.0000000  1.6024720  3
   9528   9550   9534   9538     1  180.0000771  5.6484000  1
   9528   9550   9534   9538     1  180.0000771  3.5564000  2
   9528   9550   9534   9538     1  0.0000000  0.4184000  3
   9529   9528   9542   9548     1  0.0000000  0.6508444  3
   9529   9528   9550   9534     1  180.0000771  0.4184000  2
   9529   9528   9550   9534     1  0.0000000  1.6024720  3
   9529   9532   9533   9534     1  180.0000771  0.8368000  1
   9529   9532   9533   9534     1  180.0000771  1.0460000  2
   9529   9532   9533   9534     1  0.0000000  0.7531200  3
   9529   9532   9533   9539     1  0.0000000  0.6508444  3
   9532   9529   9528   9542     1  180.0000771  0.8368000  1
   9532   9529   9528   9542     1  180.0000771  1.0460000  2
   9532   9529   9528   9542     1  0.0000000  0.7531200  3
   9532   9529   9528   9550     1  0.0000000  0.6508444  3
   9532   9533   9534   9538     1  0.0000000  0.6508444  3
   9532   9533   9534   9550     1  0.0000000  0.6508444  3
   9533   9532   9529   9541     1  0.0000000  0.6508444  3
   9534   9533   9532   9540     1  0.0000000  0.6508444  3
   9534   9550   9528   9542     1  180.0000771  0.4184000  2
   9534   9550   9528   9542     1  0.0000000  1.6024720  3
   9538   9534   9533   9539     1  0.0000000  4.9162000  2
   9538   9534   9533   9539     1  0.0000000  0.6024960  3
   9539   9533   9532   9540     1  0.0000000  4.9162000  2
   9539   9533   9532   9540     1  0.0000000  0.6024960  3
   9539   9533   9534   9550     1  0.0000000  4.9162000  2
   9539   9533   9534   9550     1  0.0000000  0.6024960  3
   9540   9532   9529   9541     1  0.0000000  4.9162000  2
   9540   9532   9529   9541     1  0.0000000  0.6024960  3
   9541   9529   9528   9542     1  0.0000000  0.6508444  3
   9541   9529   9528   9550     1  0.0000000  4.9162000  2
   9541   9529   9528   9550     1  0.0000000  0.6024960  3
   9548   9542   9528   9550     1  0.0000000  4.9162000  2
   9548   9542   9528   9550     1  0.0000000  0.6024960  3
   9551   9552   9555   9556     1  180.0000771  0.8368000  1
   9551   9552   9555   9556     1  180.0000771  1.0460000  2
   9551   9552   9555   9556     1  0.0000000  0.7531200  3
   9551   9552   9555   9563     1  0.0000000  0.6508444  3
   9551   9573   9557   9561     1  180.0000771  5.6484000  1
   9551   9573   9557   9561     1  180.0000771  3.5564000  2
   9551   9573   9557   9561     1  0.0000000  0.4184000  3
   9551   9573   9557   9556     1  180.0000771  0.4184000  2
   9551   9573   9557   9556     1  0.0000000  1.6024720  3
   9552   9555   9556   9557     1  180.0000771  0.8368000  1
   9552   9555   9556   9557     1  180.0000771  1.0460000  2
   9552   9555   9556   9557     1  0.0000000  0.7531200  3
   9552   9555   9556   9562     1  0.0000000  0.6508444  3
   9552   9551   9565   9571     1  0.0000000  0.6508444  3
   9552   9551   9573   9557     1  180.0000771  0.4184000  2
   9552   9551   9573   9557     1  0.0000000  1.6024720  3
   9555   9556   9557   9561     1  0.0000000  0.6508444  3
   9555   9556   9557   9573     1  0.0000000  0.6508444  3
   9555   9552   9551   9565     1  180.0000771  0.8368000  1
   9555   9552   9551   9565     1  180.0000771  1.0460000  2
   9555   9552   9551   9565     1  0.0000000  0.7531200  3
   9555   9552   9551   9573     1  0.0000000  0.6508444  3
   9556   9555   9552   9564     1  0.0000000  0.6508444  3
   9557   9573   9551   9565     1  180.0000771  0.4184000  2
   9557   9573   9551   9565     1  0.0000000  1.6024720  3
   9557   9556   9555   9563     1  0.0000000  0.6508444  3
   9561   9557   9556   9562     1  0.0000000  4.9162000  2
   9561   9557   9556   9562     1  0.0000000  0.6024960  3
   9562   9556   9557   9573     1  0.0000000  4.9162000  2
   9562   9556   9557   9573     1  0.0000000  0.6024960  3
   9562   9556   9555   9563     1  0.0000000  4.9162000  2
   9562   9556   9555   9563     1  0.0000000  0.6024960  3
   9563   9555   9552   9564     1  0.0000000  4.9162000  2
   9563   9555   9552   9564     1  0.0000000  0.6024960  3
   9564   9552   9551   9565     1  0.0000000  0.6508444  3
   9564   9552   9551   9573     1  0.0000000  4.9162000  2
   9564   9552   9551   9573     1  0.0000000  0.6024960  3
   9571   9565   9551   9573     1  0.0000000  4.9162000  2
   9571   9565   9551   9573     1  0.0000000  0.6024960  3
   9574   9575   9578   9579     1  180.0000771  0.8368000  1
   9574   9575   9578   9579     1  180.0000771  1.0460000  2
   9574   9575   9578   9579     1  0.0000000  0.7531200  3
   9574   9575   9578   9586     1  0.0000000  0.6508444  3
   9574   9596   9580   9579     1  180.0000771  0.4184000  2
   9574   9596   9580   9579     1  0.0000000  1.6024720  3
   9574   9596   9580   9584     1  180.0000771  5.6484000  1
   9574   9596   9580   9584     1  180.0000771  3.5564000  2
   9574   9596   9580   9584     1  0.0000000  0.4184000  3
   9575   9574   9588   9594     1  0.0000000  0.6508444  3
   9575   9574   9596   9580     1  180.0000771  0.4184000  2
   9575   9574   9596   9580     1  0.0000000  1.6024720  3
   9575   9578   9579   9580     1  180.0000771  0.8368000  1
   9575   9578   9579   9580     1  180.0000771  1.0460000  2
   9575   9578   9579   9580     1  0.0000000  0.7531200  3
   9575   9578   9579   9585     1  0.0000000  0.6508444  3
   9578   9575   9574   9588     1  180.0000771  0.8368000  1
   9578   9575   9574   9588     1  180.0000771  1.0460000  2
   9578   9575   9574   9588     1  0.0000000  0.7531200  3
   9578   9575   9574   9596     1  0.0000000  0.6508444  3
   9578   9579   9580   9584     1  0.0000000  0.6508444  3
   9578   9579   9580   9596     1  0.0000000  0.6508444  3
   9579   9578   9575   9587     1  0.0000000  0.6508444  3
   9580   9579   9578   9586     1  0.0000000  0.6508444  3
   9580   9596   9574   9588     1  180.0000771  0.4184000  2
   9580   9596   9574   9588     1  0.0000000  1.6024720  3
   9584   9580   9579   9585     1  0.0000000  4.9162000  2
   9584   9580   9579   9585     1  0.0000000  0.6024960  3
   9585   9579   9578   9586     1  0.0000000  4.9162000  2
   9585   9579   9578   9586     1  0.0000000  0.6024960  3
   9585   9579   9580   9596     1  0.0000000  4.9162000  2
   9585   9579   9580   9596     1  0.0000000  0.6024960  3
   9586   9578   9575   9587     1  0.0000000  4.9162000  2
   9586   9578   9575   9587     1  0.0000000  0.6024960  3
   9587   9575   9574   9588     1  0.0000000  0.6508444  3
   9587   9575   9574   9596     1  0.0000000  4.9162000  2
   9587   9575   9574   9596     1  0.0000000  0.6024960  3
   9594   9588   9574   9596     1  0.0000000  4.9162000  2
   9594   9588   9574   9596     1  0.0000000  0.6024960  3
   9597   9598   9601   9602     1  180.0000771  0.8368000  1
   9597   9598   9601   9602     1  180.0000771  1.0460000  2
   9597   9598   9601   9602     1  0.0000000  0.7531200  3
   9597   9598   9601   9609     1  0.0000000  0.6508444  3
   9597   9619   9603   9607     1  180.0000771  5.6484000  1
   9597   9619   9603   9607     1  180.0000771  3.5564000  2
   9597   9619   9603   9607     1  0.0000000  0.4184000  3
   9597   9619   9603   9602     1  180.0000771  0.4184000  2
   9597   9619   9603   9602     1  0.0000000  1.6024720  3
   9598   9601   9602   9603     1  180.0000771  0.8368000  1
   9598   9601   9602   9603     1  180.0000771  1.0460000  2
   9598   9601   9602   9603     1  0.0000000  0.7531200  3
   9598   9601   9602   9608     1  0.0000000  0.6508444  3
   9598   9597   9611   9617     1  0.0000000  0.6508444  3
   9598   9597   9619   9603     1  180.0000771  0.4184000  2
   9598   9597   9619   9603     1  0.0000000  1.6024720  3
   9601   9602   9603   9607     1  0.0000000  0.6508444  3
   9601   9602   9603   9619     1  0.0000000  0.6508444  3
   9601   9598   9597   9611     1  180.0000771  0.8368000  1
   9601   9598   9597   9611     1  180.0000771  1.0460000  2
   9601   9598   9597   9611     1  0.0000000  0.7531200  3
   9601   9598   9597   9619     1  0.0000000  0.6508444  3
   9602   9601   9598   9610     1  0.0000000  0.6508444  3
   9603   9619   9597   9611     1  180.0000771  0.4184000  2
   9603   9619   9597   9611     1  0.0000000  1.6024720  3
   9603   9602   9601   9609     1  0.0000000  0.6508444  3
   9607   9603   9602   9608     1  0.0000000  4.9162000  2
   9607   9603   9602   9608     1  0.0000000  0.6024960  3
   9608   9602   9603   9619     1  0.0000000  4.9162000  2
   9608   9602   9603   9619     1  0.0000000  0.6024960  3
   9608   9602   9601   9609     1  0.0000000  4.9162000  2
   9608   9602   9601   9609     1  0.0000000  0.6024960  3
   9609   9601   9598   9610     1  0.0000000  4.9162000  2
   9609   9601   9598   9610     1  0.0000000  0.6024960  3
   9610   9598   9597   9611     1  0.0000000  0.6508444  3
   9610   9598   9597   9619     1  0.0000000  4.9162000  2
   9610   9598   9597   9619     1  0.0000000  0.6024960  3
   9617   9611   9597   9619     1  0.0000000  4.9162000  2
   9617   9611   9597   9619     1  0.0000000  0.6024960  3
   9620   9621   9624   9625     1  180.0000771  0.8368000  1
   9620   9621   9624   9625     1  180.0000771  1.0460000  2
   9620   9621   9624   9625     1  0.0000000  0.7531200  3
   9620   9621   9624   9632     1  0.0000000  0.6508444  3
   9620   9642   9626   9625     1  180.0000771  0.4184000  2
   9620   9642   9626   9625     1  0.0000000  1.6024720  3
   9620   9642   9626   9630     1  180.0000771  5.6484000  1
   9620   9642   9626   9630     1  180.0000771  3.5564000  2
   9620   9642   9626   9630     1  0.0000000  0.4184000  3
   9621   9620   9634   9640     1  0.0000000  0.6508444  3
   9621   9620   9642   9626     1  180.0000771  0.4184000  2
   9621   9620   9642   9626     1  0.0000000  1.6024720  3
   9621   9624   9625   9626     1  180.0000771  0.8368000  1
   9621   9624   9625   9626     1  180.0000771  1.0460000  2
   9621   9624   9625   9626     1  0.0000000  0.7531200  3
   9621   9624   9625   9631     1  0.0000000  0.6508444  3
   9624   9621   9620   9634     1  180.0000771  0.8368000  1
   9624   9621   9620   9634     1  180.0000771  1.0460000  2
   9624   9621   9620   9634     1  0.0000000  0.7531200  3
   9624   9621   9620   9642     1  0.0000000  0.6508444  3
   9624   9625   9626   9630     1  0.0000000  0.6508444  3
   9624   9625   9626   9642     1  0.0000000  0.6508444  3
   9625   9624   9621   9633     1  0.0000000  0.6508444  3
   9626   9625   9624   9632     1  0.0000000  0.6508444  3
   9626   9642   9620   9634     1  180.0000771  0.4184000  2
   9626   9642   9620   9634     1  0.0000000  1.6024720  3
   9630   9626   9625   9631     1  0.0000000  4.9162000  2
   9630   9626   9625   9631     1  0.0000000  0.6024960  3
   9631   9625   9624   9632     1  0.0000000  4.9162000  2
   9631   9625   9624   9632     1  0.0000000  0.6024960  3
   9631   9625   9626   9642     1  0.0000000  4.9162000  2
   9631   9625   9626   9642     1  0.0000000  0.6024960  3
   9632   9624   9621   9633     1  0.0000000  4.9162000  2
   9632   9624   9621   9633     1  0.0000000  0.6024960  3
   9633   9621   9620   9634     1  0.0000000  0.6508444  3
   9633   9621   9620   9642     1  0.0000000  4.9162000  2
   9633   9621   9620   9642     1  0.0000000  0.6024960  3
   9640   9634   9620   9642     1  0.0000000  4.9162000  2
   9640   9634   9620   9642     1  0.0000000  0.6024960  3
   9643   9644   9647   9648     1  180.0000771  0.8368000  1
   9643   9644   9647   9648     1  180.0000771  1.0460000  2
   9643   9644   9647   9648     1  0.0000000  0.7531200  3
   9643   9644   9647   9655     1  0.0000000  0.6508444  3
   9643   9665   9649   9653     1  180.0000771  5.6484000  1
   9643   9665   9649   9653     1  180.0000771  3.5564000  2
   9643   9665   9649   9653     1  0.0000000  0.4184000  3
   9643   9665   9649   9648     1  180.0000771  0.4184000  2
   9643   9665   9649   9648     1  0.0000000  1.6024720  3
   9644   9647   9648   9649     1  180.0000771  0.8368000  1
   9644   9647   9648   9649     1  180.0000771  1.0460000  2
   9644   9647   9648   9649     1  0.0000000  0.7531200  3
   9644   9647   9648   9654     1  0.0000000  0.6508444  3
   9644   9643   9657   9663     1  0.0000000  0.6508444  3
   9644   9643   9665   9649     1  180.0000771  0.4184000  2
   9644   9643   9665   9649     1  0.0000000  1.6024720  3
   9647   9648   9649   9653     1  0.0000000  0.6508444  3
   9647   9648   9649   9665     1  0.0000000  0.6508444  3
   9647   9644   9643   9657     1  180.0000771  0.8368000  1
   9647   9644   9643   9657     1  180.0000771  1.0460000  2
   9647   9644   9643   9657     1  0.0000000  0.7531200  3
   9647   9644   9643   9665     1  0.0000000  0.6508444  3
   9648   9647   9644   9656     1  0.0000000  0.6508444  3
   9649   9665   9643   9657     1  180.0000771  0.4184000  2
   9649   9665   9643   9657     1  0.0000000  1.6024720  3
   9649   9648   9647   9655     1  0.0000000  0.6508444  3
   9653   9649   9648   9654     1  0.0000000  4.9162000  2
   9653   9649   9648   9654     1  0.0000000  0.6024960  3
   9654   9648   9649   9665     1  0.0000000  4.9162000  2
   9654   9648   9649   9665     1  0.0000000  0.6024960  3
   9654   9648   9647   9655     1  0.0000000  4.9162000  2
   9654   9648   9647   9655     1  0.0000000  0.6024960  3
   9655   9647   9644   9656     1  0.0000000  4.9162000  2
   9655   9647   9644   9656     1  0.0000000  0.6024960  3
   9656   9644   9643   9657     1  0.0000000  0.6508444  3
   9656   9644   9643   9665     1  0.0000000  4.9162000  2
   9656   9644   9643   9665     1  0.0000000  0.6024960  3
   9663   9657   9643   9665     1  0.0000000  4.9162000  2
   9663   9657   9643   9665     1  0.0000000  0.6024960  3
   9666   9667   9670   9671     1  180.0000771  0.8368000  1
   9666   9667   9670   9671     1  180.0000771  1.0460000  2
   9666   9667   9670   9671     1  0.0000000  0.7531200  3
   9666   9667   9670   9678     1  0.0000000  0.6508444  3
   9666   9688   9672   9671     1  180.0000771  0.4184000  2
   9666   9688   9672   9671     1  0.0000000  1.6024720  3
   9666   9688   9672   9676     1  180.0000771  5.6484000  1
   9666   9688   9672   9676     1  180.0000771  3.5564000  2
   9666   9688   9672   9676     1  0.0000000  0.4184000  3
   9667   9666   9680   9686     1  0.0000000  0.6508444  3
   9667   9666   9688   9672     1  180.0000771  0.4184000  2
   9667   9666   9688   9672     1  0.0000000  1.6024720  3
   9667   9670   9671   9672     1  180.0000771  0.8368000  1
   9667   9670   9671   9672     1  180.0000771  1.0460000  2
   9667   9670   9671   9672     1  0.0000000  0.7531200  3
   9667   9670   9671   9677     1  0.0000000  0.6508444  3
   9670   9667   9666   9680     1  180.0000771  0.8368000  1
   9670   9667   9666   9680     1  180.0000771  1.0460000  2
   9670   9667   9666   9680     1  0.0000000  0.7531200  3
   9670   9667   9666   9688     1  0.0000000  0.6508444  3
   9670   9671   9672   9676     1  0.0000000  0.6508444  3
   9670   9671   9672   9688     1  0.0000000  0.6508444  3
   9671   9670   9667   9679     1  0.0000000  0.6508444  3
   9672   9671   9670   9678     1  0.0000000  0.6508444  3
   9672   9688   9666   9680     1  180.0000771  0.4184000  2
   9672   9688   9666   9680     1  0.0000000  1.6024720  3
   9676   9672   9671   9677     1  0.0000000  4.9162000  2
   9676   9672   9671   9677     1  0.0000000  0.6024960  3
   9677   9671   9670   9678     1  0.0000000  4.9162000  2
   9677   9671   9670   9678     1  0.0000000  0.6024960  3
   9677   9671   9672   9688     1  0.0000000  4.9162000  2
   9677   9671   9672   9688     1  0.0000000  0.6024960  3
   9678   9670   9667   9679     1  0.0000000  4.9162000  2
   9678   9670   9667   9679     1  0.0000000  0.6024960  3
   9679   9667   9666   9680     1  0.0000000  0.6508444  3
   9679   9667   9666   9688     1  0.0000000  4.9162000  2
   9679   9667   9666   9688     1  0.0000000  0.6024960  3
   9686   9680   9666   9688     1  0.0000000  4.9162000  2
   9686   9680   9666   9688     1  0.0000000  0.6024960  3
   9689   9690   9693   9694     1  180.0000771  0.8368000  1
   9689   9690   9693   9694     1  180.0000771  1.0460000  2
   9689   9690   9693   9694     1  0.0000000  0.7531200  3
   9689   9690   9693   9701     1  0.0000000  0.6508444  3
   9689   9711   9695   9699     1  180.0000771  5.6484000  1
   9689   9711   9695   9699     1  180.0000771  3.5564000  2
   9689   9711   9695   9699     1  0.0000000  0.4184000  3
   9689   9711   9695   9694     1  180.0000771  0.4184000  2
   9689   9711   9695   9694     1  0.0000000  1.6024720  3
   9690   9693   9694   9695     1  180.0000771  0.8368000  1
   9690   9693   9694   9695     1  180.0000771  1.0460000  2
   9690   9693   9694   9695     1  0.0000000  0.7531200  3
   9690   9693   9694   9700     1  0.0000000  0.6508444  3
   9690   9689   9703   9709     1  0.0000000  0.6508444  3
   9690   9689   9711   9695     1  180.0000771  0.4184000  2
   9690   9689   9711   9695     1  0.0000000  1.6024720  3
   9693   9694   9695   9699     1  0.0000000  0.6508444  3
   9693   9694   9695   9711     1  0.0000000  0.6508444  3
   9693   9690   9689   9703     1  180.0000771  0.8368000  1
   9693   9690   9689   9703     1  180.0000771  1.0460000  2
   9693   9690   9689   9703     1  0.0000000  0.7531200  3
   9693   9690   9689   9711     1  0.0000000  0.6508444  3
   9694   9693   9690   9702     1  0.0000000  0.6508444  3
   9695   9711   9689   9703     1  180.0000771  0.4184000  2
   9695   9711   9689   9703     1  0.0000000  1.6024720  3
   9695   9694   9693   9701     1  0.0000000  0.6508444  3
   9699   9695   9694   9700     1  0.0000000  4.9162000  2
   9699   9695   9694   9700     1  0.0000000  0.6024960  3
   9700   9694   9695   9711     1  0.0000000  4.9162000  2
   9700   9694   9695   9711     1  0.0000000  0.6024960  3
   9700   9694   9693   9701     1  0.0000000  4.9162000  2
   9700   9694   9693   9701     1  0.0000000  0.6024960  3
   9701   9693   9690   9702     1  0.0000000  4.9162000  2
   9701   9693   9690   9702     1  0.0000000  0.6024960  3
   9702   9690   9689   9703     1  0.0000000  0.6508444  3
   9702   9690   9689   9711     1  0.0000000  4.9162000  2
   9702   9690   9689   9711     1  0.0000000  0.6024960  3
   9709   9703   9689   9711     1  0.0000000  4.9162000  2
   9709   9703   9689   9711     1  0.0000000  0.6024960  3
   9712   9713   9716   9717     1  180.0000771  0.8368000  1
   9712   9713   9716   9717     1  180.0000771  1.0460000  2
   9712   9713   9716   9717     1  0.0000000  0.7531200  3
   9712   9713   9716   9724     1  0.0000000  0.6508444  3
   9712   9734   9718   9717     1  180.0000771  0.4184000  2
   9712   9734   9718   9717     1  0.0000000  1.6024720  3
   9712   9734   9718   9722     1  180.0000771  5.6484000  1
   9712   9734   9718   9722     1  180.0000771  3.5564000  2
   9712   9734   9718   9722     1  0.0000000  0.4184000  3
   9713   9712   9726   9732     1  0.0000000  0.6508444  3
   9713   9712   9734   9718     1  180.0000771  0.4184000  2
   9713   9712   9734   9718     1  0.0000000  1.6024720  3
   9713   9716   9717   9718     1  180.0000771  0.8368000  1
   9713   9716   9717   9718     1  180.0000771  1.0460000  2
   9713   9716   9717   9718     1  0.0000000  0.7531200  3
   9713   9716   9717   9723     1  0.0000000  0.6508444  3
   9716   9713   9712   9726     1  180.0000771  0.8368000  1
   9716   9713   9712   9726     1  180.0000771  1.0460000  2
   9716   9713   9712   9726     1  0.0000000  0.7531200  3
   9716   9713   9712   9734     1  0.0000000  0.6508444  3
   9716   9717   9718   9722     1  0.0000000  0.6508444  3
   9716   9717   9718   9734     1  0.0000000  0.6508444  3
   9717   9716   9713   9725     1  0.0000000  0.6508444  3
   9718   9717   9716   9724     1  0.0000000  0.6508444  3
   9718   9734   9712   9726     1  180.0000771  0.4184000  2
   9718   9734   9712   9726     1  0.0000000  1.6024720  3
   9722   9718   9717   9723     1  0.0000000  4.9162000  2
   9722   9718   9717   9723     1  0.0000000  0.6024960  3
   9723   9717   9716   9724     1  0.0000000  4.9162000  2
   9723   9717   9716   9724     1  0.0000000  0.6024960  3
   9723   9717   9718   9734     1  0.0000000  4.9162000  2
   9723   9717   9718   9734     1  0.0000000  0.6024960  3
   9724   9716   9713   9725     1  0.0000000  4.9162000  2
   9724   9716   9713   9725     1  0.0000000  0.6024960  3
   9725   9713   9712   9726     1  0.0000000  0.6508444  3
   9725   9713   9712   9734     1  0.0000000  4.9162000  2
   9725   9713   9712   9734     1  0.0000000  0.6024960  3
   9732   9726   9712   9734     1  0.0000000  4.9162000  2
   9732   9726   9712   9734     1  0.0000000  0.6024960  3
   9735   9736   9739   9740     1  180.0000771  0.8368000  1
   9735   9736   9739   9740     1  180.0000771  1.0460000  2
   9735   9736   9739   9740     1  0.0000000  0.7531200  3
   9735   9736   9739   9747     1  0.0000000  0.6508444  3
   9735   9757   9741   9745     1  180.0000771  5.6484000  1
   9735   9757   9741   9745     1  180.0000771  3.5564000  2
   9735   9757   9741   9745     1  0.0000000  0.4184000  3
   9735   9757   9741   9740     1  180.0000771  0.4184000  2
   9735   9757   9741   9740     1  0.0000000  1.6024720  3
   9736   9739   9740   9741     1  180.0000771  0.8368000  1
   9736   9739   9740   9741     1  180.0000771  1.0460000  2
   9736   9739   9740   9741     1  0.0000000  0.7531200  3
   9736   9739   9740   9746     1  0.0000000  0.6508444  3
   9736   9735   9749   9755     1  0.0000000  0.6508444  3
   9736   9735   9757   9741     1  180.0000771  0.4184000  2
   9736   9735   9757   9741     1  0.0000000  1.6024720  3
   9739   9740   9741   9745     1  0.0000000  0.6508444  3
   9739   9740   9741   9757     1  0.0000000  0.6508444  3
   9739   9736   9735   9749     1  180.0000771  0.8368000  1
   9739   9736   9735   9749     1  180.0000771  1.0460000  2
   9739   9736   9735   9749     1  0.0000000  0.7531200  3
   9739   9736   9735   9757     1  0.0000000  0.6508444  3
   9740   9739   9736   9748     1  0.0000000  0.6508444  3
   9741   9757   9735   9749     1  180.0000771  0.4184000  2
   9741   9757   9735   9749     1  0.0000000  1.6024720  3
   9741   9740   9739   9747     1  0.0000000  0.6508444  3
   9745   9741   9740   9746     1  0.0000000  4.9162000  2
   9745   9741   9740   9746     1  0.0000000  0.6024960  3
   9746   9740   9741   9757     1  0.0000000  4.9162000  2
   9746   9740   9741   9757     1  0.0000000  0.6024960  3
   9746   9740   9739   9747     1  0.0000000  4.9162000  2
   9746   9740   9739   9747     1  0.0000000  0.6024960  3
   9747   9739   9736   9748     1  0.0000000  4.9162000  2
   9747   9739   9736   9748     1  0.0000000  0.6024960  3
   9748   9736   9735   9749     1  0.0000000  0.6508444  3
   9748   9736   9735   9757     1  0.0000000  4.9162000  2
   9748   9736   9735   9757     1  0.0000000  0.6024960  3
   9755   9749   9735   9757     1  0.0000000  4.9162000  2
   9755   9749   9735   9757     1  0.0000000  0.6024960  3
   9758   9759   9762   9763     1  180.0000771  0.8368000  1
   9758   9759   9762   9763     1  180.0000771  1.0460000  2
   9758   9759   9762   9763     1  0.0000000  0.7531200  3
   9758   9759   9762   9770     1  0.0000000  0.6508444  3
   9758   9780   9764   9763     1  180.0000771  0.4184000  2
   9758   9780   9764   9763     1  0.0000000  1.6024720  3
   9758   9780   9764   9768     1  180.0000771  5.6484000  1
   9758   9780   9764   9768     1  180.0000771  3.5564000  2
   9758   9780   9764   9768     1  0.0000000  0.4184000  3
   9759   9758   9772   9778     1  0.0000000  0.6508444  3
   9759   9758   9780   9764     1  180.0000771  0.4184000  2
   9759   9758   9780   9764     1  0.0000000  1.6024720  3
   9759   9762   9763   9764     1  180.0000771  0.8368000  1
   9759   9762   9763   9764     1  180.0000771  1.0460000  2
   9759   9762   9763   9764     1  0.0000000  0.7531200  3
   9759   9762   9763   9769     1  0.0000000  0.6508444  3
   9762   9759   9758   9772     1  180.0000771  0.8368000  1
   9762   9759   9758   9772     1  180.0000771  1.0460000  2
   9762   9759   9758   9772     1  0.0000000  0.7531200  3
   9762   9759   9758   9780     1  0.0000000  0.6508444  3
   9762   9763   9764   9768     1  0.0000000  0.6508444  3
   9762   9763   9764   9780     1  0.0000000  0.6508444  3
   9763   9762   9759   9771     1  0.0000000  0.6508444  3
   9764   9763   9762   9770     1  0.0000000  0.6508444  3
   9764   9780   9758   9772     1  180.0000771  0.4184000  2
   9764   9780   9758   9772     1  0.0000000  1.6024720  3
   9768   9764   9763   9769     1  0.0000000  4.9162000  2
   9768   9764   9763   9769     1  0.0000000  0.6024960  3
   9769   9763   9762   9770     1  0.0000000  4.9162000  2
   9769   9763   9762   9770     1  0.0000000  0.6024960  3
   9769   9763   9764   9780     1  0.0000000  4.9162000  2
   9769   9763   9764   9780     1  0.0000000  0.6024960  3
   9770   9762   9759   9771     1  0.0000000  4.9162000  2
   9770   9762   9759   9771     1  0.0000000  0.6024960  3
   9771   9759   9758   9772     1  0.0000000  0.6508444  3
   9771   9759   9758   9780     1  0.0000000  4.9162000  2
   9771   9759   9758   9780     1  0.0000000  0.6024960  3
   9778   9772   9758   9780     1  0.0000000  4.9162000  2
   9778   9772   9758   9780     1  0.0000000  0.6024960  3
   9781   9782   9785   9786     1  180.0000771  0.8368000  1
   9781   9782   9785   9786     1  180.0000771  1.0460000  2
   9781   9782   9785   9786     1  0.0000000  0.7531200  3
   9781   9782   9785   9793     1  0.0000000  0.6508444  3
   9781   9803   9787   9791     1  180.0000771  5.6484000  1
   9781   9803   9787   9791     1  180.0000771  3.5564000  2
   9781   9803   9787   9791     1  0.0000000  0.4184000  3
   9781   9803   9787   9786     1  180.0000771  0.4184000  2
   9781   9803   9787   9786     1  0.0000000  1.6024720  3
   9782   9785   9786   9787     1  180.0000771  0.8368000  1
   9782   9785   9786   9787     1  180.0000771  1.0460000  2
   9782   9785   9786   9787     1  0.0000000  0.7531200  3
   9782   9785   9786   9792     1  0.0000000  0.6508444  3
   9782   9781   9795   9801     1  0.0000000  0.6508444  3
   9782   9781   9803   9787     1  180.0000771  0.4184000  2
   9782   9781   9803   9787     1  0.0000000  1.6024720  3
   9785   9786   9787   9791     1  0.0000000  0.6508444  3
   9785   9786   9787   9803     1  0.0000000  0.6508444  3
   9785   9782   9781   9795     1  180.0000771  0.8368000  1
   9785   9782   9781   9795     1  180.0000771  1.0460000  2
   9785   9782   9781   9795     1  0.0000000  0.7531200  3
   9785   9782   9781   9803     1  0.0000000  0.6508444  3
   9786   9785   9782   9794     1  0.0000000  0.6508444  3
   9787   9803   9781   9795     1  180.0000771  0.4184000  2
   9787   9803   9781   9795     1  0.0000000  1.6024720  3
   9787   9786   9785   9793     1  0.0000000  0.6508444  3
   9791   9787   9786   9792     1  0.0000000  4.9162000  2
   9791   9787   9786   9792     1  0.0000000  0.6024960  3
   9792   9786   9787   9803     1  0.0000000  4.9162000  2
   9792   9786   9787   9803     1  0.0000000  0.6024960  3
   9792   9786   9785   9793     1  0.0000000  4.9162000  2
   9792   9786   9785   9793     1  0.0000000  0.6024960  3
   9793   9785   9782   9794     1  0.0000000  4.9162000  2
   9793   9785   9782   9794     1  0.0000000  0.6024960  3
   9794   9782   9781   9795     1  0.0000000  0.6508444  3
   9794   9782   9781   9803     1  0.0000000  4.9162000  2
   9794   9782   9781   9803     1  0.0000000  0.6024960  3
   9801   9795   9781   9803     1  0.0000000  4.9162000  2
   9801   9795   9781   9803     1  0.0000000  0.6024960  3
   9804   9805   9808   9809     1  180.0000771  0.8368000  1
   9804   9805   9808   9809     1  180.0000771  1.0460000  2
   9804   9805   9808   9809     1  0.0000000  0.7531200  3
   9804   9805   9808   9816     1  0.0000000  0.6508444  3
   9804   9826   9810   9809     1  180.0000771  0.4184000  2
   9804   9826   9810   9809     1  0.0000000  1.6024720  3
   9804   9826   9810   9814     1  180.0000771  5.6484000  1
   9804   9826   9810   9814     1  180.0000771  3.5564000  2
   9804   9826   9810   9814     1  0.0000000  0.4184000  3
   9805   9804   9818   9824     1  0.0000000  0.6508444  3
   9805   9804   9826   9810     1  180.0000771  0.4184000  2
   9805   9804   9826   9810     1  0.0000000  1.6024720  3
   9805   9808   9809   9810     1  180.0000771  0.8368000  1
   9805   9808   9809   9810     1  180.0000771  1.0460000  2
   9805   9808   9809   9810     1  0.0000000  0.7531200  3
   9805   9808   9809   9815     1  0.0000000  0.6508444  3
   9808   9805   9804   9818     1  180.0000771  0.8368000  1
   9808   9805   9804   9818     1  180.0000771  1.0460000  2
   9808   9805   9804   9818     1  0.0000000  0.7531200  3
   9808   9805   9804   9826     1  0.0000000  0.6508444  3
   9808   9809   9810   9814     1  0.0000000  0.6508444  3
   9808   9809   9810   9826     1  0.0000000  0.6508444  3
   9809   9808   9805   9817     1  0.0000000  0.6508444  3
   9810   9809   9808   9816     1  0.0000000  0.6508444  3
   9810   9826   9804   9818     1  180.0000771  0.4184000  2
   9810   9826   9804   9818     1  0.0000000  1.6024720  3
   9814   9810   9809   9815     1  0.0000000  4.9162000  2
   9814   9810   9809   9815     1  0.0000000  0.6024960  3
   9815   9809   9808   9816     1  0.0000000  4.9162000  2
   9815   9809   9808   9816     1  0.0000000  0.6024960  3
   9815   9809   9810   9826     1  0.0000000  4.9162000  2
   9815   9809   9810   9826     1  0.0000000  0.6024960  3
   9816   9808   9805   9817     1  0.0000000  4.9162000  2
   9816   9808   9805   9817     1  0.0000000  0.6024960  3
   9817   9805   9804   9818     1  0.0000000  0.6508444  3
   9817   9805   9804   9826     1  0.0000000  4.9162000  2
   9817   9805   9804   9826     1  0.0000000  0.6024960  3
   9824   9818   9804   9826     1  0.0000000  4.9162000  2
   9824   9818   9804   9826     1  0.0000000  0.6024960  3
   9827   9828   9831   9832     1  180.0000771  0.8368000  1
   9827   9828   9831   9832     1  180.0000771  1.0460000  2
   9827   9828   9831   9832     1  0.0000000  0.7531200  3
   9827   9828   9831   9839     1  0.0000000  0.6508444  3
   9827   9849   9833   9837     1  180.0000771  5.6484000  1
   9827   9849   9833   9837     1  180.0000771  3.5564000  2
   9827   9849   9833   9837     1  0.0000000  0.4184000  3
   9827   9849   9833   9832     1  180.0000771  0.4184000  2
   9827   9849   9833   9832     1  0.0000000  1.6024720  3
   9828   9831   9832   9833     1  180.0000771  0.8368000  1
   9828   9831   9832   9833     1  180.0000771  1.0460000  2
   9828   9831   9832   9833     1  0.0000000  0.7531200  3
   9828   9831   9832   9838     1  0.0000000  0.6508444  3
   9828   9827   9841   9847     1  0.0000000  0.6508444  3
   9828   9827   9849   9833     1  180.0000771  0.4184000  2
   9828   9827   9849   9833     1  0.0000000  1.6024720  3
   9831   9832   9833   9837     1  0.0000000  0.6508444  3
   9831   9832   9833   9849     1  0.0000000  0.6508444  3
   9831   9828   9827   9841     1  180.0000771  0.8368000  1
   9831   9828   9827   9841     1  180.0000771  1.0460000  2
   9831   9828   9827   9841     1  0.0000000  0.7531200  3
   9831   9828   9827   9849     1  0.0000000  0.6508444  3
   9832   9831   9828   9840     1  0.0000000  0.6508444  3
   9833   9849   9827   9841     1  180.0000771  0.4184000  2
   9833   9849   9827   9841     1  0.0000000  1.6024720  3
   9833   9832   9831   9839     1  0.0000000  0.6508444  3
   9837   9833   9832   9838     1  0.0000000  4.9162000  2
   9837   9833   9832   9838     1  0.0000000  0.6024960  3
   9838   9832   9833   9849     1  0.0000000  4.9162000  2
   9838   9832   9833   9849     1  0.0000000  0.6024960  3
   9838   9832   9831   9839     1  0.0000000  4.9162000  2
   9838   9832   9831   9839     1  0.0000000  0.6024960  3
   9839   9831   9828   9840     1  0.0000000  4.9162000  2
   9839   9831   9828   9840     1  0.0000000  0.6024960  3
   9840   9828   9827   9841     1  0.0000000  0.6508444  3
   9840   9828   9827   9849     1  0.0000000  4.9162000  2
   9840   9828   9827   9849     1  0.0000000  0.6024960  3
   9847   9841   9827   9849     1  0.0000000  4.9162000  2
   9847   9841   9827   9849     1  0.0000000  0.6024960  3
   9850   9851   9854   9855     1  180.0000771  0.8368000  1
   9850   9851   9854   9855     1  180.0000771  1.0460000  2
   9850   9851   9854   9855     1  0.0000000  0.7531200  3
   9850   9851   9854   9862     1  0.0000000  0.6508444  3
   9850   9872   9856   9855     1  180.0000771  0.4184000  2
   9850   9872   9856   9855     1  0.0000000  1.6024720  3
   9850   9872   9856   9860     1  180.0000771  5.6484000  1
   9850   9872   9856   9860     1  180.0000771  3.5564000  2
   9850   9872   9856   9860     1  0.0000000  0.4184000  3
   9851   9850   9864   9870     1  0.0000000  0.6508444  3
   9851   9850   9872   9856     1  180.0000771  0.4184000  2
   9851   9850   9872   9856     1  0.0000000  1.6024720  3
   9851   9854   9855   9856     1  180.0000771  0.8368000  1
   9851   9854   9855   9856     1  180.0000771  1.0460000  2
   9851   9854   9855   9856     1  0.0000000  0.7531200  3
   9851   9854   9855   9861     1  0.0000000  0.6508444  3
   9854   9851   9850   9864     1  180.0000771  0.8368000  1
   9854   9851   9850   9864     1  180.0000771  1.0460000  2
   9854   9851   9850   9864     1  0.0000000  0.7531200  3
   9854   9851   9850   9872     1  0.0000000  0.6508444  3
   9854   9855   9856   9860     1  0.0000000  0.6508444  3
   9854   9855   9856   9872     1  0.0000000  0.6508444  3
   9855   9854   9851   9863     1  0.0000000  0.6508444  3
   9856   9855   9854   9862     1  0.0000000  0.6508444  3
   9856   9872   9850   9864     1  180.0000771  0.4184000  2
   9856   9872   9850   9864     1  0.0000000  1.6024720  3
   9860   9856   9855   9861     1  0.0000000  4.9162000  2
   9860   9856   9855   9861     1  0.0000000  0.6024960  3
   9861   9855   9854   9862     1  0.0000000  4.9162000  2
   9861   9855   9854   9862     1  0.0000000  0.6024960  3
   9861   9855   9856   9872     1  0.0000000  4.9162000  2
   9861   9855   9856   9872     1  0.0000000  0.6024960  3
   9862   9854   9851   9863     1  0.0000000  4.9162000  2
   9862   9854   9851   9863     1  0.0000000  0.6024960  3
   9863   9851   9850   9864     1  0.0000000  0.6508444  3
   9863   9851   9850   9872     1  0.0000000  4.9162000  2
   9863   9851   9850   9872     1  0.0000000  0.6024960  3
   9870   9864   9850   9872     1  0.0000000  4.9162000  2
   9870   9864   9850   9872     1  0.0000000  0.6024960  3
   9873   9874   9877   9878     1  180.0000771  0.8368000  1
   9873   9874   9877   9878     1  180.0000771  1.0460000  2
   9873   9874   9877   9878     1  0.0000000  0.7531200  3
   9873   9874   9877   9885     1  0.0000000  0.6508444  3
   9873   9895   9879   9883     1  180.0000771  5.6484000  1
   9873   9895   9879   9883     1  180.0000771  3.5564000  2
   9873   9895   9879   9883     1  0.0000000  0.4184000  3
   9873   9895   9879   9878     1  180.0000771  0.4184000  2
   9873   9895   9879   9878     1  0.0000000  1.6024720  3
   9874   9877   9878   9879     1  180.0000771  0.8368000  1
   9874   9877   9878   9879     1  180.0000771  1.0460000  2
   9874   9877   9878   9879     1  0.0000000  0.7531200  3
   9874   9877   9878   9884     1  0.0000000  0.6508444  3
   9874   9873   9887   9893     1  0.0000000  0.6508444  3
   9874   9873   9895   9879     1  180.0000771  0.4184000  2
   9874   9873   9895   9879     1  0.0000000  1.6024720  3
   9877   9878   9879   9883     1  0.0000000  0.6508444  3
   9877   9878   9879   9895     1  0.0000000  0.6508444  3
   9877   9874   9873   9887     1  180.0000771  0.8368000  1
   9877   9874   9873   9887     1  180.0000771  1.0460000  2
   9877   9874   9873   9887     1  0.0000000  0.7531200  3
   9877   9874   9873   9895     1  0.0000000  0.6508444  3
   9878   9877   9874   9886     1  0.0000000  0.6508444  3
   9879   9895   9873   9887     1  180.0000771  0.4184000  2
   9879   9895   9873   9887     1  0.0000000  1.6024720  3
   9879   9878   9877   9885     1  0.0000000  0.6508444  3
   9883   9879   9878   9884     1  0.0000000  4.9162000  2
   9883   9879   9878   9884     1  0.0000000  0.6024960  3
   9884   9878   9879   9895     1  0.0000000  4.9162000  2
   9884   9878   9879   9895     1  0.0000000  0.6024960  3
   9884   9878   9877   9885     1  0.0000000  4.9162000  2
   9884   9878   9877   9885     1  0.0000000  0.6024960  3
   9885   9877   9874   9886     1  0.0000000  4.9162000  2
   9885   9877   9874   9886     1  0.0000000  0.6024960  3
   9886   9874   9873   9887     1  0.0000000  0.6508444  3
   9886   9874   9873   9895     1  0.0000000  4.9162000  2
   9886   9874   9873   9895     1  0.0000000  0.6024960  3
   9893   9887   9873   9895     1  0.0000000  4.9162000  2
   9893   9887   9873   9895     1  0.0000000  0.6024960  3
   9896   9897   9900   9901     1  180.0000771  0.8368000  1
   9896   9897   9900   9901     1  180.0000771  1.0460000  2
   9896   9897   9900   9901     1  0.0000000  0.7531200  3
   9896   9897   9900   9908     1  0.0000000  0.6508444  3
   9896   9918   9902   9901     1  180.0000771  0.4184000  2
   9896   9918   9902   9901     1  0.0000000  1.6024720  3
   9896   9918   9902   9906     1  180.0000771  5.6484000  1
   9896   9918   9902   9906     1  180.0000771  3.5564000  2
   9896   9918   9902   9906     1  0.0000000  0.4184000  3
   9897   9896   9910   9916     1  0.0000000  0.6508444  3
   9897   9896   9918   9902     1  180.0000771  0.4184000  2
   9897   9896   9918   9902     1  0.0000000  1.6024720  3
   9897   9900   9901   9902     1  180.0000771  0.8368000  1
   9897   9900   9901   9902     1  180.0000771  1.0460000  2
   9897   9900   9901   9902     1  0.0000000  0.7531200  3
   9897   9900   9901   9907     1  0.0000000  0.6508444  3
   9900   9897   9896   9910     1  180.0000771  0.8368000  1
   9900   9897   9896   9910     1  180.0000771  1.0460000  2
   9900   9897   9896   9910     1  0.0000000  0.7531200  3
   9900   9897   9896   9918     1  0.0000000  0.6508444  3
   9900   9901   9902   9906     1  0.0000000  0.6508444  3
   9900   9901   9902   9918     1  0.0000000  0.6508444  3
   9901   9900   9897   9909     1  0.0000000  0.6508444  3
   9902   9901   9900   9908     1  0.0000000  0.6508444  3
   9902   9918   9896   9910     1  180.0000771  0.4184000  2
   9902   9918   9896   9910     1  0.0000000  1.6024720  3
   9906   9902   9901   9907     1  0.0000000  4.9162000  2
   9906   9902   9901   9907     1  0.0000000  0.6024960  3
   9907   9901   9900   9908     1  0.0000000  4.9162000  2
   9907   9901   9900   9908     1  0.0000000  0.6024960  3
   9907   9901   9902   9918     1  0.0000000  4.9162000  2
   9907   9901   9902   9918     1  0.0000000  0.6024960  3
   9908   9900   9897   9909     1  0.0000000  4.9162000  2
   9908   9900   9897   9909     1  0.0000000  0.6024960  3
   9909   9897   9896   9910     1  0.0000000  0.6508444  3
   9909   9897   9896   9918     1  0.0000000  4.9162000  2
   9909   9897   9896   9918     1  0.0000000  0.6024960  3
   9916   9910   9896   9918     1  0.0000000  4.9162000  2
   9916   9910   9896   9918     1  0.0000000  0.6024960  3
   9919   9920   9923   9924     1  180.0000771  0.8368000  1
   9919   9920   9923   9924     1  180.0000771  1.0460000  2
   9919   9920   9923   9924     1  0.0000000  0.7531200  3
   9919   9920   9923   9931     1  0.0000000  0.6508444  3
   9919   9941   9925   9929     1  180.0000771  5.6484000  1
   9919   9941   9925   9929     1  180.0000771  3.5564000  2
   9919   9941   9925   9929     1  0.0000000  0.4184000  3
   9919   9941   9925   9924     1  180.0000771  0.4184000  2
   9919   9941   9925   9924     1  0.0000000  1.6024720  3
   9920   9923   9924   9925     1  180.0000771  0.8368000  1
   9920   9923   9924   9925     1  180.0000771  1.0460000  2
   9920   9923   9924   9925     1  0.0000000  0.7531200  3
   9920   9923   9924   9930     1  0.0000000  0.6508444  3
   9920   9919   9933   9939     1  0.0000000  0.6508444  3
   9920   9919   9941   9925     1  180.0000771  0.4184000  2
   9920   9919   9941   9925     1  0.0000000  1.6024720  3
   9923   9924   9925   9929     1  0.0000000  0.6508444  3
   9923   9924   9925   9941     1  0.0000000  0.6508444  3
   9923   9920   9919   9933     1  180.0000771  0.8368000  1
   9923   9920   9919   9933     1  180.0000771  1.0460000  2
   9923   9920   9919   9933     1  0.0000000  0.7531200  3
   9923   9920   9919   9941     1  0.0000000  0.6508444  3
   9924   9923   9920   9932     1  0.0000000  0.6508444  3
   9925   9941   9919   9933     1  180.0000771  0.4184000  2
   9925   9941   9919   9933     1  0.0000000  1.6024720  3
   9925   9924   9923   9931     1  0.0000000  0.6508444  3
   9929   9925   9924   9930     1  0.0000000  4.9162000  2
   9929   9925   9924   9930     1  0.0000000  0.6024960  3
   9930   9924   9925   9941     1  0.0000000  4.9162000  2
   9930   9924   9925   9941     1  0.0000000  0.6024960  3
   9930   9924   9923   9931     1  0.0000000  4.9162000  2
   9930   9924   9923   9931     1  0.0000000  0.6024960  3
   9931   9923   9920   9932     1  0.0000000  4.9162000  2
   9931   9923   9920   9932     1  0.0000000  0.6024960  3
   9932   9920   9919   9933     1  0.0000000  0.6508444  3
   9932   9920   9919   9941     1  0.0000000  4.9162000  2
   9932   9920   9919   9941     1  0.0000000  0.6024960  3
   9939   9933   9919   9941     1  0.0000000  4.9162000  2
   9939   9933   9919   9941     1  0.0000000  0.6024960  3
   9942   9943   9946   9947     1  180.0000771  0.8368000  1
   9942   9943   9946   9947     1  180.0000771  1.0460000  2
   9942   9943   9946   9947     1  0.0000000  0.7531200  3
   9942   9943   9946   9954     1  0.0000000  0.6508444  3
   9942   9964   9948   9947     1  180.0000771  0.4184000  2
   9942   9964   9948   9947     1  0.0000000  1.6024720  3
   9942   9964   9948   9952     1  180.0000771  5.6484000  1
   9942   9964   9948   9952     1  180.0000771  3.5564000  2
   9942   9964   9948   9952     1  0.0000000  0.4184000  3
   9943   9942   9956   9962     1  0.0000000  0.6508444  3
   9943   9942   9964   9948     1  180.0000771  0.4184000  2
   9943   9942   9964   9948     1  0.0000000  1.6024720  3
   9943   9946   9947   9948     1  180.0000771  0.8368000  1
   9943   9946   9947   9948     1  180.0000771  1.0460000  2
   9943   9946   9947   9948     1  0.0000000  0.7531200  3
   9943   9946   9947   9953     1  0.0000000  0.6508444  3
   9946   9943   9942   9956     1  180.0000771  0.8368000  1
   9946   9943   9942   9956     1  180.0000771  1.0460000  2
   9946   9943   9942   9956     1  0.0000000  0.7531200  3
   9946   9943   9942   9964     1  0.0000000  0.6508444  3
   9946   9947   9948   9952     1  0.0000000  0.6508444  3
   9946   9947   9948   9964     1  0.0000000  0.6508444  3
   9947   9946   9943   9955     1  0.0000000  0.6508444  3
   9948   9947   9946   9954     1  0.0000000  0.6508444  3
   9948   9964   9942   9956     1  180.0000771  0.4184000  2
   9948   9964   9942   9956     1  0.0000000  1.6024720  3
   9952   9948   9947   9953     1  0.0000000  4.9162000  2
   9952   9948   9947   9953     1  0.0000000  0.6024960  3
   9953   9947   9946   9954     1  0.0000000  4.9162000  2
   9953   9947   9946   9954     1  0.0000000  0.6024960  3
   9953   9947   9948   9964     1  0.0000000  4.9162000  2
   9953   9947   9948   9964     1  0.0000000  0.6024960  3
   9954   9946   9943   9955     1  0.0000000  4.9162000  2
   9954   9946   9943   9955     1  0.0000000  0.6024960  3
   9955   9943   9942   9956     1  0.0000000  0.6508444  3
   9955   9943   9942   9964     1  0.0000000  4.9162000  2
   9955   9943   9942   9964     1  0.0000000  0.6024960  3
   9962   9956   9942   9964     1  0.0000000  4.9162000  2
   9962   9956   9942   9964     1  0.0000000  0.6024960  3
   9965   9966   9969   9970     1  180.0000771  0.8368000  1
   9965   9966   9969   9970     1  180.0000771  1.0460000  2
   9965   9966   9969   9970     1  0.0000000  0.7531200  3
   9965   9966   9969   9977     1  0.0000000  0.6508444  3
   9965   9987   9971   9975     1  180.0000771  5.6484000  1
   9965   9987   9971   9975     1  180.0000771  3.5564000  2
   9965   9987   9971   9975     1  0.0000000  0.4184000  3
   9965   9987   9971   9970     1  180.0000771  0.4184000  2
   9965   9987   9971   9970     1  0.0000000  1.6024720  3
   9966   9969   9970   9971     1  180.0000771  0.8368000  1
   9966   9969   9970   9971     1  180.0000771  1.0460000  2
   9966   9969   9970   9971     1  0.0000000  0.7531200  3
   9966   9969   9970   9976     1  0.0000000  0.6508444  3
   9966   9965   9979   9985     1  0.0000000  0.6508444  3
   9966   9965   9987   9971     1  180.0000771  0.4184000  2
   9966   9965   9987   9971     1  0.0000000  1.6024720  3
   9969   9970   9971   9975     1  0.0000000  0.6508444  3
   9969   9970   9971   9987     1  0.0000000  0.6508444  3
   9969   9966   9965   9979     1  180.0000771  0.8368000  1
   9969   9966   9965   9979     1  180.0000771  1.0460000  2
   9969   9966   9965   9979     1  0.0000000  0.7531200  3
   9969   9966   9965   9987     1  0.0000000  0.6508444  3
   9970   9969   9966   9978     1  0.0000000  0.6508444  3
   9971   9987   9965   9979     1  180.0000771  0.4184000  2
   9971   9987   9965   9979     1  0.0000000  1.6024720  3
   9971   9970   9969   9977     1  0.0000000  0.6508444  3
   9975   9971   9970   9976     1  0.0000000  4.9162000  2
   9975   9971   9970   9976     1  0.0000000  0.6024960  3
   9976   9970   9971   9987     1  0.0000000  4.9162000  2
   9976   9970   9971   9987     1  0.0000000  0.6024960  3
   9976   9970   9969   9977     1  0.0000000  4.9162000  2
   9976   9970   9969   9977     1  0.0000000  0.6024960  3
   9977   9969   9966   9978     1  0.0000000  4.9162000  2
   9977   9969   9966   9978     1  0.0000000  0.6024960  3
   9978   9966   9965   9979     1  0.0000000  0.6508444  3
   9978   9966   9965   9987     1  0.0000000  4.9162000  2
   9978   9966   9965   9987     1  0.0000000  0.6024960  3
   9985   9979   9965   9987     1  0.0000000  4.9162000  2
   9985   9979   9965   9987     1  0.0000000  0.6024960  3
   9988   9989   9992   9993     1  180.0000771  0.8368000  1
   9988   9989   9992   9993     1  180.0000771  1.0460000  2
   9988   9989   9992   9993     1  0.0000000  0.7531200  3
   9988   9989   9992  10000     1  0.0000000  0.6508444  3
   9988  10010   9994   9993     1  180.0000771  0.4184000  2
   9988  10010   9994   9993     1  0.0000000  1.6024720  3
   9988  10010   9994   9998     1  180.0000771  5.6484000  1
   9988  10010   9994   9998     1  180.0000771  3.5564000  2
   9988  10010   9994   9998     1  0.0000000  0.4184000  3
   9989   9988  10002  10008     1  0.0000000  0.6508444  3
   9989   9988  10010   9994     1  180.0000771  0.4184000  2
   9989   9988  10010   9994     1  0.0000000  1.6024720  3
   9989   9992   9993   9994     1  180.0000771  0.8368000  1
   9989   9992   9993   9994     1  180.0000771  1.0460000  2
   9989   9992   9993   9994     1  0.0000000  0.7531200  3
   9989   9992   9993   9999     1  0.0000000  0.6508444  3
   9992   9989   9988  10002     1  180.0000771  0.8368000  1
   9992   9989   9988  10002     1  180.0000771  1.0460000  2
   9992   9989   9988  10002     1  0.0000000  0.7531200  3
   9992   9989   9988  10010     1  0.0000000  0.6508444  3
   9992   9993   9994   9998     1  0.0000000  0.6508444  3
   9992   9993   9994  10010     1  0.0000000  0.6508444  3
   9993   9992   9989  10001     1  0.0000000  0.6508444  3
   9994   9993   9992  10000     1  0.0000000  0.6508444  3
   9994  10010   9988  10002     1  180.0000771  0.4184000  2
   9994  10010   9988  10002     1  0.0000000  1.6024720  3
   9998   9994   9993   9999     1  0.0000000  4.9162000  2
   9998   9994   9993   9999     1  0.0000000  0.6024960  3
   9999   9993   9992  10000     1  0.0000000  4.9162000  2
   9999   9993   9992  10000     1  0.0000000  0.6024960  3
   9999   9993   9994  10010     1  0.0000000  4.9162000  2
   9999   9993   9994  10010     1  0.0000000  0.6024960  3
  10000   9992   9989  10001     1  0.0000000  4.9162000  2
  10000   9992   9989  10001     1  0.0000000  0.6024960  3
  10001   9989   9988  10002     1  0.0000000  0.6508444  3
  10001   9989   9988  10010     1  0.0000000  4.9162000  2
  10001   9989   9988  10010     1  0.0000000  0.6024960  3
  10008  10002   9988  10010     1  0.0000000  4.9162000  2
  10008  10002   9988  10010     1  0.0000000  0.6024960  3
  10011  10012  10015  10016     1  180.0000771  0.8368000  1
  10011  10012  10015  10016     1  180.0000771  1.0460000  2
  10011  10012  10015  10016     1  0.0000000  0.7531200  3
  10011  10012  10015  10023     1  0.0000000  0.6508444  3
  10011  10033  10017  10021     1  180.0000771  5.6484000  1
  10011  10033  10017  10021     1  180.0000771  3.5564000  2
  10011  10033  10017  10021     1  0.0000000  0.4184000  3
  10011  10033  10017  10016     1  180.0000771  0.4184000  2
  10011  10033  10017  10016     1  0.0000000  1.6024720  3
  10012  10015  10016  10017     1  180.0000771  0.8368000  1
  10012  10015  10016  10017     1  180.0000771  1.0460000  2
  10012  10015  10016  10017     1  0.0000000  0.7531200  3
  10012  10015  10016  10022     1  0.0000000  0.6508444  3
  10012  10011  10025  10031     1  0.0000000  0.6508444  3
  10012  10011  10033  10017     1  180.0000771  0.4184000  2
  10012  10011  10033  10017     1  0.0000000  1.6024720  3
  10015  10016  10017  10021     1  0.0000000  0.6508444  3
  10015  10016  10017  10033     1  0.0000000  0.6508444  3
  10015  10012  10011  10025     1  180.0000771  0.8368000  1
  10015  10012  10011  10025     1  180.0000771  1.0460000  2
  10015  10012  10011  10025     1  0.0000000  0.7531200  3
  10015  10012  10011  10033     1  0.0000000  0.6508444  3
  10016  10015  10012  10024     1  0.0000000  0.6508444  3
  10017  10033  10011  10025     1  180.0000771  0.4184000  2
  10017  10033  10011  10025     1  0.0000000  1.6024720  3
  10017  10016  10015  10023     1  0.0000000  0.6508444  3
  10021  10017  10016  10022     1  0.0000000  4.9162000  2
  10021  10017  10016  10022     1  0.0000000  0.6024960  3
  10022  10016  10017  10033     1  0.0000000  4.9162000  2
  10022  10016  10017  10033     1  0.0000000  0.6024960  3
  10022  10016  10015  10023     1  0.0000000  4.9162000  2
  10022  10016  10015  10023     1  0.0000000  0.6024960  3
  10023  10015  10012  10024     1  0.0000000  4.9162000  2
  10023  10015  10012  10024     1  0.0000000  0.6024960  3
  10024  10012  10011  10025     1  0.0000000  0.6508444  3
  10024  10012  10011  10033     1  0.0000000  4.9162000  2
  10024  10012  10011  10033     1  0.0000000  0.6024960  3
  10031  10025  10011  10033     1  0.0000000  4.9162000  2
  10031  10025  10011  10033     1  0.0000000  0.6024960  3
  10034  10035  10038  10039     1  180.0000771  0.8368000  1
  10034  10035  10038  10039     1  180.0000771  1.0460000  2
  10034  10035  10038  10039     1  0.0000000  0.7531200  3
  10034  10035  10038  10046     1  0.0000000  0.6508444  3
  10034  10056  10040  10039     1  180.0000771  0.4184000  2
  10034  10056  10040  10039     1  0.0000000  1.6024720  3
  10034  10056  10040  10044     1  180.0000771  5.6484000  1
  10034  10056  10040  10044     1  180.0000771  3.5564000  2
  10034  10056  10040  10044     1  0.0000000  0.4184000  3
  10035  10034  10048  10054     1  0.0000000  0.6508444  3
  10035  10034  10056  10040     1  180.0000771  0.4184000  2
  10035  10034  10056  10040     1  0.0000000  1.6024720  3
  10035  10038  10039  10040     1  180.0000771  0.8368000  1
  10035  10038  10039  10040     1  180.0000771  1.0460000  2
  10035  10038  10039  10040     1  0.0000000  0.7531200  3
  10035  10038  10039  10045     1  0.0000000  0.6508444  3
  10038  10035  10034  10048     1  180.0000771  0.8368000  1
  10038  10035  10034  10048     1  180.0000771  1.0460000  2
  10038  10035  10034  10048     1  0.0000000  0.7531200  3
  10038  10035  10034  10056     1  0.0000000  0.6508444  3
  10038  10039  10040  10044     1  0.0000000  0.6508444  3
  10038  10039  10040  10056     1  0.0000000  0.6508444  3
  10039  10038  10035  10047     1  0.0000000  0.6508444  3
  10040  10039  10038  10046     1  0.0000000  0.6508444  3
  10040  10056  10034  10048     1  180.0000771  0.4184000  2
  10040  10056  10034  10048     1  0.0000000  1.6024720  3
  10044  10040  10039  10045     1  0.0000000  4.9162000  2
  10044  10040  10039  10045     1  0.0000000  0.6024960  3
  10045  10039  10038  10046     1  0.0000000  4.9162000  2
  10045  10039  10038  10046     1  0.0000000  0.6024960  3
  10045  10039  10040  10056     1  0.0000000  4.9162000  2
  10045  10039  10040  10056     1  0.0000000  0.6024960  3
  10046  10038  10035  10047     1  0.0000000  4.9162000  2
  10046  10038  10035  10047     1  0.0000000  0.6024960  3
  10047  10035  10034  10048     1  0.0000000  0.6508444  3
  10047  10035  10034  10056     1  0.0000000  4.9162000  2
  10047  10035  10034  10056     1  0.0000000  0.6024960  3
  10054  10048  10034  10056     1  0.0000000  4.9162000  2
  10054  10048  10034  10056     1  0.0000000  0.6024960  3
  10057  10058  10061  10062     1  180.0000771  0.8368000  1
  10057  10058  10061  10062     1  180.0000771  1.0460000  2
  10057  10058  10061  10062     1  0.0000000  0.7531200  3
  10057  10058  10061  10069     1  0.0000000  0.6508444  3
  10057  10079  10063  10067     1  180.0000771  5.6484000  1
  10057  10079  10063  10067     1  180.0000771  3.5564000  2
  10057  10079  10063  10067     1  0.0000000  0.4184000  3
  10057  10079  10063  10062     1  180.0000771  0.4184000  2
  10057  10079  10063  10062     1  0.0000000  1.6024720  3
  10058  10061  10062  10063     1  180.0000771  0.8368000  1
  10058  10061  10062  10063     1  180.0000771  1.0460000  2
  10058  10061  10062  10063     1  0.0000000  0.7531200  3
  10058  10061  10062  10068     1  0.0000000  0.6508444  3
  10058  10057  10071  10077     1  0.0000000  0.6508444  3
  10058  10057  10079  10063     1  180.0000771  0.4184000  2
  10058  10057  10079  10063     1  0.0000000  1.6024720  3
  10061  10062  10063  10067     1  0.0000000  0.6508444  3
  10061  10062  10063  10079     1  0.0000000  0.6508444  3
  10061  10058  10057  10071     1  180.0000771  0.8368000  1
  10061  10058  10057  10071     1  180.0000771  1.0460000  2
  10061  10058  10057  10071     1  0.0000000  0.7531200  3
  10061  10058  10057  10079     1  0.0000000  0.6508444  3
  10062  10061  10058  10070     1  0.0000000  0.6508444  3
  10063  10079  10057  10071     1  180.0000771  0.4184000  2
  10063  10079  10057  10071     1  0.0000000  1.6024720  3
  10063  10062  10061  10069     1  0.0000000  0.6508444  3
  10067  10063  10062  10068     1  0.0000000  4.9162000  2
  10067  10063  10062  10068     1  0.0000000  0.6024960  3
  10068  10062  10063  10079     1  0.0000000  4.9162000  2
  10068  10062  10063  10079     1  0.0000000  0.6024960  3
  10068  10062  10061  10069     1  0.0000000  4.9162000  2
  10068  10062  10061  10069     1  0.0000000  0.6024960  3
  10069  10061  10058  10070     1  0.0000000  4.9162000  2
  10069  10061  10058  10070     1  0.0000000  0.6024960  3
  10070  10058  10057  10071     1  0.0000000  0.6508444  3
  10070  10058  10057  10079     1  0.0000000  4.9162000  2
  10070  10058  10057  10079     1  0.0000000  0.6024960  3
  10077  10071  10057  10079     1  0.0000000  4.9162000  2
  10077  10071  10057  10079     1  0.0000000  0.6024960  3
  10080  10081  10084  10085     1  180.0000771  0.8368000  1
  10080  10081  10084  10085     1  180.0000771  1.0460000  2
  10080  10081  10084  10085     1  0.0000000  0.7531200  3
  10080  10081  10084  10092     1  0.0000000  0.6508444  3
  10080  10102  10086  10085     1  180.0000771  0.4184000  2
  10080  10102  10086  10085     1  0.0000000  1.6024720  3
  10080  10102  10086  10090     1  180.0000771  5.6484000  1
  10080  10102  10086  10090     1  180.0000771  3.5564000  2
  10080  10102  10086  10090     1  0.0000000  0.4184000  3
  10081  10080  10094  10100     1  0.0000000  0.6508444  3
  10081  10080  10102  10086     1  180.0000771  0.4184000  2
  10081  10080  10102  10086     1  0.0000000  1.6024720  3
  10081  10084  10085  10086     1  180.0000771  0.8368000  1
  10081  10084  10085  10086     1  180.0000771  1.0460000  2
  10081  10084  10085  10086     1  0.0000000  0.7531200  3
  10081  10084  10085  10091     1  0.0000000  0.6508444  3
  10084  10081  10080  10094     1  180.0000771  0.8368000  1
  10084  10081  10080  10094     1  180.0000771  1.0460000  2
  10084  10081  10080  10094     1  0.0000000  0.7531200  3
  10084  10081  10080  10102     1  0.0000000  0.6508444  3
  10084  10085  10086  10090     1  0.0000000  0.6508444  3
  10084  10085  10086  10102     1  0.0000000  0.6508444  3
  10085  10084  10081  10093     1  0.0000000  0.6508444  3
  10086  10085  10084  10092     1  0.0000000  0.6508444  3
  10086  10102  10080  10094     1  180.0000771  0.4184000  2
  10086  10102  10080  10094     1  0.0000000  1.6024720  3
  10090  10086  10085  10091     1  0.0000000  4.9162000  2
  10090  10086  10085  10091     1  0.0000000  0.6024960  3
  10091  10085  10084  10092     1  0.0000000  4.9162000  2
  10091  10085  10084  10092     1  0.0000000  0.6024960  3
  10091  10085  10086  10102     1  0.0000000  4.9162000  2
  10091  10085  10086  10102     1  0.0000000  0.6024960  3
  10092  10084  10081  10093     1  0.0000000  4.9162000  2
  10092  10084  10081  10093     1  0.0000000  0.6024960  3
  10093  10081  10080  10094     1  0.0000000  0.6508444  3
  10093  10081  10080  10102     1  0.0000000  4.9162000  2
  10093  10081  10080  10102     1  0.0000000  0.6024960  3
  10100  10094  10080  10102     1  0.0000000  4.9162000  2
  10100  10094  10080  10102     1  0.0000000  0.6024960  3
  10103  10104  10107  10108     1  180.0000771  0.8368000  1
  10103  10104  10107  10108     1  180.0000771  1.0460000  2
  10103  10104  10107  10108     1  0.0000000  0.7531200  3
  10103  10104  10107  10115     1  0.0000000  0.6508444  3
  10103  10125  10109  10113     1  180.0000771  5.6484000  1
  10103  10125  10109  10113     1  180.0000771  3.5564000  2
  10103  10125  10109  10113     1  0.0000000  0.4184000  3
  10103  10125  10109  10108     1  180.0000771  0.4184000  2
  10103  10125  10109  10108     1  0.0000000  1.6024720  3
  10104  10107  10108  10109     1  180.0000771  0.8368000  1
  10104  10107  10108  10109     1  180.0000771  1.0460000  2
  10104  10107  10108  10109     1  0.0000000  0.7531200  3
  10104  10107  10108  10114     1  0.0000000  0.6508444  3
  10104  10103  10117  10123     1  0.0000000  0.6508444  3
  10104  10103  10125  10109     1  180.0000771  0.4184000  2
  10104  10103  10125  10109     1  0.0000000  1.6024720  3
  10107  10108  10109  10113     1  0.0000000  0.6508444  3
  10107  10108  10109  10125     1  0.0000000  0.6508444  3
  10107  10104  10103  10117     1  180.0000771  0.8368000  1
  10107  10104  10103  10117     1  180.0000771  1.0460000  2
  10107  10104  10103  10117     1  0.0000000  0.7531200  3
  10107  10104  10103  10125     1  0.0000000  0.6508444  3
  10108  10107  10104  10116     1  0.0000000  0.6508444  3
  10109  10125  10103  10117     1  180.0000771  0.4184000  2
  10109  10125  10103  10117     1  0.0000000  1.6024720  3
  10109  10108  10107  10115     1  0.0000000  0.6508444  3
  10113  10109  10108  10114     1  0.0000000  4.9162000  2
  10113  10109  10108  10114     1  0.0000000  0.6024960  3
  10114  10108  10109  10125     1  0.0000000  4.9162000  2
  10114  10108  10109  10125     1  0.0000000  0.6024960  3
  10114  10108  10107  10115     1  0.0000000  4.9162000  2
  10114  10108  10107  10115     1  0.0000000  0.6024960  3
  10115  10107  10104  10116     1  0.0000000  4.9162000  2
  10115  10107  10104  10116     1  0.0000000  0.6024960  3
  10116  10104  10103  10117     1  0.0000000  0.6508444  3
  10116  10104  10103  10125     1  0.0000000  4.9162000  2
  10116  10104  10103  10125     1  0.0000000  0.6024960  3
  10123  10117  10103  10125     1  0.0000000  4.9162000  2
  10123  10117  10103  10125     1  0.0000000  0.6024960  3
  10126  10127  10130  10131     1  180.0000771  0.8368000  1
  10126  10127  10130  10131     1  180.0000771  1.0460000  2
  10126  10127  10130  10131     1  0.0000000  0.7531200  3
  10126  10127  10130  10138     1  0.0000000  0.6508444  3
  10126  10148  10132  10131     1  180.0000771  0.4184000  2
  10126  10148  10132  10131     1  0.0000000  1.6024720  3
  10126  10148  10132  10136     1  180.0000771  5.6484000  1
  10126  10148  10132  10136     1  180.0000771  3.5564000  2
  10126  10148  10132  10136     1  0.0000000  0.4184000  3
  10127  10126  10140  10146     1  0.0000000  0.6508444  3
  10127  10126  10148  10132     1  180.0000771  0.4184000  2
  10127  10126  10148  10132     1  0.0000000  1.6024720  3
  10127  10130  10131  10132     1  180.0000771  0.8368000  1
  10127  10130  10131  10132     1  180.0000771  1.0460000  2
  10127  10130  10131  10132     1  0.0000000  0.7531200  3
  10127  10130  10131  10137     1  0.0000000  0.6508444  3
  10130  10127  10126  10140     1  180.0000771  0.8368000  1
  10130  10127  10126  10140     1  180.0000771  1.0460000  2
  10130  10127  10126  10140     1  0.0000000  0.7531200  3
  10130  10127  10126  10148     1  0.0000000  0.6508444  3
  10130  10131  10132  10136     1  0.0000000  0.6508444  3
  10130  10131  10132  10148     1  0.0000000  0.6508444  3
  10131  10130  10127  10139     1  0.0000000  0.6508444  3
  10132  10131  10130  10138     1  0.0000000  0.6508444  3
  10132  10148  10126  10140     1  180.0000771  0.4184000  2
  10132  10148  10126  10140     1  0.0000000  1.6024720  3
  10136  10132  10131  10137     1  0.0000000  4.9162000  2
  10136  10132  10131  10137     1  0.0000000  0.6024960  3
  10137  10131  10130  10138     1  0.0000000  4.9162000  2
  10137  10131  10130  10138     1  0.0000000  0.6024960  3
  10137  10131  10132  10148     1  0.0000000  4.9162000  2
  10137  10131  10132  10148     1  0.0000000  0.6024960  3
  10138  10130  10127  10139     1  0.0000000  4.9162000  2
  10138  10130  10127  10139     1  0.0000000  0.6024960  3
  10139  10127  10126  10140     1  0.0000000  0.6508444  3
  10139  10127  10126  10148     1  0.0000000  4.9162000  2
  10139  10127  10126  10148     1  0.0000000  0.6024960  3
  10146  10140  10126  10148     1  0.0000000  4.9162000  2
  10146  10140  10126  10148     1  0.0000000  0.6024960  3
  10149  10150  10153  10154     1  180.0000771  0.8368000  1
  10149  10150  10153  10154     1  180.0000771  1.0460000  2
  10149  10150  10153  10154     1  0.0000000  0.7531200  3
  10149  10150  10153  10161     1  0.0000000  0.6508444  3
  10149  10171  10155  10159     1  180.0000771  5.6484000  1
  10149  10171  10155  10159     1  180.0000771  3.5564000  2
  10149  10171  10155  10159     1  0.0000000  0.4184000  3
  10149  10171  10155  10154     1  180.0000771  0.4184000  2
  10149  10171  10155  10154     1  0.0000000  1.6024720  3
  10150  10153  10154  10155     1  180.0000771  0.8368000  1
  10150  10153  10154  10155     1  180.0000771  1.0460000  2
  10150  10153  10154  10155     1  0.0000000  0.7531200  3
  10150  10153  10154  10160     1  0.0000000  0.6508444  3
  10150  10149  10163  10169     1  0.0000000  0.6508444  3
  10150  10149  10171  10155     1  180.0000771  0.4184000  2
  10150  10149  10171  10155     1  0.0000000  1.6024720  3
  10153  10154  10155  10159     1  0.0000000  0.6508444  3
  10153  10154  10155  10171     1  0.0000000  0.6508444  3
  10153  10150  10149  10163     1  180.0000771  0.8368000  1
  10153  10150  10149  10163     1  180.0000771  1.0460000  2
  10153  10150  10149  10163     1  0.0000000  0.7531200  3
  10153  10150  10149  10171     1  0.0000000  0.6508444  3
  10154  10153  10150  10162     1  0.0000000  0.6508444  3
  10155  10171  10149  10163     1  180.0000771  0.4184000  2
  10155  10171  10149  10163     1  0.0000000  1.6024720  3
  10155  10154  10153  10161     1  0.0000000  0.6508444  3
  10159  10155  10154  10160     1  0.0000000  4.9162000  2
  10159  10155  10154  10160     1  0.0000000  0.6024960  3
  10160  10154  10155  10171     1  0.0000000  4.9162000  2
  10160  10154  10155  10171     1  0.0000000  0.6024960  3
  10160  10154  10153  10161     1  0.0000000  4.9162000  2
  10160  10154  10153  10161     1  0.0000000  0.6024960  3
  10161  10153  10150  10162     1  0.0000000  4.9162000  2
  10161  10153  10150  10162     1  0.0000000  0.6024960  3
  10162  10150  10149  10163     1  0.0000000  0.6508444  3
  10162  10150  10149  10171     1  0.0000000  4.9162000  2
  10162  10150  10149  10171     1  0.0000000  0.6024960  3
  10169  10163  10149  10171     1  0.0000000  4.9162000  2
  10169  10163  10149  10171     1  0.0000000  0.6024960  3
  10172  10173  10176  10177     1  180.0000771  0.8368000  1
  10172  10173  10176  10177     1  180.0000771  1.0460000  2
  10172  10173  10176  10177     1  0.0000000  0.7531200  3
  10172  10173  10176  10184     1  0.0000000  0.6508444  3
  10172  10194  10178  10177     1  180.0000771  0.4184000  2
  10172  10194  10178  10177     1  0.0000000  1.6024720  3
  10172  10194  10178  10182     1  180.0000771  5.6484000  1
  10172  10194  10178  10182     1  180.0000771  3.5564000  2
  10172  10194  10178  10182     1  0.0000000  0.4184000  3
  10173  10172  10186  10192     1  0.0000000  0.6508444  3
  10173  10172  10194  10178     1  180.0000771  0.4184000  2
  10173  10172  10194  10178     1  0.0000000  1.6024720  3
  10173  10176  10177  10178     1  180.0000771  0.8368000  1
  10173  10176  10177  10178     1  180.0000771  1.0460000  2
  10173  10176  10177  10178     1  0.0000000  0.7531200  3
  10173  10176  10177  10183     1  0.0000000  0.6508444  3
  10176  10173  10172  10186     1  180.0000771  0.8368000  1
  10176  10173  10172  10186     1  180.0000771  1.0460000  2
  10176  10173  10172  10186     1  0.0000000  0.7531200  3
  10176  10173  10172  10194     1  0.0000000  0.6508444  3
  10176  10177  10178  10182     1  0.0000000  0.6508444  3
  10176  10177  10178  10194     1  0.0000000  0.6508444  3
  10177  10176  10173  10185     1  0.0000000  0.6508444  3
  10178  10177  10176  10184     1  0.0000000  0.6508444  3
  10178  10194  10172  10186     1  180.0000771  0.4184000  2
  10178  10194  10172  10186     1  0.0000000  1.6024720  3
  10182  10178  10177  10183     1  0.0000000  4.9162000  2
  10182  10178  10177  10183     1  0.0000000  0.6024960  3
  10183  10177  10176  10184     1  0.0000000  4.9162000  2
  10183  10177  10176  10184     1  0.0000000  0.6024960  3
  10183  10177  10178  10194     1  0.0000000  4.9162000  2
  10183  10177  10178  10194     1  0.0000000  0.6024960  3
  10184  10176  10173  10185     1  0.0000000  4.9162000  2
  10184  10176  10173  10185     1  0.0000000  0.6024960  3
  10185  10173  10172  10186     1  0.0000000  0.6508444  3
  10185  10173  10172  10194     1  0.0000000  4.9162000  2
  10185  10173  10172  10194     1  0.0000000  0.6024960  3
  10192  10186  10172  10194     1  0.0000000  4.9162000  2
  10192  10186  10172  10194     1  0.0000000  0.6024960  3
  10195  10196  10199  10200     1  180.0000771  0.8368000  1
  10195  10196  10199  10200     1  180.0000771  1.0460000  2
  10195  10196  10199  10200     1  0.0000000  0.7531200  3
  10195  10196  10199  10207     1  0.0000000  0.6508444  3
  10195  10217  10201  10205     1  180.0000771  5.6484000  1
  10195  10217  10201  10205     1  180.0000771  3.5564000  2
  10195  10217  10201  10205     1  0.0000000  0.4184000  3
  10195  10217  10201  10200     1  180.0000771  0.4184000  2
  10195  10217  10201  10200     1  0.0000000  1.6024720  3
  10196  10199  10200  10201     1  180.0000771  0.8368000  1
  10196  10199  10200  10201     1  180.0000771  1.0460000  2
  10196  10199  10200  10201     1  0.0000000  0.7531200  3
  10196  10199  10200  10206     1  0.0000000  0.6508444  3
  10196  10195  10209  10215     1  0.0000000  0.6508444  3
  10196  10195  10217  10201     1  180.0000771  0.4184000  2
  10196  10195  10217  10201     1  0.0000000  1.6024720  3
  10199  10200  10201  10205     1  0.0000000  0.6508444  3
  10199  10200  10201  10217     1  0.0000000  0.6508444  3
  10199  10196  10195  10209     1  180.0000771  0.8368000  1
  10199  10196  10195  10209     1  180.0000771  1.0460000  2
  10199  10196  10195  10209     1  0.0000000  0.7531200  3
  10199  10196  10195  10217     1  0.0000000  0.6508444  3
  10200  10199  10196  10208     1  0.0000000  0.6508444  3
  10201  10217  10195  10209     1  180.0000771  0.4184000  2
  10201  10217  10195  10209     1  0.0000000  1.6024720  3
  10201  10200  10199  10207     1  0.0000000  0.6508444  3
  10205  10201  10200  10206     1  0.0000000  4.9162000  2
  10205  10201  10200  10206     1  0.0000000  0.6024960  3
  10206  10200  10201  10217     1  0.0000000  4.9162000  2
  10206  10200  10201  10217     1  0.0000000  0.6024960  3
  10206  10200  10199  10207     1  0.0000000  4.9162000  2
  10206  10200  10199  10207     1  0.0000000  0.6024960  3
  10207  10199  10196  10208     1  0.0000000  4.9162000  2
  10207  10199  10196  10208     1  0.0000000  0.6024960  3
  10208  10196  10195  10209     1  0.0000000  0.6508444  3
  10208  10196  10195  10217     1  0.0000000  4.9162000  2
  10208  10196  10195  10217     1  0.0000000  0.6024960  3
  10215  10209  10195  10217     1  0.0000000  4.9162000  2
  10215  10209  10195  10217     1  0.0000000  0.6024960  3
  10218  10219  10222  10223     1  180.0000771  0.8368000  1
  10218  10219  10222  10223     1  180.0000771  1.0460000  2
  10218  10219  10222  10223     1  0.0000000  0.7531200  3
  10218  10219  10222  10230     1  0.0000000  0.6508444  3
  10218  10240  10224  10223     1  180.0000771  0.4184000  2
  10218  10240  10224  10223     1  0.0000000  1.6024720  3
  10218  10240  10224  10228     1  180.0000771  5.6484000  1
  10218  10240  10224  10228     1  180.0000771  3.5564000  2
  10218  10240  10224  10228     1  0.0000000  0.4184000  3
  10219  10218  10232  10238     1  0.0000000  0.6508444  3
  10219  10218  10240  10224     1  180.0000771  0.4184000  2
  10219  10218  10240  10224     1  0.0000000  1.6024720  3
  10219  10222  10223  10224     1  180.0000771  0.8368000  1
  10219  10222  10223  10224     1  180.0000771  1.0460000  2
  10219  10222  10223  10224     1  0.0000000  0.7531200  3
  10219  10222  10223  10229     1  0.0000000  0.6508444  3
  10222  10219  10218  10232     1  180.0000771  0.8368000  1
  10222  10219  10218  10232     1  180.0000771  1.0460000  2
  10222  10219  10218  10232     1  0.0000000  0.7531200  3
  10222  10219  10218  10240     1  0.0000000  0.6508444  3
  10222  10223  10224  10228     1  0.0000000  0.6508444  3
  10222  10223  10224  10240     1  0.0000000  0.6508444  3
  10223  10222  10219  10231     1  0.0000000  0.6508444  3
  10224  10223  10222  10230     1  0.0000000  0.6508444  3
  10224  10240  10218  10232     1  180.0000771  0.4184000  2
  10224  10240  10218  10232     1  0.0000000  1.6024720  3
  10228  10224  10223  10229     1  0.0000000  4.9162000  2
  10228  10224  10223  10229     1  0.0000000  0.6024960  3
  10229  10223  10222  10230     1  0.0000000  4.9162000  2
  10229  10223  10222  10230     1  0.0000000  0.6024960  3
  10229  10223  10224  10240     1  0.0000000  4.9162000  2
  10229  10223  10224  10240     1  0.0000000  0.6024960  3
  10230  10222  10219  10231     1  0.0000000  4.9162000  2
  10230  10222  10219  10231     1  0.0000000  0.6024960  3
  10231  10219  10218  10232     1  0.0000000  0.6508444  3
  10231  10219  10218  10240     1  0.0000000  4.9162000  2
  10231  10219  10218  10240     1  0.0000000  0.6024960  3
  10238  10232  10218  10240     1  0.0000000  4.9162000  2
  10238  10232  10218  10240     1  0.0000000  0.6024960  3
  10241  10242  10245  10246     1  180.0000771  0.8368000  1
  10241  10242  10245  10246     1  180.0000771  1.0460000  2
  10241  10242  10245  10246     1  0.0000000  0.7531200  3
  10241  10242  10245  10253     1  0.0000000  0.6508444  3
  10241  10263  10247  10251     1  180.0000771  5.6484000  1
  10241  10263  10247  10251     1  180.0000771  3.5564000  2
  10241  10263  10247  10251     1  0.0000000  0.4184000  3
  10241  10263  10247  10246     1  180.0000771  0.4184000  2
  10241  10263  10247  10246     1  0.0000000  1.6024720  3
  10242  10245  10246  10247     1  180.0000771  0.8368000  1
  10242  10245  10246  10247     1  180.0000771  1.0460000  2
  10242  10245  10246  10247     1  0.0000000  0.7531200  3
  10242  10245  10246  10252     1  0.0000000  0.6508444  3
  10242  10241  10255  10261     1  0.0000000  0.6508444  3
  10242  10241  10263  10247     1  180.0000771  0.4184000  2
  10242  10241  10263  10247     1  0.0000000  1.6024720  3
  10245  10246  10247  10251     1  0.0000000  0.6508444  3
  10245  10246  10247  10263     1  0.0000000  0.6508444  3
  10245  10242  10241  10255     1  180.0000771  0.8368000  1
  10245  10242  10241  10255     1  180.0000771  1.0460000  2
  10245  10242  10241  10255     1  0.0000000  0.7531200  3
  10245  10242  10241  10263     1  0.0000000  0.6508444  3
  10246  10245  10242  10254     1  0.0000000  0.6508444  3
  10247  10263  10241  10255     1  180.0000771  0.4184000  2
  10247  10263  10241  10255     1  0.0000000  1.6024720  3
  10247  10246  10245  10253     1  0.0000000  0.6508444  3
  10251  10247  10246  10252     1  0.0000000  4.9162000  2
  10251  10247  10246  10252     1  0.0000000  0.6024960  3
  10252  10246  10247  10263     1  0.0000000  4.9162000  2
  10252  10246  10247  10263     1  0.0000000  0.6024960  3
  10252  10246  10245  10253     1  0.0000000  4.9162000  2
  10252  10246  10245  10253     1  0.0000000  0.6024960  3
  10253  10245  10242  10254     1  0.0000000  4.9162000  2
  10253  10245  10242  10254     1  0.0000000  0.6024960  3
  10254  10242  10241  10255     1  0.0000000  0.6508444  3
  10254  10242  10241  10263     1  0.0000000  4.9162000  2
  10254  10242  10241  10263     1  0.0000000  0.6024960  3
  10261  10255  10241  10263     1  0.0000000  4.9162000  2
  10261  10255  10241  10263     1  0.0000000  0.6024960  3
  10264  10265  10268  10269     1  180.0000771  0.8368000  1
  10264  10265  10268  10269     1  180.0000771  1.0460000  2
  10264  10265  10268  10269     1  0.0000000  0.7531200  3
  10264  10265  10268  10276     1  0.0000000  0.6508444  3
  10264  10286  10270  10269     1  180.0000771  0.4184000  2
  10264  10286  10270  10269     1  0.0000000  1.6024720  3
  10264  10286  10270  10274     1  180.0000771  5.6484000  1
  10264  10286  10270  10274     1  180.0000771  3.5564000  2
  10264  10286  10270  10274     1  0.0000000  0.4184000  3
  10265  10264  10278  10284     1  0.0000000  0.6508444  3
  10265  10264  10286  10270     1  180.0000771  0.4184000  2
  10265  10264  10286  10270     1  0.0000000  1.6024720  3
  10265  10268  10269  10270     1  180.0000771  0.8368000  1
  10265  10268  10269  10270     1  180.0000771  1.0460000  2
  10265  10268  10269  10270     1  0.0000000  0.7531200  3
  10265  10268  10269  10275     1  0.0000000  0.6508444  3
  10268  10265  10264  10278     1  180.0000771  0.8368000  1
  10268  10265  10264  10278     1  180.0000771  1.0460000  2
  10268  10265  10264  10278     1  0.0000000  0.7531200  3
  10268  10265  10264  10286     1  0.0000000  0.6508444  3
  10268  10269  10270  10274     1  0.0000000  0.6508444  3
  10268  10269  10270  10286     1  0.0000000  0.6508444  3
  10269  10268  10265  10277     1  0.0000000  0.6508444  3
  10270  10269  10268  10276     1  0.0000000  0.6508444  3
  10270  10286  10264  10278     1  180.0000771  0.4184000  2
  10270  10286  10264  10278     1  0.0000000  1.6024720  3
  10274  10270  10269  10275     1  0.0000000  4.9162000  2
  10274  10270  10269  10275     1  0.0000000  0.6024960  3
  10275  10269  10268  10276     1  0.0000000  4.9162000  2
  10275  10269  10268  10276     1  0.0000000  0.6024960  3
  10275  10269  10270  10286     1  0.0000000  4.9162000  2
  10275  10269  10270  10286     1  0.0000000  0.6024960  3
  10276  10268  10265  10277     1  0.0000000  4.9162000  2
  10276  10268  10265  10277     1  0.0000000  0.6024960  3
  10277  10265  10264  10278     1  0.0000000  0.6508444  3
  10277  10265  10264  10286     1  0.0000000  4.9162000  2
  10277  10265  10264  10286     1  0.0000000  0.6024960  3
  10284  10278  10264  10286     1  0.0000000  4.9162000  2
  10284  10278  10264  10286     1  0.0000000  0.6024960  3
  10287  10288  10291  10292     1  180.0000771  0.8368000  1
  10287  10288  10291  10292     1  180.0000771  1.0460000  2
  10287  10288  10291  10292     1  0.0000000  0.7531200  3
  10287  10288  10291  10299     1  0.0000000  0.6508444  3
  10287  10309  10293  10297     1  180.0000771  5.6484000  1
  10287  10309  10293  10297     1  180.0000771  3.5564000  2
  10287  10309  10293  10297     1  0.0000000  0.4184000  3
  10287  10309  10293  10292     1  180.0000771  0.4184000  2
  10287  10309  10293  10292     1  0.0000000  1.6024720  3
  10288  10291  10292  10293     1  180.0000771  0.8368000  1
  10288  10291  10292  10293     1  180.0000771  1.0460000  2
  10288  10291  10292  10293     1  0.0000000  0.7531200  3
  10288  10291  10292  10298     1  0.0000000  0.6508444  3
  10288  10287  10301  10307     1  0.0000000  0.6508444  3
  10288  10287  10309  10293     1  180.0000771  0.4184000  2
  10288  10287  10309  10293     1  0.0000000  1.6024720  3
  10291  10292  10293  10297     1  0.0000000  0.6508444  3
  10291  10292  10293  10309     1  0.0000000  0.6508444  3
  10291  10288  10287  10301     1  180.0000771  0.8368000  1
  10291  10288  10287  10301     1  180.0000771  1.0460000  2
  10291  10288  10287  10301     1  0.0000000  0.7531200  3
  10291  10288  10287  10309     1  0.0000000  0.6508444  3
  10292  10291  10288  10300     1  0.0000000  0.6508444  3
  10293  10309  10287  10301     1  180.0000771  0.4184000  2
  10293  10309  10287  10301     1  0.0000000  1.6024720  3
  10293  10292  10291  10299     1  0.0000000  0.6508444  3
  10297  10293  10292  10298     1  0.0000000  4.9162000  2
  10297  10293  10292  10298     1  0.0000000  0.6024960  3
  10298  10292  10293  10309     1  0.0000000  4.9162000  2
  10298  10292  10293  10309     1  0.0000000  0.6024960  3
  10298  10292  10291  10299     1  0.0000000  4.9162000  2
  10298  10292  10291  10299     1  0.0000000  0.6024960  3
  10299  10291  10288  10300     1  0.0000000  4.9162000  2
  10299  10291  10288  10300     1  0.0000000  0.6024960  3
  10300  10288  10287  10301     1  0.0000000  0.6508444  3
  10300  10288  10287  10309     1  0.0000000  4.9162000  2
  10300  10288  10287  10309     1  0.0000000  0.6024960  3
  10307  10301  10287  10309     1  0.0000000  4.9162000  2
  10307  10301  10287  10309     1  0.0000000  0.6024960  3
  10310  10311  10314  10315     1  180.0000771  0.8368000  1
  10310  10311  10314  10315     1  180.0000771  1.0460000  2
  10310  10311  10314  10315     1  0.0000000  0.7531200  3
  10310  10311  10314  10322     1  0.0000000  0.6508444  3
  10310  10332  10316  10315     1  180.0000771  0.4184000  2
  10310  10332  10316  10315     1  0.0000000  1.6024720  3
  10310  10332  10316  10320     1  180.0000771  5.6484000  1
  10310  10332  10316  10320     1  180.0000771  3.5564000  2
  10310  10332  10316  10320     1  0.0000000  0.4184000  3
  10311  10310  10324  10330     1  0.0000000  0.6508444  3
  10311  10310  10332  10316     1  180.0000771  0.4184000  2
  10311  10310  10332  10316     1  0.0000000  1.6024720  3
  10311  10314  10315  10316     1  180.0000771  0.8368000  1
  10311  10314  10315  10316     1  180.0000771  1.0460000  2
  10311  10314  10315  10316     1  0.0000000  0.7531200  3
  10311  10314  10315  10321     1  0.0000000  0.6508444  3
  10314  10311  10310  10324     1  180.0000771  0.8368000  1
  10314  10311  10310  10324     1  180.0000771  1.0460000  2
  10314  10311  10310  10324     1  0.0000000  0.7531200  3
  10314  10311  10310  10332     1  0.0000000  0.6508444  3
  10314  10315  10316  10320     1  0.0000000  0.6508444  3
  10314  10315  10316  10332     1  0.0000000  0.6508444  3
  10315  10314  10311  10323     1  0.0000000  0.6508444  3
  10316  10315  10314  10322     1  0.0000000  0.6508444  3
  10316  10332  10310  10324     1  180.0000771  0.4184000  2
  10316  10332  10310  10324     1  0.0000000  1.6024720  3
  10320  10316  10315  10321     1  0.0000000  4.9162000  2
  10320  10316  10315  10321     1  0.0000000  0.6024960  3
  10321  10315  10314  10322     1  0.0000000  4.9162000  2
  10321  10315  10314  10322     1  0.0000000  0.6024960  3
  10321  10315  10316  10332     1  0.0000000  4.9162000  2
  10321  10315  10316  10332     1  0.0000000  0.6024960  3
  10322  10314  10311  10323     1  0.0000000  4.9162000  2
  10322  10314  10311  10323     1  0.0000000  0.6024960  3
  10323  10311  10310  10324     1  0.0000000  0.6508444  3
  10323  10311  10310  10332     1  0.0000000  4.9162000  2
  10323  10311  10310  10332     1  0.0000000  0.6024960  3
  10330  10324  10310  10332     1  0.0000000  4.9162000  2
  10330  10324  10310  10332     1  0.0000000  0.6024960  3
  10333  10334  10337  10338     1  180.0000771  0.8368000  1
  10333  10334  10337  10338     1  180.0000771  1.0460000  2
  10333  10334  10337  10338     1  0.0000000  0.7531200  3
  10333  10334  10337  10345     1  0.0000000  0.6508444  3
  10333  10355  10339  10343     1  180.0000771  5.6484000  1
  10333  10355  10339  10343     1  180.0000771  3.5564000  2
  10333  10355  10339  10343     1  0.0000000  0.4184000  3
  10333  10355  10339  10338     1  180.0000771  0.4184000  2
  10333  10355  10339  10338     1  0.0000000  1.6024720  3
  10334  10337  10338  10339     1  180.0000771  0.8368000  1
  10334  10337  10338  10339     1  180.0000771  1.0460000  2
  10334  10337  10338  10339     1  0.0000000  0.7531200  3
  10334  10337  10338  10344     1  0.0000000  0.6508444  3
  10334  10333  10347  10353     1  0.0000000  0.6508444  3
  10334  10333  10355  10339     1  180.0000771  0.4184000  2
  10334  10333  10355  10339     1  0.0000000  1.6024720  3
  10337  10338  10339  10343     1  0.0000000  0.6508444  3
  10337  10338  10339  10355     1  0.0000000  0.6508444  3
  10337  10334  10333  10347     1  180.0000771  0.8368000  1
  10337  10334  10333  10347     1  180.0000771  1.0460000  2
  10337  10334  10333  10347     1  0.0000000  0.7531200  3
  10337  10334  10333  10355     1  0.0000000  0.6508444  3
  10338  10337  10334  10346     1  0.0000000  0.6508444  3
  10339  10355  10333  10347     1  180.0000771  0.4184000  2
  10339  10355  10333  10347     1  0.0000000  1.6024720  3
  10339  10338  10337  10345     1  0.0000000  0.6508444  3
  10343  10339  10338  10344     1  0.0000000  4.9162000  2
  10343  10339  10338  10344     1  0.0000000  0.6024960  3
  10344  10338  10339  10355     1  0.0000000  4.9162000  2
  10344  10338  10339  10355     1  0.0000000  0.6024960  3
  10344  10338  10337  10345     1  0.0000000  4.9162000  2
  10344  10338  10337  10345     1  0.0000000  0.6024960  3
  10345  10337  10334  10346     1  0.0000000  4.9162000  2
  10345  10337  10334  10346     1  0.0000000  0.6024960  3
  10346  10334  10333  10347     1  0.0000000  0.6508444  3
  10346  10334  10333  10355     1  0.0000000  4.9162000  2
  10346  10334  10333  10355     1  0.0000000  0.6024960  3
  10353  10347  10333  10355     1  0.0000000  4.9162000  2
  10353  10347  10333  10355     1  0.0000000  0.6024960  3
  10356  10357  10360  10361     1  180.0000771  0.8368000  1
  10356  10357  10360  10361     1  180.0000771  1.0460000  2
  10356  10357  10360  10361     1  0.0000000  0.7531200  3
  10356  10357  10360  10368     1  0.0000000  0.6508444  3
  10356  10378  10362  10361     1  180.0000771  0.4184000  2
  10356  10378  10362  10361     1  0.0000000  1.6024720  3
  10356  10378  10362  10366     1  180.0000771  5.6484000  1
  10356  10378  10362  10366     1  180.0000771  3.5564000  2
  10356  10378  10362  10366     1  0.0000000  0.4184000  3
  10357  10356  10370  10376     1  0.0000000  0.6508444  3
  10357  10356  10378  10362     1  180.0000771  0.4184000  2
  10357  10356  10378  10362     1  0.0000000  1.6024720  3
  10357  10360  10361  10362     1  180.0000771  0.8368000  1
  10357  10360  10361  10362     1  180.0000771  1.0460000  2
  10357  10360  10361  10362     1  0.0000000  0.7531200  3
  10357  10360  10361  10367     1  0.0000000  0.6508444  3
  10360  10357  10356  10370     1  180.0000771  0.8368000  1
  10360  10357  10356  10370     1  180.0000771  1.0460000  2
  10360  10357  10356  10370     1  0.0000000  0.7531200  3
  10360  10357  10356  10378     1  0.0000000  0.6508444  3
  10360  10361  10362  10366     1  0.0000000  0.6508444  3
  10360  10361  10362  10378     1  0.0000000  0.6508444  3
  10361  10360  10357  10369     1  0.0000000  0.6508444  3
  10362  10361  10360  10368     1  0.0000000  0.6508444  3
  10362  10378  10356  10370     1  180.0000771  0.4184000  2
  10362  10378  10356  10370     1  0.0000000  1.6024720  3
  10366  10362  10361  10367     1  0.0000000  4.9162000  2
  10366  10362  10361  10367     1  0.0000000  0.6024960  3
  10367  10361  10360  10368     1  0.0000000  4.9162000  2
  10367  10361  10360  10368     1  0.0000000  0.6024960  3
  10367  10361  10362  10378     1  0.0000000  4.9162000  2
  10367  10361  10362  10378     1  0.0000000  0.6024960  3
  10368  10360  10357  10369     1  0.0000000  4.9162000  2
  10368  10360  10357  10369     1  0.0000000  0.6024960  3
  10369  10357  10356  10370     1  0.0000000  0.6508444  3
  10369  10357  10356  10378     1  0.0000000  4.9162000  2
  10369  10357  10356  10378     1  0.0000000  0.6024960  3
  10376  10370  10356  10378     1  0.0000000  4.9162000  2
  10376  10370  10356  10378     1  0.0000000  0.6024960  3
  10379  10380  10383  10384     1  180.0000771  0.8368000  1
  10379  10380  10383  10384     1  180.0000771  1.0460000  2
  10379  10380  10383  10384     1  0.0000000  0.7531200  3
  10379  10380  10383  10391     1  0.0000000  0.6508444  3
  10379  10401  10385  10389     1  180.0000771  5.6484000  1
  10379  10401  10385  10389     1  180.0000771  3.5564000  2
  10379  10401  10385  10389     1  0.0000000  0.4184000  3
  10379  10401  10385  10384     1  180.0000771  0.4184000  2
  10379  10401  10385  10384     1  0.0000000  1.6024720  3
  10380  10383  10384  10385     1  180.0000771  0.8368000  1
  10380  10383  10384  10385     1  180.0000771  1.0460000  2
  10380  10383  10384  10385     1  0.0000000  0.7531200  3
  10380  10383  10384  10390     1  0.0000000  0.6508444  3
  10380  10379  10393  10399     1  0.0000000  0.6508444  3
  10380  10379  10401  10385     1  180.0000771  0.4184000  2
  10380  10379  10401  10385     1  0.0000000  1.6024720  3
  10383  10384  10385  10389     1  0.0000000  0.6508444  3
  10383  10384  10385  10401     1  0.0000000  0.6508444  3
  10383  10380  10379  10393     1  180.0000771  0.8368000  1
  10383  10380  10379  10393     1  180.0000771  1.0460000  2
  10383  10380  10379  10393     1  0.0000000  0.7531200  3
  10383  10380  10379  10401     1  0.0000000  0.6508444  3
  10384  10383  10380  10392     1  0.0000000  0.6508444  3
  10385  10401  10379  10393     1  180.0000771  0.4184000  2
  10385  10401  10379  10393     1  0.0000000  1.6024720  3
  10385  10384  10383  10391     1  0.0000000  0.6508444  3
  10389  10385  10384  10390     1  0.0000000  4.9162000  2
  10389  10385  10384  10390     1  0.0000000  0.6024960  3
  10390  10384  10385  10401     1  0.0000000  4.9162000  2
  10390  10384  10385  10401     1  0.0000000  0.6024960  3
  10390  10384  10383  10391     1  0.0000000  4.9162000  2
  10390  10384  10383  10391     1  0.0000000  0.6024960  3
  10391  10383  10380  10392     1  0.0000000  4.9162000  2
  10391  10383  10380  10392     1  0.0000000  0.6024960  3
  10392  10380  10379  10393     1  0.0000000  0.6508444  3
  10392  10380  10379  10401     1  0.0000000  4.9162000  2
  10392  10380  10379  10401     1  0.0000000  0.6024960  3
  10399  10393  10379  10401     1  0.0000000  4.9162000  2
  10399  10393  10379  10401     1  0.0000000  0.6024960  3
  10402  10403  10406  10407     1  180.0000771  0.8368000  1
  10402  10403  10406  10407     1  180.0000771  1.0460000  2
  10402  10403  10406  10407     1  0.0000000  0.7531200  3
  10402  10403  10406  10414     1  0.0000000  0.6508444  3
  10402  10424  10408  10407     1  180.0000771  0.4184000  2
  10402  10424  10408  10407     1  0.0000000  1.6024720  3
  10402  10424  10408  10412     1  180.0000771  5.6484000  1
  10402  10424  10408  10412     1  180.0000771  3.5564000  2
  10402  10424  10408  10412     1  0.0000000  0.4184000  3
  10403  10402  10416  10422     1  0.0000000  0.6508444  3
  10403  10402  10424  10408     1  180.0000771  0.4184000  2
  10403  10402  10424  10408     1  0.0000000  1.6024720  3
  10403  10406  10407  10408     1  180.0000771  0.8368000  1
  10403  10406  10407  10408     1  180.0000771  1.0460000  2
  10403  10406  10407  10408     1  0.0000000  0.7531200  3
  10403  10406  10407  10413     1  0.0000000  0.6508444  3
  10406  10403  10402  10416     1  180.0000771  0.8368000  1
  10406  10403  10402  10416     1  180.0000771  1.0460000  2
  10406  10403  10402  10416     1  0.0000000  0.7531200  3
  10406  10403  10402  10424     1  0.0000000  0.6508444  3
  10406  10407  10408  10412     1  0.0000000  0.6508444  3
  10406  10407  10408  10424     1  0.0000000  0.6508444  3
  10407  10406  10403  10415     1  0.0000000  0.6508444  3
  10408  10407  10406  10414     1  0.0000000  0.6508444  3
  10408  10424  10402  10416     1  180.0000771  0.4184000  2
  10408  10424  10402  10416     1  0.0000000  1.6024720  3
  10412  10408  10407  10413     1  0.0000000  4.9162000  2
  10412  10408  10407  10413     1  0.0000000  0.6024960  3
  10413  10407  10406  10414     1  0.0000000  4.9162000  2
  10413  10407  10406  10414     1  0.0000000  0.6024960  3
  10413  10407  10408  10424     1  0.0000000  4.9162000  2
  10413  10407  10408  10424     1  0.0000000  0.6024960  3
  10414  10406  10403  10415     1  0.0000000  4.9162000  2
  10414  10406  10403  10415     1  0.0000000  0.6024960  3
  10415  10403  10402  10416     1  0.0000000  0.6508444  3
  10415  10403  10402  10424     1  0.0000000  4.9162000  2
  10415  10403  10402  10424     1  0.0000000  0.6024960  3
  10422  10416  10402  10424     1  0.0000000  4.9162000  2
  10422  10416  10402  10424     1  0.0000000  0.6024960  3
  10425  10426  10429  10430     1  180.0000771  0.8368000  1
  10425  10426  10429  10430     1  180.0000771  1.0460000  2
  10425  10426  10429  10430     1  0.0000000  0.7531200  3
  10425  10426  10429  10437     1  0.0000000  0.6508444  3
  10425  10447  10431  10435     1  180.0000771  5.6484000  1
  10425  10447  10431  10435     1  180.0000771  3.5564000  2
  10425  10447  10431  10435     1  0.0000000  0.4184000  3
  10425  10447  10431  10430     1  180.0000771  0.4184000  2
  10425  10447  10431  10430     1  0.0000000  1.6024720  3
  10426  10429  10430  10431     1  180.0000771  0.8368000  1
  10426  10429  10430  10431     1  180.0000771  1.0460000  2
  10426  10429  10430  10431     1  0.0000000  0.7531200  3
  10426  10429  10430  10436     1  0.0000000  0.6508444  3
  10426  10425  10439  10445     1  0.0000000  0.6508444  3
  10426  10425  10447  10431     1  180.0000771  0.4184000  2
  10426  10425  10447  10431     1  0.0000000  1.6024720  3
  10429  10430  10431  10435     1  0.0000000  0.6508444  3
  10429  10430  10431  10447     1  0.0000000  0.6508444  3
  10429  10426  10425  10439     1  180.0000771  0.8368000  1
  10429  10426  10425  10439     1  180.0000771  1.0460000  2
  10429  10426  10425  10439     1  0.0000000  0.7531200  3
  10429  10426  10425  10447     1  0.0000000  0.6508444  3
  10430  10429  10426  10438     1  0.0000000  0.6508444  3
  10431  10447  10425  10439     1  180.0000771  0.4184000  2
  10431  10447  10425  10439     1  0.0000000  1.6024720  3
  10431  10430  10429  10437     1  0.0000000  0.6508444  3
  10435  10431  10430  10436     1  0.0000000  4.9162000  2
  10435  10431  10430  10436     1  0.0000000  0.6024960  3
  10436  10430  10431  10447     1  0.0000000  4.9162000  2
  10436  10430  10431  10447     1  0.0000000  0.6024960  3
  10436  10430  10429  10437     1  0.0000000  4.9162000  2
  10436  10430  10429  10437     1  0.0000000  0.6024960  3
  10437  10429  10426  10438     1  0.0000000  4.9162000  2
  10437  10429  10426  10438     1  0.0000000  0.6024960  3
  10438  10426  10425  10439     1  0.0000000  0.6508444  3
  10438  10426  10425  10447     1  0.0000000  4.9162000  2
  10438  10426  10425  10447     1  0.0000000  0.6024960  3
  10445  10439  10425  10447     1  0.0000000  4.9162000  2
  10445  10439  10425  10447     1  0.0000000  0.6024960  3
  10448  10449  10452  10453     1  180.0000771  0.8368000  1
  10448  10449  10452  10453     1  180.0000771  1.0460000  2
  10448  10449  10452  10453     1  0.0000000  0.7531200  3
  10448  10449  10452  10460     1  0.0000000  0.6508444  3
  10448  10470  10454  10453     1  180.0000771  0.4184000  2
  10448  10470  10454  10453     1  0.0000000  1.6024720  3
  10448  10470  10454  10458     1  180.0000771  5.6484000  1
  10448  10470  10454  10458     1  180.0000771  3.5564000  2
  10448  10470  10454  10458     1  0.0000000  0.4184000  3
  10449  10448  10462  10468     1  0.0000000  0.6508444  3
  10449  10448  10470  10454     1  180.0000771  0.4184000  2
  10449  10448  10470  10454     1  0.0000000  1.6024720  3
  10449  10452  10453  10454     1  180.0000771  0.8368000  1
  10449  10452  10453  10454     1  180.0000771  1.0460000  2
  10449  10452  10453  10454     1  0.0000000  0.7531200  3
  10449  10452  10453  10459     1  0.0000000  0.6508444  3
  10452  10449  10448  10462     1  180.0000771  0.8368000  1
  10452  10449  10448  10462     1  180.0000771  1.0460000  2
  10452  10449  10448  10462     1  0.0000000  0.7531200  3
  10452  10449  10448  10470     1  0.0000000  0.6508444  3
  10452  10453  10454  10458     1  0.0000000  0.6508444  3
  10452  10453  10454  10470     1  0.0000000  0.6508444  3
  10453  10452  10449  10461     1  0.0000000  0.6508444  3
  10454  10453  10452  10460     1  0.0000000  0.6508444  3
  10454  10470  10448  10462     1  180.0000771  0.4184000  2
  10454  10470  10448  10462     1  0.0000000  1.6024720  3
  10458  10454  10453  10459     1  0.0000000  4.9162000  2
  10458  10454  10453  10459     1  0.0000000  0.6024960  3
  10459  10453  10452  10460     1  0.0000000  4.9162000  2
  10459  10453  10452  10460     1  0.0000000  0.6024960  3
  10459  10453  10454  10470     1  0.0000000  4.9162000  2
  10459  10453  10454  10470     1  0.0000000  0.6024960  3
  10460  10452  10449  10461     1  0.0000000  4.9162000  2
  10460  10452  10449  10461     1  0.0000000  0.6024960  3
  10461  10449  10448  10462     1  0.0000000  0.6508444  3
  10461  10449  10448  10470     1  0.0000000  4.9162000  2
  10461  10449  10448  10470     1  0.0000000  0.6024960  3
  10468  10462  10448  10470     1  0.0000000  4.9162000  2
  10468  10462  10448  10470     1  0.0000000  0.6024960  3
  10471  10472  10475  10476     1  180.0000771  0.8368000  1
  10471  10472  10475  10476     1  180.0000771  1.0460000  2
  10471  10472  10475  10476     1  0.0000000  0.7531200  3
  10471  10472  10475  10483     1  0.0000000  0.6508444  3
  10471  10493  10477  10481     1  180.0000771  5.6484000  1
  10471  10493  10477  10481     1  180.0000771  3.5564000  2
  10471  10493  10477  10481     1  0.0000000  0.4184000  3
  10471  10493  10477  10476     1  180.0000771  0.4184000  2
  10471  10493  10477  10476     1  0.0000000  1.6024720  3
  10472  10475  10476  10477     1  180.0000771  0.8368000  1
  10472  10475  10476  10477     1  180.0000771  1.0460000  2
  10472  10475  10476  10477     1  0.0000000  0.7531200  3
  10472  10475  10476  10482     1  0.0000000  0.6508444  3
  10472  10471  10485  10491     1  0.0000000  0.6508444  3
  10472  10471  10493  10477     1  180.0000771  0.4184000  2
  10472  10471  10493  10477     1  0.0000000  1.6024720  3
  10475  10476  10477  10481     1  0.0000000  0.6508444  3
  10475  10476  10477  10493     1  0.0000000  0.6508444  3
  10475  10472  10471  10485     1  180.0000771  0.8368000  1
  10475  10472  10471  10485     1  180.0000771  1.0460000  2
  10475  10472  10471  10485     1  0.0000000  0.7531200  3
  10475  10472  10471  10493     1  0.0000000  0.6508444  3
  10476  10475  10472  10484     1  0.0000000  0.6508444  3
  10477  10493  10471  10485     1  180.0000771  0.4184000  2
  10477  10493  10471  10485     1  0.0000000  1.6024720  3
  10477  10476  10475  10483     1  0.0000000  0.6508444  3
  10481  10477  10476  10482     1  0.0000000  4.9162000  2
  10481  10477  10476  10482     1  0.0000000  0.6024960  3
  10482  10476  10477  10493     1  0.0000000  4.9162000  2
  10482  10476  10477  10493     1  0.0000000  0.6024960  3
  10482  10476  10475  10483     1  0.0000000  4.9162000  2
  10482  10476  10475  10483     1  0.0000000  0.6024960  3
  10483  10475  10472  10484     1  0.0000000  4.9162000  2
  10483  10475  10472  10484     1  0.0000000  0.6024960  3
  10484  10472  10471  10485     1  0.0000000  0.6508444  3
  10484  10472  10471  10493     1  0.0000000  4.9162000  2
  10484  10472  10471  10493     1  0.0000000  0.6024960  3
  10491  10485  10471  10493     1  0.0000000  4.9162000  2
  10491  10485  10471  10493     1  0.0000000  0.6024960  3
  10494  10495  10498  10499     1  180.0000771  0.8368000  1
  10494  10495  10498  10499     1  180.0000771  1.0460000  2
  10494  10495  10498  10499     1  0.0000000  0.7531200  3
  10494  10495  10498  10506     1  0.0000000  0.6508444  3
  10494  10516  10500  10499     1  180.0000771  0.4184000  2
  10494  10516  10500  10499     1  0.0000000  1.6024720  3
  10494  10516  10500  10504     1  180.0000771  5.6484000  1
  10494  10516  10500  10504     1  180.0000771  3.5564000  2
  10494  10516  10500  10504     1  0.0000000  0.4184000  3
  10495  10494  10508  10514     1  0.0000000  0.6508444  3
  10495  10494  10516  10500     1  180.0000771  0.4184000  2
  10495  10494  10516  10500     1  0.0000000  1.6024720  3
  10495  10498  10499  10500     1  180.0000771  0.8368000  1
  10495  10498  10499  10500     1  180.0000771  1.0460000  2
  10495  10498  10499  10500     1  0.0000000  0.7531200  3
  10495  10498  10499  10505     1  0.0000000  0.6508444  3
  10498  10495  10494  10508     1  180.0000771  0.8368000  1
  10498  10495  10494  10508     1  180.0000771  1.0460000  2
  10498  10495  10494  10508     1  0.0000000  0.7531200  3
  10498  10495  10494  10516     1  0.0000000  0.6508444  3
  10498  10499  10500  10504     1  0.0000000  0.6508444  3
  10498  10499  10500  10516     1  0.0000000  0.6508444  3
  10499  10498  10495  10507     1  0.0000000  0.6508444  3
  10500  10499  10498  10506     1  0.0000000  0.6508444  3
  10500  10516  10494  10508     1  180.0000771  0.4184000  2
  10500  10516  10494  10508     1  0.0000000  1.6024720  3
  10504  10500  10499  10505     1  0.0000000  4.9162000  2
  10504  10500  10499  10505     1  0.0000000  0.6024960  3
  10505  10499  10498  10506     1  0.0000000  4.9162000  2
  10505  10499  10498  10506     1  0.0000000  0.6024960  3
  10505  10499  10500  10516     1  0.0000000  4.9162000  2
  10505  10499  10500  10516     1  0.0000000  0.6024960  3
  10506  10498  10495  10507     1  0.0000000  4.9162000  2
  10506  10498  10495  10507     1  0.0000000  0.6024960  3
  10507  10495  10494  10508     1  0.0000000  0.6508444  3
  10507  10495  10494  10516     1  0.0000000  4.9162000  2
  10507  10495  10494  10516     1  0.0000000  0.6024960  3
  10514  10508  10494  10516     1  0.0000000  4.9162000  2
  10514  10508  10494  10516     1  0.0000000  0.6024960  3
  10517  10518  10521  10522     1  180.0000771  0.8368000  1
  10517  10518  10521  10522     1  180.0000771  1.0460000  2
  10517  10518  10521  10522     1  0.0000000  0.7531200  3
  10517  10518  10521  10529     1  0.0000000  0.6508444  3
  10517  10539  10523  10527     1  180.0000771  5.6484000  1
  10517  10539  10523  10527     1  180.0000771  3.5564000  2
  10517  10539  10523  10527     1  0.0000000  0.4184000  3
  10517  10539  10523  10522     1  180.0000771  0.4184000  2
  10517  10539  10523  10522     1  0.0000000  1.6024720  3
  10518  10521  10522  10523     1  180.0000771  0.8368000  1
  10518  10521  10522  10523     1  180.0000771  1.0460000  2
  10518  10521  10522  10523     1  0.0000000  0.7531200  3
  10518  10521  10522  10528     1  0.0000000  0.6508444  3
  10518  10517  10531  10537     1  0.0000000  0.6508444  3
  10518  10517  10539  10523     1  180.0000771  0.4184000  2
  10518  10517  10539  10523     1  0.0000000  1.6024720  3
  10521  10522  10523  10527     1  0.0000000  0.6508444  3
  10521  10522  10523  10539     1  0.0000000  0.6508444  3
  10521  10518  10517  10531     1  180.0000771  0.8368000  1
  10521  10518  10517  10531     1  180.0000771  1.0460000  2
  10521  10518  10517  10531     1  0.0000000  0.7531200  3
  10521  10518  10517  10539     1  0.0000000  0.6508444  3
  10522  10521  10518  10530     1  0.0000000  0.6508444  3
  10523  10539  10517  10531     1  180.0000771  0.4184000  2
  10523  10539  10517  10531     1  0.0000000  1.6024720  3
  10523  10522  10521  10529     1  0.0000000  0.6508444  3
  10527  10523  10522  10528     1  0.0000000  4.9162000  2
  10527  10523  10522  10528     1  0.0000000  0.6024960  3
  10528  10522  10523  10539     1  0.0000000  4.9162000  2
  10528  10522  10523  10539     1  0.0000000  0.6024960  3
  10528  10522  10521  10529     1  0.0000000  4.9162000  2
  10528  10522  10521  10529     1  0.0000000  0.6024960  3
  10529  10521  10518  10530     1  0.0000000  4.9162000  2
  10529  10521  10518  10530     1  0.0000000  0.6024960  3
  10530  10518  10517  10531     1  0.0000000  0.6508444  3
  10530  10518  10517  10539     1  0.0000000  4.9162000  2
  10530  10518  10517  10539     1  0.0000000  0.6024960  3
  10537  10531  10517  10539     1  0.0000000  4.9162000  2
  10537  10531  10517  10539     1  0.0000000  0.6024960  3
  10540  10541  10544  10545     1  180.0000771  0.8368000  1
  10540  10541  10544  10545     1  180.0000771  1.0460000  2
  10540  10541  10544  10545     1  0.0000000  0.7531200  3
  10540  10541  10544  10552     1  0.0000000  0.6508444  3
  10540  10562  10546  10545     1  180.0000771  0.4184000  2
  10540  10562  10546  10545     1  0.0000000  1.6024720  3
  10540  10562  10546  10550     1  180.0000771  5.6484000  1
  10540  10562  10546  10550     1  180.0000771  3.5564000  2
  10540  10562  10546  10550     1  0.0000000  0.4184000  3
  10541  10540  10554  10560     1  0.0000000  0.6508444  3
  10541  10540  10562  10546     1  180.0000771  0.4184000  2
  10541  10540  10562  10546     1  0.0000000  1.6024720  3
  10541  10544  10545  10546     1  180.0000771  0.8368000  1
  10541  10544  10545  10546     1  180.0000771  1.0460000  2
  10541  10544  10545  10546     1  0.0000000  0.7531200  3
  10541  10544  10545  10551     1  0.0000000  0.6508444  3
  10544  10541  10540  10554     1  180.0000771  0.8368000  1
  10544  10541  10540  10554     1  180.0000771  1.0460000  2
  10544  10541  10540  10554     1  0.0000000  0.7531200  3
  10544  10541  10540  10562     1  0.0000000  0.6508444  3
  10544  10545  10546  10550     1  0.0000000  0.6508444  3
  10544  10545  10546  10562     1  0.0000000  0.6508444  3
  10545  10544  10541  10553     1  0.0000000  0.6508444  3
  10546  10545  10544  10552     1  0.0000000  0.6508444  3
  10546  10562  10540  10554     1  180.0000771  0.4184000  2
  10546  10562  10540  10554     1  0.0000000  1.6024720  3
  10550  10546  10545  10551     1  0.0000000  4.9162000  2
  10550  10546  10545  10551     1  0.0000000  0.6024960  3
  10551  10545  10544  10552     1  0.0000000  4.9162000  2
  10551  10545  10544  10552     1  0.0000000  0.6024960  3
  10551  10545  10546  10562     1  0.0000000  4.9162000  2
  10551  10545  10546  10562     1  0.0000000  0.6024960  3
  10552  10544  10541  10553     1  0.0000000  4.9162000  2
  10552  10544  10541  10553     1  0.0000000  0.6024960  3
  10553  10541  10540  10554     1  0.0000000  0.6508444  3
  10553  10541  10540  10562     1  0.0000000  4.9162000  2
  10553  10541  10540  10562     1  0.0000000  0.6024960  3
  10560  10554  10540  10562     1  0.0000000  4.9162000  2
  10560  10554  10540  10562     1  0.0000000  0.6024960  3
  10563  10564  10567  10568     1  180.0000771  0.8368000  1
  10563  10564  10567  10568     1  180.0000771  1.0460000  2
  10563  10564  10567  10568     1  0.0000000  0.7531200  3
  10563  10564  10567  10575     1  0.0000000  0.6508444  3
  10563  10585  10569  10573     1  180.0000771  5.6484000  1
  10563  10585  10569  10573     1  180.0000771  3.5564000  2
  10563  10585  10569  10573     1  0.0000000  0.4184000  3
  10563  10585  10569  10568     1  180.0000771  0.4184000  2
  10563  10585  10569  10568     1  0.0000000  1.6024720  3
  10564  10567  10568  10569     1  180.0000771  0.8368000  1
  10564  10567  10568  10569     1  180.0000771  1.0460000  2
  10564  10567  10568  10569     1  0.0000000  0.7531200  3
  10564  10567  10568  10574     1  0.0000000  0.6508444  3
  10564  10563  10577  10583     1  0.0000000  0.6508444  3
  10564  10563  10585  10569     1  180.0000771  0.4184000  2
  10564  10563  10585  10569     1  0.0000000  1.6024720  3
  10567  10568  10569  10573     1  0.0000000  0.6508444  3
  10567  10568  10569  10585     1  0.0000000  0.6508444  3
  10567  10564  10563  10577     1  180.0000771  0.8368000  1
  10567  10564  10563  10577     1  180.0000771  1.0460000  2
  10567  10564  10563  10577     1  0.0000000  0.7531200  3
  10567  10564  10563  10585     1  0.0000000  0.6508444  3
  10568  10567  10564  10576     1  0.0000000  0.6508444  3
  10569  10585  10563  10577     1  180.0000771  0.4184000  2
  10569  10585  10563  10577     1  0.0000000  1.6024720  3
  10569  10568  10567  10575     1  0.0000000  0.6508444  3
  10573  10569  10568  10574     1  0.0000000  4.9162000  2
  10573  10569  10568  10574     1  0.0000000  0.6024960  3
  10574  10568  10569  10585     1  0.0000000  4.9162000  2
  10574  10568  10569  10585     1  0.0000000  0.6024960  3
  10574  10568  10567  10575     1  0.0000000  4.9162000  2
  10574  10568  10567  10575     1  0.0000000  0.6024960  3
  10575  10567  10564  10576     1  0.0000000  4.9162000  2
  10575  10567  10564  10576     1  0.0000000  0.6024960  3
  10576  10564  10563  10577     1  0.0000000  0.6508444  3
  10576  10564  10563  10585     1  0.0000000  4.9162000  2
  10576  10564  10563  10585     1  0.0000000  0.6024960  3
  10583  10577  10563  10585     1  0.0000000  4.9162000  2
  10583  10577  10563  10585     1  0.0000000  0.6024960  3
  10586  10587  10590  10591     1  180.0000771  0.8368000  1
  10586  10587  10590  10591     1  180.0000771  1.0460000  2
  10586  10587  10590  10591     1  0.0000000  0.7531200  3
  10586  10587  10590  10598     1  0.0000000  0.6508444  3
  10586  10608  10592  10591     1  180.0000771  0.4184000  2
  10586  10608  10592  10591     1  0.0000000  1.6024720  3
  10586  10608  10592  10596     1  180.0000771  5.6484000  1
  10586  10608  10592  10596     1  180.0000771  3.5564000  2
  10586  10608  10592  10596     1  0.0000000  0.4184000  3
  10587  10586  10600  10606     1  0.0000000  0.6508444  3
  10587  10586  10608  10592     1  180.0000771  0.4184000  2
  10587  10586  10608  10592     1  0.0000000  1.6024720  3
  10587  10590  10591  10592     1  180.0000771  0.8368000  1
  10587  10590  10591  10592     1  180.0000771  1.0460000  2
  10587  10590  10591  10592     1  0.0000000  0.7531200  3
  10587  10590  10591  10597     1  0.0000000  0.6508444  3
  10590  10587  10586  10600     1  180.0000771  0.8368000  1
  10590  10587  10586  10600     1  180.0000771  1.0460000  2
  10590  10587  10586  10600     1  0.0000000  0.7531200  3
  10590  10587  10586  10608     1  0.0000000  0.6508444  3
  10590  10591  10592  10596     1  0.0000000  0.6508444  3
  10590  10591  10592  10608     1  0.0000000  0.6508444  3
  10591  10590  10587  10599     1  0.0000000  0.6508444  3
  10592  10591  10590  10598     1  0.0000000  0.6508444  3
  10592  10608  10586  10600     1  180.0000771  0.4184000  2
  10592  10608  10586  10600     1  0.0000000  1.6024720  3
  10596  10592  10591  10597     1  0.0000000  4.9162000  2
  10596  10592  10591  10597     1  0.0000000  0.6024960  3
  10597  10591  10590  10598     1  0.0000000  4.9162000  2
  10597  10591  10590  10598     1  0.0000000  0.6024960  3
  10597  10591  10592  10608     1  0.0000000  4.9162000  2
  10597  10591  10592  10608     1  0.0000000  0.6024960  3
  10598  10590  10587  10599     1  0.0000000  4.9162000  2
  10598  10590  10587  10599     1  0.0000000  0.6024960  3
  10599  10587  10586  10600     1  0.0000000  0.6508444  3
  10599  10587  10586  10608     1  0.0000000  4.9162000  2
  10599  10587  10586  10608     1  0.0000000  0.6024960  3
  10606  10600  10586  10608     1  0.0000000  4.9162000  2
  10606  10600  10586  10608     1  0.0000000  0.6024960  3
  10609  10610  10613  10614     1  180.0000771  0.8368000  1
  10609  10610  10613  10614     1  180.0000771  1.0460000  2
  10609  10610  10613  10614     1  0.0000000  0.7531200  3
  10609  10610  10613  10621     1  0.0000000  0.6508444  3
  10609  10631  10615  10619     1  180.0000771  5.6484000  1
  10609  10631  10615  10619     1  180.0000771  3.5564000  2
  10609  10631  10615  10619     1  0.0000000  0.4184000  3
  10609  10631  10615  10614     1  180.0000771  0.4184000  2
  10609  10631  10615  10614     1  0.0000000  1.6024720  3
  10610  10613  10614  10615     1  180.0000771  0.8368000  1
  10610  10613  10614  10615     1  180.0000771  1.0460000  2
  10610  10613  10614  10615     1  0.0000000  0.7531200  3
  10610  10613  10614  10620     1  0.0000000  0.6508444  3
  10610  10609  10623  10629     1  0.0000000  0.6508444  3
  10610  10609  10631  10615     1  180.0000771  0.4184000  2
  10610  10609  10631  10615     1  0.0000000  1.6024720  3
  10613  10614  10615  10619     1  0.0000000  0.6508444  3
  10613  10614  10615  10631     1  0.0000000  0.6508444  3
  10613  10610  10609  10623     1  180.0000771  0.8368000  1
  10613  10610  10609  10623     1  180.0000771  1.0460000  2
  10613  10610  10609  10623     1  0.0000000  0.7531200  3
  10613  10610  10609  10631     1  0.0000000  0.6508444  3
  10614  10613  10610  10622     1  0.0000000  0.6508444  3
  10615  10631  10609  10623     1  180.0000771  0.4184000  2
  10615  10631  10609  10623     1  0.0000000  1.6024720  3
  10615  10614  10613  10621     1  0.0000000  0.6508444  3
  10619  10615  10614  10620     1  0.0000000  4.9162000  2
  10619  10615  10614  10620     1  0.0000000  0.6024960  3
  10620  10614  10615  10631     1  0.0000000  4.9162000  2
  10620  10614  10615  10631     1  0.0000000  0.6024960  3
  10620  10614  10613  10621     1  0.0000000  4.9162000  2
  10620  10614  10613  10621     1  0.0000000  0.6024960  3
  10621  10613  10610  10622     1  0.0000000  4.9162000  2
  10621  10613  10610  10622     1  0.0000000  0.6024960  3
  10622  10610  10609  10623     1  0.0000000  0.6508444  3
  10622  10610  10609  10631     1  0.0000000  4.9162000  2
  10622  10610  10609  10631     1  0.0000000  0.6024960  3
  10629  10623  10609  10631     1  0.0000000  4.9162000  2
  10629  10623  10609  10631     1  0.0000000  0.6024960  3
  10632  10633  10636  10637     1  180.0000771  0.8368000  1
  10632  10633  10636  10637     1  180.0000771  1.0460000  2
  10632  10633  10636  10637     1  0.0000000  0.7531200  3
  10632  10633  10636  10644     1  0.0000000  0.6508444  3
  10632  10654  10638  10637     1  180.0000771  0.4184000  2
  10632  10654  10638  10637     1  0.0000000  1.6024720  3
  10632  10654  10638  10642     1  180.0000771  5.6484000  1
  10632  10654  10638  10642     1  180.0000771  3.5564000  2
  10632  10654  10638  10642     1  0.0000000  0.4184000  3
  10633  10632  10646  10652     1  0.0000000  0.6508444  3
  10633  10632  10654  10638     1  180.0000771  0.4184000  2
  10633  10632  10654  10638     1  0.0000000  1.6024720  3
  10633  10636  10637  10638     1  180.0000771  0.8368000  1
  10633  10636  10637  10638     1  180.0000771  1.0460000  2
  10633  10636  10637  10638     1  0.0000000  0.7531200  3
  10633  10636  10637  10643     1  0.0000000  0.6508444  3
  10636  10633  10632  10646     1  180.0000771  0.8368000  1
  10636  10633  10632  10646     1  180.0000771  1.0460000  2
  10636  10633  10632  10646     1  0.0000000  0.7531200  3
  10636  10633  10632  10654     1  0.0000000  0.6508444  3
  10636  10637  10638  10642     1  0.0000000  0.6508444  3
  10636  10637  10638  10654     1  0.0000000  0.6508444  3
  10637  10636  10633  10645     1  0.0000000  0.6508444  3
  10638  10637  10636  10644     1  0.0000000  0.6508444  3
  10638  10654  10632  10646     1  180.0000771  0.4184000  2
  10638  10654  10632  10646     1  0.0000000  1.6024720  3
  10642  10638  10637  10643     1  0.0000000  4.9162000  2
  10642  10638  10637  10643     1  0.0000000  0.6024960  3
  10643  10637  10636  10644     1  0.0000000  4.9162000  2
  10643  10637  10636  10644     1  0.0000000  0.6024960  3
  10643  10637  10638  10654     1  0.0000000  4.9162000  2
  10643  10637  10638  10654     1  0.0000000  0.6024960  3
  10644  10636  10633  10645     1  0.0000000  4.9162000  2
  10644  10636  10633  10645     1  0.0000000  0.6024960  3
  10645  10633  10632  10646     1  0.0000000  0.6508444  3
  10645  10633  10632  10654     1  0.0000000  4.9162000  2
  10645  10633  10632  10654     1  0.0000000  0.6024960  3
  10652  10646  10632  10654     1  0.0000000  4.9162000  2
  10652  10646  10632  10654     1  0.0000000  0.6024960  3
  10655  10656  10659  10660     1  180.0000771  0.8368000  1
  10655  10656  10659  10660     1  180.0000771  1.0460000  2
  10655  10656  10659  10660     1  0.0000000  0.7531200  3
  10655  10656  10659  10667     1  0.0000000  0.6508444  3
  10655  10677  10661  10665     1  180.0000771  5.6484000  1
  10655  10677  10661  10665     1  180.0000771  3.5564000  2
  10655  10677  10661  10665     1  0.0000000  0.4184000  3
  10655  10677  10661  10660     1  180.0000771  0.4184000  2
  10655  10677  10661  10660     1  0.0000000  1.6024720  3
  10656  10659  10660  10661     1  180.0000771  0.8368000  1
  10656  10659  10660  10661     1  180.0000771  1.0460000  2
  10656  10659  10660  10661     1  0.0000000  0.7531200  3
  10656  10659  10660  10666     1  0.0000000  0.6508444  3
  10656  10655  10669  10675     1  0.0000000  0.6508444  3
  10656  10655  10677  10661     1  180.0000771  0.4184000  2
  10656  10655  10677  10661     1  0.0000000  1.6024720  3
  10659  10660  10661  10665     1  0.0000000  0.6508444  3
  10659  10660  10661  10677     1  0.0000000  0.6508444  3
  10659  10656  10655  10669     1  180.0000771  0.8368000  1
  10659  10656  10655  10669     1  180.0000771  1.0460000  2
  10659  10656  10655  10669     1  0.0000000  0.7531200  3
  10659  10656  10655  10677     1  0.0000000  0.6508444  3
  10660  10659  10656  10668     1  0.0000000  0.6508444  3
  10661  10677  10655  10669     1  180.0000771  0.4184000  2
  10661  10677  10655  10669     1  0.0000000  1.6024720  3
  10661  10660  10659  10667     1  0.0000000  0.6508444  3
  10665  10661  10660  10666     1  0.0000000  4.9162000  2
  10665  10661  10660  10666     1  0.0000000  0.6024960  3
  10666  10660  10661  10677     1  0.0000000  4.9162000  2
  10666  10660  10661  10677     1  0.0000000  0.6024960  3
  10666  10660  10659  10667     1  0.0000000  4.9162000  2
  10666  10660  10659  10667     1  0.0000000  0.6024960  3
  10667  10659  10656  10668     1  0.0000000  4.9162000  2
  10667  10659  10656  10668     1  0.0000000  0.6024960  3
  10668  10656  10655  10669     1  0.0000000  0.6508444  3
  10668  10656  10655  10677     1  0.0000000  4.9162000  2
  10668  10656  10655  10677     1  0.0000000  0.6024960  3
  10675  10669  10655  10677     1  0.0000000  4.9162000  2
  10675  10669  10655  10677     1  0.0000000  0.6024960  3
  10678  10679  10682  10683     1  180.0000771  0.8368000  1
  10678  10679  10682  10683     1  180.0000771  1.0460000  2
  10678  10679  10682  10683     1  0.0000000  0.7531200  3
  10678  10679  10682  10690     1  0.0000000  0.6508444  3
  10678  10700  10684  10683     1  180.0000771  0.4184000  2
  10678  10700  10684  10683     1  0.0000000  1.6024720  3
  10678  10700  10684  10688     1  180.0000771  5.6484000  1
  10678  10700  10684  10688     1  180.0000771  3.5564000  2
  10678  10700  10684  10688     1  0.0000000  0.4184000  3
  10679  10678  10692  10698     1  0.0000000  0.6508444  3
  10679  10678  10700  10684     1  180.0000771  0.4184000  2
  10679  10678  10700  10684     1  0.0000000  1.6024720  3
  10679  10682  10683  10684     1  180.0000771  0.8368000  1
  10679  10682  10683  10684     1  180.0000771  1.0460000  2
  10679  10682  10683  10684     1  0.0000000  0.7531200  3
  10679  10682  10683  10689     1  0.0000000  0.6508444  3
  10682  10679  10678  10692     1  180.0000771  0.8368000  1
  10682  10679  10678  10692     1  180.0000771  1.0460000  2
  10682  10679  10678  10692     1  0.0000000  0.7531200  3
  10682  10679  10678  10700     1  0.0000000  0.6508444  3
  10682  10683  10684  10688     1  0.0000000  0.6508444  3
  10682  10683  10684  10700     1  0.0000000  0.6508444  3
  10683  10682  10679  10691     1  0.0000000  0.6508444  3
  10684  10683  10682  10690     1  0.0000000  0.6508444  3
  10684  10700  10678  10692     1  180.0000771  0.4184000  2
  10684  10700  10678  10692     1  0.0000000  1.6024720  3
  10688  10684  10683  10689     1  0.0000000  4.9162000  2
  10688  10684  10683  10689     1  0.0000000  0.6024960  3
  10689  10683  10682  10690     1  0.0000000  4.9162000  2
  10689  10683  10682  10690     1  0.0000000  0.6024960  3
  10689  10683  10684  10700     1  0.0000000  4.9162000  2
  10689  10683  10684  10700     1  0.0000000  0.6024960  3
  10690  10682  10679  10691     1  0.0000000  4.9162000  2
  10690  10682  10679  10691     1  0.0000000  0.6024960  3
  10691  10679  10678  10692     1  0.0000000  0.6508444  3
  10691  10679  10678  10700     1  0.0000000  4.9162000  2
  10691  10679  10678  10700     1  0.0000000  0.6024960  3
  10698  10692  10678  10700     1  0.0000000  4.9162000  2
  10698  10692  10678  10700     1  0.0000000  0.6024960  3
  10701  10702  10705  10706     1  180.0000771  0.8368000  1
  10701  10702  10705  10706     1  180.0000771  1.0460000  2
  10701  10702  10705  10706     1  0.0000000  0.7531200  3
  10701  10702  10705  10713     1  0.0000000  0.6508444  3
  10701  10723  10707  10711     1  180.0000771  5.6484000  1
  10701  10723  10707  10711     1  180.0000771  3.5564000  2
  10701  10723  10707  10711     1  0.0000000  0.4184000  3
  10701  10723  10707  10706     1  180.0000771  0.4184000  2
  10701  10723  10707  10706     1  0.0000000  1.6024720  3
  10702  10705  10706  10707     1  180.0000771  0.8368000  1
  10702  10705  10706  10707     1  180.0000771  1.0460000  2
  10702  10705  10706  10707     1  0.0000000  0.7531200  3
  10702  10705  10706  10712     1  0.0000000  0.6508444  3
  10702  10701  10715  10721     1  0.0000000  0.6508444  3
  10702  10701  10723  10707     1  180.0000771  0.4184000  2
  10702  10701  10723  10707     1  0.0000000  1.6024720  3
  10705  10706  10707  10711     1  0.0000000  0.6508444  3
  10705  10706  10707  10723     1  0.0000000  0.6508444  3
  10705  10702  10701  10715     1  180.0000771  0.8368000  1
  10705  10702  10701  10715     1  180.0000771  1.0460000  2
  10705  10702  10701  10715     1  0.0000000  0.7531200  3
  10705  10702  10701  10723     1  0.0000000  0.6508444  3
  10706  10705  10702  10714     1  0.0000000  0.6508444  3
  10707  10723  10701  10715     1  180.0000771  0.4184000  2
  10707  10723  10701  10715     1  0.0000000  1.6024720  3
  10707  10706  10705  10713     1  0.0000000  0.6508444  3
  10711  10707  10706  10712     1  0.0000000  4.9162000  2
  10711  10707  10706  10712     1  0.0000000  0.6024960  3
  10712  10706  10707  10723     1  0.0000000  4.9162000  2
  10712  10706  10707  10723     1  0.0000000  0.6024960  3
  10712  10706  10705  10713     1  0.0000000  4.9162000  2
  10712  10706  10705  10713     1  0.0000000  0.6024960  3
  10713  10705  10702  10714     1  0.0000000  4.9162000  2
  10713  10705  10702  10714     1  0.0000000  0.6024960  3
  10714  10702  10701  10715     1  0.0000000  0.6508444  3
  10714  10702  10701  10723     1  0.0000000  4.9162000  2
  10714  10702  10701  10723     1  0.0000000  0.6024960  3
  10721  10715  10701  10723     1  0.0000000  4.9162000  2
  10721  10715  10701  10723     1  0.0000000  0.6024960  3
  10724  10725  10728  10729     1  180.0000771  0.8368000  1
  10724  10725  10728  10729     1  180.0000771  1.0460000  2
  10724  10725  10728  10729     1  0.0000000  0.7531200  3
  10724  10725  10728  10736     1  0.0000000  0.6508444  3
  10724  10746  10730  10729     1  180.0000771  0.4184000  2
  10724  10746  10730  10729     1  0.0000000  1.6024720  3
  10724  10746  10730  10734     1  180.0000771  5.6484000  1
  10724  10746  10730  10734     1  180.0000771  3.5564000  2
  10724  10746  10730  10734     1  0.0000000  0.4184000  3
  10725  10724  10738  10744     1  0.0000000  0.6508444  3
  10725  10724  10746  10730     1  180.0000771  0.4184000  2
  10725  10724  10746  10730     1  0.0000000  1.6024720  3
  10725  10728  10729  10730     1  180.0000771  0.8368000  1
  10725  10728  10729  10730     1  180.0000771  1.0460000  2
  10725  10728  10729  10730     1  0.0000000  0.7531200  3
  10725  10728  10729  10735     1  0.0000000  0.6508444  3
  10728  10725  10724  10738     1  180.0000771  0.8368000  1
  10728  10725  10724  10738     1  180.0000771  1.0460000  2
  10728  10725  10724  10738     1  0.0000000  0.7531200  3
  10728  10725  10724  10746     1  0.0000000  0.6508444  3
  10728  10729  10730  10734     1  0.0000000  0.6508444  3
  10728  10729  10730  10746     1  0.0000000  0.6508444  3
  10729  10728  10725  10737     1  0.0000000  0.6508444  3
  10730  10729  10728  10736     1  0.0000000  0.6508444  3
  10730  10746  10724  10738     1  180.0000771  0.4184000  2
  10730  10746  10724  10738     1  0.0000000  1.6024720  3
  10734  10730  10729  10735     1  0.0000000  4.9162000  2
  10734  10730  10729  10735     1  0.0000000  0.6024960  3
  10735  10729  10728  10736     1  0.0000000  4.9162000  2
  10735  10729  10728  10736     1  0.0000000  0.6024960  3
  10735  10729  10730  10746     1  0.0000000  4.9162000  2
  10735  10729  10730  10746     1  0.0000000  0.6024960  3
  10736  10728  10725  10737     1  0.0000000  4.9162000  2
  10736  10728  10725  10737     1  0.0000000  0.6024960  3
  10737  10725  10724  10738     1  0.0000000  0.6508444  3
  10737  10725  10724  10746     1  0.0000000  4.9162000  2
  10737  10725  10724  10746     1  0.0000000  0.6024960  3
  10744  10738  10724  10746     1  0.0000000  4.9162000  2
  10744  10738  10724  10746     1  0.0000000  0.6024960  3
  10747  10748  10751  10752     1  180.0000771  0.8368000  1
  10747  10748  10751  10752     1  180.0000771  1.0460000  2
  10747  10748  10751  10752     1  0.0000000  0.7531200  3
  10747  10748  10751  10759     1  0.0000000  0.6508444  3
  10747  10769  10753  10757     1  180.0000771  5.6484000  1
  10747  10769  10753  10757     1  180.0000771  3.5564000  2
  10747  10769  10753  10757     1  0.0000000  0.4184000  3
  10747  10769  10753  10752     1  180.0000771  0.4184000  2
  10747  10769  10753  10752     1  0.0000000  1.6024720  3
  10748  10751  10752  10753     1  180.0000771  0.8368000  1
  10748  10751  10752  10753     1  180.0000771  1.0460000  2
  10748  10751  10752  10753     1  0.0000000  0.7531200  3
  10748  10751  10752  10758     1  0.0000000  0.6508444  3
  10748  10747  10761  10767     1  0.0000000  0.6508444  3
  10748  10747  10769  10753     1  180.0000771  0.4184000  2
  10748  10747  10769  10753     1  0.0000000  1.6024720  3
  10751  10752  10753  10757     1  0.0000000  0.6508444  3
  10751  10752  10753  10769     1  0.0000000  0.6508444  3
  10751  10748  10747  10761     1  180.0000771  0.8368000  1
  10751  10748  10747  10761     1  180.0000771  1.0460000  2
  10751  10748  10747  10761     1  0.0000000  0.7531200  3
  10751  10748  10747  10769     1  0.0000000  0.6508444  3
  10752  10751  10748  10760     1  0.0000000  0.6508444  3
  10753  10769  10747  10761     1  180.0000771  0.4184000  2
  10753  10769  10747  10761     1  0.0000000  1.6024720  3
  10753  10752  10751  10759     1  0.0000000  0.6508444  3
  10757  10753  10752  10758     1  0.0000000  4.9162000  2
  10757  10753  10752  10758     1  0.0000000  0.6024960  3
  10758  10752  10753  10769     1  0.0000000  4.9162000  2
  10758  10752  10753  10769     1  0.0000000  0.6024960  3
  10758  10752  10751  10759     1  0.0000000  4.9162000  2
  10758  10752  10751  10759     1  0.0000000  0.6024960  3
  10759  10751  10748  10760     1  0.0000000  4.9162000  2
  10759  10751  10748  10760     1  0.0000000  0.6024960  3
  10760  10748  10747  10761     1  0.0000000  0.6508444  3
  10760  10748  10747  10769     1  0.0000000  4.9162000  2
  10760  10748  10747  10769     1  0.0000000  0.6024960  3
  10767  10761  10747  10769     1  0.0000000  4.9162000  2
  10767  10761  10747  10769     1  0.0000000  0.6024960  3
  10770  10771  10774  10775     1  180.0000771  0.8368000  1
  10770  10771  10774  10775     1  180.0000771  1.0460000  2
  10770  10771  10774  10775     1  0.0000000  0.7531200  3
  10770  10771  10774  10782     1  0.0000000  0.6508444  3
  10770  10792  10776  10775     1  180.0000771  0.4184000  2
  10770  10792  10776  10775     1  0.0000000  1.6024720  3
  10770  10792  10776  10780     1  180.0000771  5.6484000  1
  10770  10792  10776  10780     1  180.0000771  3.5564000  2
  10770  10792  10776  10780     1  0.0000000  0.4184000  3
  10771  10770  10784  10790     1  0.0000000  0.6508444  3
  10771  10770  10792  10776     1  180.0000771  0.4184000  2
  10771  10770  10792  10776     1  0.0000000  1.6024720  3
  10771  10774  10775  10776     1  180.0000771  0.8368000  1
  10771  10774  10775  10776     1  180.0000771  1.0460000  2
  10771  10774  10775  10776     1  0.0000000  0.7531200  3
  10771  10774  10775  10781     1  0.0000000  0.6508444  3
  10774  10771  10770  10784     1  180.0000771  0.8368000  1
  10774  10771  10770  10784     1  180.0000771  1.0460000  2
  10774  10771  10770  10784     1  0.0000000  0.7531200  3
  10774  10771  10770  10792     1  0.0000000  0.6508444  3
  10774  10775  10776  10780     1  0.0000000  0.6508444  3
  10774  10775  10776  10792     1  0.0000000  0.6508444  3
  10775  10774  10771  10783     1  0.0000000  0.6508444  3
  10776  10775  10774  10782     1  0.0000000  0.6508444  3
  10776  10792  10770  10784     1  180.0000771  0.4184000  2
  10776  10792  10770  10784     1  0.0000000  1.6024720  3
  10780  10776  10775  10781     1  0.0000000  4.9162000  2
  10780  10776  10775  10781     1  0.0000000  0.6024960  3
  10781  10775  10774  10782     1  0.0000000  4.9162000  2
  10781  10775  10774  10782     1  0.0000000  0.6024960  3
  10781  10775  10776  10792     1  0.0000000  4.9162000  2
  10781  10775  10776  10792     1  0.0000000  0.6024960  3
  10782  10774  10771  10783     1  0.0000000  4.9162000  2
  10782  10774  10771  10783     1  0.0000000  0.6024960  3
  10783  10771  10770  10784     1  0.0000000  0.6508444  3
  10783  10771  10770  10792     1  0.0000000  4.9162000  2
  10783  10771  10770  10792     1  0.0000000  0.6024960  3
  10790  10784  10770  10792     1  0.0000000  4.9162000  2
  10790  10784  10770  10792     1  0.0000000  0.6024960  3
  10793  10794  10797  10798     1  180.0000771  0.8368000  1
  10793  10794  10797  10798     1  180.0000771  1.0460000  2
  10793  10794  10797  10798     1  0.0000000  0.7531200  3
  10793  10794  10797  10805     1  0.0000000  0.6508444  3
  10793  10815  10799  10803     1  180.0000771  5.6484000  1
  10793  10815  10799  10803     1  180.0000771  3.5564000  2
  10793  10815  10799  10803     1  0.0000000  0.4184000  3
  10793  10815  10799  10798     1  180.0000771  0.4184000  2
  10793  10815  10799  10798     1  0.0000000  1.6024720  3
  10794  10797  10798  10799     1  180.0000771  0.8368000  1
  10794  10797  10798  10799     1  180.0000771  1.0460000  2
  10794  10797  10798  10799     1  0.0000000  0.7531200  3
  10794  10797  10798  10804     1  0.0000000  0.6508444  3
  10794  10793  10807  10813     1  0.0000000  0.6508444  3
  10794  10793  10815  10799     1  180.0000771  0.4184000  2
  10794  10793  10815  10799     1  0.0000000  1.6024720  3
  10797  10798  10799  10803     1  0.0000000  0.6508444  3
  10797  10798  10799  10815     1  0.0000000  0.6508444  3
  10797  10794  10793  10807     1  180.0000771  0.8368000  1
  10797  10794  10793  10807     1  180.0000771  1.0460000  2
  10797  10794  10793  10807     1  0.0000000  0.7531200  3
  10797  10794  10793  10815     1  0.0000000  0.6508444  3
  10798  10797  10794  10806     1  0.0000000  0.6508444  3
  10799  10815  10793  10807     1  180.0000771  0.4184000  2
  10799  10815  10793  10807     1  0.0000000  1.6024720  3
  10799  10798  10797  10805     1  0.0000000  0.6508444  3
  10803  10799  10798  10804     1  0.0000000  4.9162000  2
  10803  10799  10798  10804     1  0.0000000  0.6024960  3
  10804  10798  10799  10815     1  0.0000000  4.9162000  2
  10804  10798  10799  10815     1  0.0000000  0.6024960  3
  10804  10798  10797  10805     1  0.0000000  4.9162000  2
  10804  10798  10797  10805     1  0.0000000  0.6024960  3
  10805  10797  10794  10806     1  0.0000000  4.9162000  2
  10805  10797  10794  10806     1  0.0000000  0.6024960  3
  10806  10794  10793  10807     1  0.0000000  0.6508444  3
  10806  10794  10793  10815     1  0.0000000  4.9162000  2
  10806  10794  10793  10815     1  0.0000000  0.6024960  3
  10813  10807  10793  10815     1  0.0000000  4.9162000  2
  10813  10807  10793  10815     1  0.0000000  0.6024960  3
  10816  10817  10820  10821     1  180.0000771  0.8368000  1
  10816  10817  10820  10821     1  180.0000771  1.0460000  2
  10816  10817  10820  10821     1  0.0000000  0.7531200  3
  10816  10817  10820  10828     1  0.0000000  0.6508444  3
  10816  10838  10822  10821     1  180.0000771  0.4184000  2
  10816  10838  10822  10821     1  0.0000000  1.6024720  3
  10816  10838  10822  10826     1  180.0000771  5.6484000  1
  10816  10838  10822  10826     1  180.0000771  3.5564000  2
  10816  10838  10822  10826     1  0.0000000  0.4184000  3
  10817  10816  10830  10836     1  0.0000000  0.6508444  3
  10817  10816  10838  10822     1  180.0000771  0.4184000  2
  10817  10816  10838  10822     1  0.0000000  1.6024720  3
  10817  10820  10821  10822     1  180.0000771  0.8368000  1
  10817  10820  10821  10822     1  180.0000771  1.0460000  2
  10817  10820  10821  10822     1  0.0000000  0.7531200  3
  10817  10820  10821  10827     1  0.0000000  0.6508444  3
  10820  10817  10816  10830     1  180.0000771  0.8368000  1
  10820  10817  10816  10830     1  180.0000771  1.0460000  2
  10820  10817  10816  10830     1  0.0000000  0.7531200  3
  10820  10817  10816  10838     1  0.0000000  0.6508444  3
  10820  10821  10822  10826     1  0.0000000  0.6508444  3
  10820  10821  10822  10838     1  0.0000000  0.6508444  3
  10821  10820  10817  10829     1  0.0000000  0.6508444  3
  10822  10821  10820  10828     1  0.0000000  0.6508444  3
  10822  10838  10816  10830     1  180.0000771  0.4184000  2
  10822  10838  10816  10830     1  0.0000000  1.6024720  3
  10826  10822  10821  10827     1  0.0000000  4.9162000  2
  10826  10822  10821  10827     1  0.0000000  0.6024960  3
  10827  10821  10820  10828     1  0.0000000  4.9162000  2
  10827  10821  10820  10828     1  0.0000000  0.6024960  3
  10827  10821  10822  10838     1  0.0000000  4.9162000  2
  10827  10821  10822  10838     1  0.0000000  0.6024960  3
  10828  10820  10817  10829     1  0.0000000  4.9162000  2
  10828  10820  10817  10829     1  0.0000000  0.6024960  3
  10829  10817  10816  10830     1  0.0000000  0.6508444  3
  10829  10817  10816  10838     1  0.0000000  4.9162000  2
  10829  10817  10816  10838     1  0.0000000  0.6024960  3
  10836  10830  10816  10838     1  0.0000000  4.9162000  2
  10836  10830  10816  10838     1  0.0000000  0.6024960  3
  10839  10840  10843  10844     1  180.0000771  0.8368000  1
  10839  10840  10843  10844     1  180.0000771  1.0460000  2
  10839  10840  10843  10844     1  0.0000000  0.7531200  3
  10839  10840  10843  10851     1  0.0000000  0.6508444  3
  10839  10861  10845  10849     1  180.0000771  5.6484000  1
  10839  10861  10845  10849     1  180.0000771  3.5564000  2
  10839  10861  10845  10849     1  0.0000000  0.4184000  3
  10839  10861  10845  10844     1  180.0000771  0.4184000  2
  10839  10861  10845  10844     1  0.0000000  1.6024720  3
  10840  10843  10844  10845     1  180.0000771  0.8368000  1
  10840  10843  10844  10845     1  180.0000771  1.0460000  2
  10840  10843  10844  10845     1  0.0000000  0.7531200  3
  10840  10843  10844  10850     1  0.0000000  0.6508444  3
  10840  10839  10853  10859     1  0.0000000  0.6508444  3
  10840  10839  10861  10845     1  180.0000771  0.4184000  2
  10840  10839  10861  10845     1  0.0000000  1.6024720  3
  10843  10844  10845  10849     1  0.0000000  0.6508444  3
  10843  10844  10845  10861     1  0.0000000  0.6508444  3
  10843  10840  10839  10853     1  180.0000771  0.8368000  1
  10843  10840  10839  10853     1  180.0000771  1.0460000  2
  10843  10840  10839  10853     1  0.0000000  0.7531200  3
  10843  10840  10839  10861     1  0.0000000  0.6508444  3
  10844  10843  10840  10852     1  0.0000000  0.6508444  3
  10845  10861  10839  10853     1  180.0000771  0.4184000  2
  10845  10861  10839  10853     1  0.0000000  1.6024720  3
  10845  10844  10843  10851     1  0.0000000  0.6508444  3
  10849  10845  10844  10850     1  0.0000000  4.9162000  2
  10849  10845  10844  10850     1  0.0000000  0.6024960  3
  10850  10844  10845  10861     1  0.0000000  4.9162000  2
  10850  10844  10845  10861     1  0.0000000  0.6024960  3
  10850  10844  10843  10851     1  0.0000000  4.9162000  2
  10850  10844  10843  10851     1  0.0000000  0.6024960  3
  10851  10843  10840  10852     1  0.0000000  4.9162000  2
  10851  10843  10840  10852     1  0.0000000  0.6024960  3
  10852  10840  10839  10853     1  0.0000000  0.6508444  3
  10852  10840  10839  10861     1  0.0000000  4.9162000  2
  10852  10840  10839  10861     1  0.0000000  0.6024960  3
  10859  10853  10839  10861     1  0.0000000  4.9162000  2
  10859  10853  10839  10861     1  0.0000000  0.6024960  3
  10862  10863  10866  10867     1  180.0000771  0.8368000  1
  10862  10863  10866  10867     1  180.0000771  1.0460000  2
  10862  10863  10866  10867     1  0.0000000  0.7531200  3
  10862  10863  10866  10874     1  0.0000000  0.6508444  3
  10862  10884  10868  10867     1  180.0000771  0.4184000  2
  10862  10884  10868  10867     1  0.0000000  1.6024720  3
  10862  10884  10868  10872     1  180.0000771  5.6484000  1
  10862  10884  10868  10872     1  180.0000771  3.5564000  2
  10862  10884  10868  10872     1  0.0000000  0.4184000  3
  10863  10862  10876  10882     1  0.0000000  0.6508444  3
  10863  10862  10884  10868     1  180.0000771  0.4184000  2
  10863  10862  10884  10868     1  0.0000000  1.6024720  3
  10863  10866  10867  10868     1  180.0000771  0.8368000  1
  10863  10866  10867  10868     1  180.0000771  1.0460000  2
  10863  10866  10867  10868     1  0.0000000  0.7531200  3
  10863  10866  10867  10873     1  0.0000000  0.6508444  3
  10866  10863  10862  10876     1  180.0000771  0.8368000  1
  10866  10863  10862  10876     1  180.0000771  1.0460000  2
  10866  10863  10862  10876     1  0.0000000  0.7531200  3
  10866  10863  10862  10884     1  0.0000000  0.6508444  3
  10866  10867  10868  10872     1  0.0000000  0.6508444  3
  10866  10867  10868  10884     1  0.0000000  0.6508444  3
  10867  10866  10863  10875     1  0.0000000  0.6508444  3
  10868  10867  10866  10874     1  0.0000000  0.6508444  3
  10868  10884  10862  10876     1  180.0000771  0.4184000  2
  10868  10884  10862  10876     1  0.0000000  1.6024720  3
  10872  10868  10867  10873     1  0.0000000  4.9162000  2
  10872  10868  10867  10873     1  0.0000000  0.6024960  3
  10873  10867  10866  10874     1  0.0000000  4.9162000  2
  10873  10867  10866  10874     1  0.0000000  0.6024960  3
  10873  10867  10868  10884     1  0.0000000  4.9162000  2
  10873  10867  10868  10884     1  0.0000000  0.6024960  3
  10874  10866  10863  10875     1  0.0000000  4.9162000  2
  10874  10866  10863  10875     1  0.0000000  0.6024960  3
  10875  10863  10862  10876     1  0.0000000  0.6508444  3
  10875  10863  10862  10884     1  0.0000000  4.9162000  2
  10875  10863  10862  10884     1  0.0000000  0.6024960  3
  10882  10876  10862  10884     1  0.0000000  4.9162000  2
  10882  10876  10862  10884     1  0.0000000  0.6024960  3
  10885  10886  10889  10890     1  180.0000771  0.8368000  1
  10885  10886  10889  10890     1  180.0000771  1.0460000  2
  10885  10886  10889  10890     1  0.0000000  0.7531200  3
  10885  10886  10889  10897     1  0.0000000  0.6508444  3
  10885  10907  10891  10895     1  180.0000771  5.6484000  1
  10885  10907  10891  10895     1  180.0000771  3.5564000  2
  10885  10907  10891  10895     1  0.0000000  0.4184000  3
  10885  10907  10891  10890     1  180.0000771  0.4184000  2
  10885  10907  10891  10890     1  0.0000000  1.6024720  3
  10886  10889  10890  10891     1  180.0000771  0.8368000  1
  10886  10889  10890  10891     1  180.0000771  1.0460000  2
  10886  10889  10890  10891     1  0.0000000  0.7531200  3
  10886  10889  10890  10896     1  0.0000000  0.6508444  3
  10886  10885  10899  10905     1  0.0000000  0.6508444  3
  10886  10885  10907  10891     1  180.0000771  0.4184000  2
  10886  10885  10907  10891     1  0.0000000  1.6024720  3
  10889  10890  10891  10895     1  0.0000000  0.6508444  3
  10889  10890  10891  10907     1  0.0000000  0.6508444  3
  10889  10886  10885  10899     1  180.0000771  0.8368000  1
  10889  10886  10885  10899     1  180.0000771  1.0460000  2
  10889  10886  10885  10899     1  0.0000000  0.7531200  3
  10889  10886  10885  10907     1  0.0000000  0.6508444  3
  10890  10889  10886  10898     1  0.0000000  0.6508444  3
  10891  10907  10885  10899     1  180.0000771  0.4184000  2
  10891  10907  10885  10899     1  0.0000000  1.6024720  3
  10891  10890  10889  10897     1  0.0000000  0.6508444  3
  10895  10891  10890  10896     1  0.0000000  4.9162000  2
  10895  10891  10890  10896     1  0.0000000  0.6024960  3
  10896  10890  10891  10907     1  0.0000000  4.9162000  2
  10896  10890  10891  10907     1  0.0000000  0.6024960  3
  10896  10890  10889  10897     1  0.0000000  4.9162000  2
  10896  10890  10889  10897     1  0.0000000  0.6024960  3
  10897  10889  10886  10898     1  0.0000000  4.9162000  2
  10897  10889  10886  10898     1  0.0000000  0.6024960  3
  10898  10886  10885  10899     1  0.0000000  0.6508444  3
  10898  10886  10885  10907     1  0.0000000  4.9162000  2
  10898  10886  10885  10907     1  0.0000000  0.6024960  3
  10905  10899  10885  10907     1  0.0000000  4.9162000  2
  10905  10899  10885  10907     1  0.0000000  0.6024960  3
  10908  10909  10912  10913     1  180.0000771  0.8368000  1
  10908  10909  10912  10913     1  180.0000771  1.0460000  2
  10908  10909  10912  10913     1  0.0000000  0.7531200  3
  10908  10909  10912  10920     1  0.0000000  0.6508444  3
  10908  10930  10914  10913     1  180.0000771  0.4184000  2
  10908  10930  10914  10913     1  0.0000000  1.6024720  3
  10908  10930  10914  10918     1  180.0000771  5.6484000  1
  10908  10930  10914  10918     1  180.0000771  3.5564000  2
  10908  10930  10914  10918     1  0.0000000  0.4184000  3
  10909  10908  10922  10928     1  0.0000000  0.6508444  3
  10909  10908  10930  10914     1  180.0000771  0.4184000  2
  10909  10908  10930  10914     1  0.0000000  1.6024720  3
  10909  10912  10913  10914     1  180.0000771  0.8368000  1
  10909  10912  10913  10914     1  180.0000771  1.0460000  2
  10909  10912  10913  10914     1  0.0000000  0.7531200  3
  10909  10912  10913  10919     1  0.0000000  0.6508444  3
  10912  10909  10908  10922     1  180.0000771  0.8368000  1
  10912  10909  10908  10922     1  180.0000771  1.0460000  2
  10912  10909  10908  10922     1  0.0000000  0.7531200  3
  10912  10909  10908  10930     1  0.0000000  0.6508444  3
  10912  10913  10914  10918     1  0.0000000  0.6508444  3
  10912  10913  10914  10930     1  0.0000000  0.6508444  3
  10913  10912  10909  10921     1  0.0000000  0.6508444  3
  10914  10913  10912  10920     1  0.0000000  0.6508444  3
  10914  10930  10908  10922     1  180.0000771  0.4184000  2
  10914  10930  10908  10922     1  0.0000000  1.6024720  3
  10918  10914  10913  10919     1  0.0000000  4.9162000  2
  10918  10914  10913  10919     1  0.0000000  0.6024960  3
  10919  10913  10912  10920     1  0.0000000  4.9162000  2
  10919  10913  10912  10920     1  0.0000000  0.6024960  3
  10919  10913  10914  10930     1  0.0000000  4.9162000  2
  10919  10913  10914  10930     1  0.0000000  0.6024960  3
  10920  10912  10909  10921     1  0.0000000  4.9162000  2
  10920  10912  10909  10921     1  0.0000000  0.6024960  3
  10921  10909  10908  10922     1  0.0000000  0.6508444  3
  10921  10909  10908  10930     1  0.0000000  4.9162000  2
  10921  10909  10908  10930     1  0.0000000  0.6024960  3
  10928  10922  10908  10930     1  0.0000000  4.9162000  2
  10928  10922  10908  10930     1  0.0000000  0.6024960  3
  10931  10932  10935  10936     1  180.0000771  0.8368000  1
  10931  10932  10935  10936     1  180.0000771  1.0460000  2
  10931  10932  10935  10936     1  0.0000000  0.7531200  3
  10931  10932  10935  10943     1  0.0000000  0.6508444  3
  10931  10953  10937  10941     1  180.0000771  5.6484000  1
  10931  10953  10937  10941     1  180.0000771  3.5564000  2
  10931  10953  10937  10941     1  0.0000000  0.4184000  3
  10931  10953  10937  10936     1  180.0000771  0.4184000  2
  10931  10953  10937  10936     1  0.0000000  1.6024720  3
  10932  10935  10936  10937     1  180.0000771  0.8368000  1
  10932  10935  10936  10937     1  180.0000771  1.0460000  2
  10932  10935  10936  10937     1  0.0000000  0.7531200  3
  10932  10935  10936  10942     1  0.0000000  0.6508444  3
  10932  10931  10945  10951     1  0.0000000  0.6508444  3
  10932  10931  10953  10937     1  180.0000771  0.4184000  2
  10932  10931  10953  10937     1  0.0000000  1.6024720  3
  10935  10936  10937  10941     1  0.0000000  0.6508444  3
  10935  10936  10937  10953     1  0.0000000  0.6508444  3
  10935  10932  10931  10945     1  180.0000771  0.8368000  1
  10935  10932  10931  10945     1  180.0000771  1.0460000  2
  10935  10932  10931  10945     1  0.0000000  0.7531200  3
  10935  10932  10931  10953     1  0.0000000  0.6508444  3
  10936  10935  10932  10944     1  0.0000000  0.6508444  3
  10937  10953  10931  10945     1  180.0000771  0.4184000  2
  10937  10953  10931  10945     1  0.0000000  1.6024720  3
  10937  10936  10935  10943     1  0.0000000  0.6508444  3
  10941  10937  10936  10942     1  0.0000000  4.9162000  2
  10941  10937  10936  10942     1  0.0000000  0.6024960  3
  10942  10936  10937  10953     1  0.0000000  4.9162000  2
  10942  10936  10937  10953     1  0.0000000  0.6024960  3
  10942  10936  10935  10943     1  0.0000000  4.9162000  2
  10942  10936  10935  10943     1  0.0000000  0.6024960  3
  10943  10935  10932  10944     1  0.0000000  4.9162000  2
  10943  10935  10932  10944     1  0.0000000  0.6024960  3
  10944  10932  10931  10945     1  0.0000000  0.6508444  3
  10944  10932  10931  10953     1  0.0000000  4.9162000  2
  10944  10932  10931  10953     1  0.0000000  0.6024960  3
  10951  10945  10931  10953     1  0.0000000  4.9162000  2
  10951  10945  10931  10953     1  0.0000000  0.6024960  3
  10954  10955  10958  10959     1  180.0000771  0.8368000  1
  10954  10955  10958  10959     1  180.0000771  1.0460000  2
  10954  10955  10958  10959     1  0.0000000  0.7531200  3
  10954  10955  10958  10966     1  0.0000000  0.6508444  3
  10954  10976  10960  10959     1  180.0000771  0.4184000  2
  10954  10976  10960  10959     1  0.0000000  1.6024720  3
  10954  10976  10960  10964     1  180.0000771  5.6484000  1
  10954  10976  10960  10964     1  180.0000771  3.5564000  2
  10954  10976  10960  10964     1  0.0000000  0.4184000  3
  10955  10954  10968  10974     1  0.0000000  0.6508444  3
  10955  10954  10976  10960     1  180.0000771  0.4184000  2
  10955  10954  10976  10960     1  0.0000000  1.6024720  3
  10955  10958  10959  10960     1  180.0000771  0.8368000  1
  10955  10958  10959  10960     1  180.0000771  1.0460000  2
  10955  10958  10959  10960     1  0.0000000  0.7531200  3
  10955  10958  10959  10965     1  0.0000000  0.6508444  3
  10958  10955  10954  10968     1  180.0000771  0.8368000  1
  10958  10955  10954  10968     1  180.0000771  1.0460000  2
  10958  10955  10954  10968     1  0.0000000  0.7531200  3
  10958  10955  10954  10976     1  0.0000000  0.6508444  3
  10958  10959  10960  10964     1  0.0000000  0.6508444  3
  10958  10959  10960  10976     1  0.0000000  0.6508444  3
  10959  10958  10955  10967     1  0.0000000  0.6508444  3
  10960  10959  10958  10966     1  0.0000000  0.6508444  3
  10960  10976  10954  10968     1  180.0000771  0.4184000  2
  10960  10976  10954  10968     1  0.0000000  1.6024720  3
  10964  10960  10959  10965     1  0.0000000  4.9162000  2
  10964  10960  10959  10965     1  0.0000000  0.6024960  3
  10965  10959  10958  10966     1  0.0000000  4.9162000  2
  10965  10959  10958  10966     1  0.0000000  0.6024960  3
  10965  10959  10960  10976     1  0.0000000  4.9162000  2
  10965  10959  10960  10976     1  0.0000000  0.6024960  3
  10966  10958  10955  10967     1  0.0000000  4.9162000  2
  10966  10958  10955  10967     1  0.0000000  0.6024960  3
  10967  10955  10954  10968     1  0.0000000  0.6508444  3
  10967  10955  10954  10976     1  0.0000000  4.9162000  2
  10967  10955  10954  10976     1  0.0000000  0.6024960  3
  10974  10968  10954  10976     1  0.0000000  4.9162000  2
  10974  10968  10954  10976     1  0.0000000  0.6024960  3
  10977  10978  10981  10982     1  180.0000771  0.8368000  1
  10977  10978  10981  10982     1  180.0000771  1.0460000  2
  10977  10978  10981  10982     1  0.0000000  0.7531200  3
  10977  10978  10981  10989     1  0.0000000  0.6508444  3
  10977  10999  10983  10987     1  180.0000771  5.6484000  1
  10977  10999  10983  10987     1  180.0000771  3.5564000  2
  10977  10999  10983  10987     1  0.0000000  0.4184000  3
  10977  10999  10983  10982     1  180.0000771  0.4184000  2
  10977  10999  10983  10982     1  0.0000000  1.6024720  3
  10978  10981  10982  10983     1  180.0000771  0.8368000  1
  10978  10981  10982  10983     1  180.0000771  1.0460000  2
  10978  10981  10982  10983     1  0.0000000  0.7531200  3
  10978  10981  10982  10988     1  0.0000000  0.6508444  3
  10978  10977  10991  10997     1  0.0000000  0.6508444  3
  10978  10977  10999  10983     1  180.0000771  0.4184000  2
  10978  10977  10999  10983     1  0.0000000  1.6024720  3
  10981  10982  10983  10987     1  0.0000000  0.6508444  3
  10981  10982  10983  10999     1  0.0000000  0.6508444  3
  10981  10978  10977  10991     1  180.0000771  0.8368000  1
  10981  10978  10977  10991     1  180.0000771  1.0460000  2
  10981  10978  10977  10991     1  0.0000000  0.7531200  3
  10981  10978  10977  10999     1  0.0000000  0.6508444  3
  10982  10981  10978  10990     1  0.0000000  0.6508444  3
  10983  10999  10977  10991     1  180.0000771  0.4184000  2
  10983  10999  10977  10991     1  0.0000000  1.6024720  3
  10983  10982  10981  10989     1  0.0000000  0.6508444  3
  10987  10983  10982  10988     1  0.0000000  4.9162000  2
  10987  10983  10982  10988     1  0.0000000  0.6024960  3
  10988  10982  10983  10999     1  0.0000000  4.9162000  2
  10988  10982  10983  10999     1  0.0000000  0.6024960  3
  10988  10982  10981  10989     1  0.0000000  4.9162000  2
  10988  10982  10981  10989     1  0.0000000  0.6024960  3
  10989  10981  10978  10990     1  0.0000000  4.9162000  2
  10989  10981  10978  10990     1  0.0000000  0.6024960  3
  10990  10978  10977  10991     1  0.0000000  0.6508444  3
  10990  10978  10977  10999     1  0.0000000  4.9162000  2
  10990  10978  10977  10999     1  0.0000000  0.6024960  3
  10997  10991  10977  10999     1  0.0000000  4.9162000  2
  10997  10991  10977  10999     1  0.0000000  0.6024960  3
  11000  11001  11004  11005     1  180.0000771  0.8368000  1
  11000  11001  11004  11005     1  180.0000771  1.0460000  2
  11000  11001  11004  11005     1  0.0000000  0.7531200  3
  11000  11001  11004  11012     1  0.0000000  0.6508444  3
  11000  11022  11006  11005     1  180.0000771  0.4184000  2
  11000  11022  11006  11005     1  0.0000000  1.6024720  3
  11000  11022  11006  11010     1  180.0000771  5.6484000  1
  11000  11022  11006  11010     1  180.0000771  3.5564000  2
  11000  11022  11006  11010     1  0.0000000  0.4184000  3
  11001  11000  11014  11020     1  0.0000000  0.6508444  3
  11001  11000  11022  11006     1  180.0000771  0.4184000  2
  11001  11000  11022  11006     1  0.0000000  1.6024720  3
  11001  11004  11005  11006     1  180.0000771  0.8368000  1
  11001  11004  11005  11006     1  180.0000771  1.0460000  2
  11001  11004  11005  11006     1  0.0000000  0.7531200  3
  11001  11004  11005  11011     1  0.0000000  0.6508444  3
  11004  11001  11000  11014     1  180.0000771  0.8368000  1
  11004  11001  11000  11014     1  180.0000771  1.0460000  2
  11004  11001  11000  11014     1  0.0000000  0.7531200  3
  11004  11001  11000  11022     1  0.0000000  0.6508444  3
  11004  11005  11006  11010     1  0.0000000  0.6508444  3
  11004  11005  11006  11022     1  0.0000000  0.6508444  3
  11005  11004  11001  11013     1  0.0000000  0.6508444  3
  11006  11005  11004  11012     1  0.0000000  0.6508444  3
  11006  11022  11000  11014     1  180.0000771  0.4184000  2
  11006  11022  11000  11014     1  0.0000000  1.6024720  3
  11010  11006  11005  11011     1  0.0000000  4.9162000  2
  11010  11006  11005  11011     1  0.0000000  0.6024960  3
  11011  11005  11004  11012     1  0.0000000  4.9162000  2
  11011  11005  11004  11012     1  0.0000000  0.6024960  3
  11011  11005  11006  11022     1  0.0000000  4.9162000  2
  11011  11005  11006  11022     1  0.0000000  0.6024960  3
  11012  11004  11001  11013     1  0.0000000  4.9162000  2
  11012  11004  11001  11013     1  0.0000000  0.6024960  3
  11013  11001  11000  11014     1  0.0000000  0.6508444  3
  11013  11001  11000  11022     1  0.0000000  4.9162000  2
  11013  11001  11000  11022     1  0.0000000  0.6024960  3
  11020  11014  11000  11022     1  0.0000000  4.9162000  2
  11020  11014  11000  11022     1  0.0000000  0.6024960  3
  11023  11024  11027  11028     1  180.0000771  0.8368000  1
  11023  11024  11027  11028     1  180.0000771  1.0460000  2
  11023  11024  11027  11028     1  0.0000000  0.7531200  3
  11023  11024  11027  11035     1  0.0000000  0.6508444  3
  11023  11045  11029  11033     1  180.0000771  5.6484000  1
  11023  11045  11029  11033     1  180.0000771  3.5564000  2
  11023  11045  11029  11033     1  0.0000000  0.4184000  3
  11023  11045  11029  11028     1  180.0000771  0.4184000  2
  11023  11045  11029  11028     1  0.0000000  1.6024720  3
  11024  11027  11028  11029     1  180.0000771  0.8368000  1
  11024  11027  11028  11029     1  180.0000771  1.0460000  2
  11024  11027  11028  11029     1  0.0000000  0.7531200  3
  11024  11027  11028  11034     1  0.0000000  0.6508444  3
  11024  11023  11037  11043     1  0.0000000  0.6508444  3
  11024  11023  11045  11029     1  180.0000771  0.4184000  2
  11024  11023  11045  11029     1  0.0000000  1.6024720  3
  11027  11028  11029  11033     1  0.0000000  0.6508444  3
  11027  11028  11029  11045     1  0.0000000  0.6508444  3
  11027  11024  11023  11037     1  180.0000771  0.8368000  1
  11027  11024  11023  11037     1  180.0000771  1.0460000  2
  11027  11024  11023  11037     1  0.0000000  0.7531200  3
  11027  11024  11023  11045     1  0.0000000  0.6508444  3
  11028  11027  11024  11036     1  0.0000000  0.6508444  3
  11029  11045  11023  11037     1  180.0000771  0.4184000  2
  11029  11045  11023  11037     1  0.0000000  1.6024720  3
  11029  11028  11027  11035     1  0.0000000  0.6508444  3
  11033  11029  11028  11034     1  0.0000000  4.9162000  2
  11033  11029  11028  11034     1  0.0000000  0.6024960  3
  11034  11028  11029  11045     1  0.0000000  4.9162000  2
  11034  11028  11029  11045     1  0.0000000  0.6024960  3
  11034  11028  11027  11035     1  0.0000000  4.9162000  2
  11034  11028  11027  11035     1  0.0000000  0.6024960  3
  11035  11027  11024  11036     1  0.0000000  4.9162000  2
  11035  11027  11024  11036     1  0.0000000  0.6024960  3
  11036  11024  11023  11037     1  0.0000000  0.6508444  3
  11036  11024  11023  11045     1  0.0000000  4.9162000  2
  11036  11024  11023  11045     1  0.0000000  0.6024960  3
  11043  11037  11023  11045     1  0.0000000  4.9162000  2
  11043  11037  11023  11045     1  0.0000000  0.6024960  3
  11046  11047  11050  11051     1  180.0000771  0.8368000  1
  11046  11047  11050  11051     1  180.0000771  1.0460000  2
  11046  11047  11050  11051     1  0.0000000  0.7531200  3
  11046  11047  11050  11058     1  0.0000000  0.6508444  3
  11046  11068  11052  11051     1  180.0000771  0.4184000  2
  11046  11068  11052  11051     1  0.0000000  1.6024720  3
  11046  11068  11052  11056     1  180.0000771  5.6484000  1
  11046  11068  11052  11056     1  180.0000771  3.5564000  2
  11046  11068  11052  11056     1  0.0000000  0.4184000  3
  11047  11046  11060  11066     1  0.0000000  0.6508444  3
  11047  11046  11068  11052     1  180.0000771  0.4184000  2
  11047  11046  11068  11052     1  0.0000000  1.6024720  3
  11047  11050  11051  11052     1  180.0000771  0.8368000  1
  11047  11050  11051  11052     1  180.0000771  1.0460000  2
  11047  11050  11051  11052     1  0.0000000  0.7531200  3
  11047  11050  11051  11057     1  0.0000000  0.6508444  3
  11050  11047  11046  11060     1  180.0000771  0.8368000  1
  11050  11047  11046  11060     1  180.0000771  1.0460000  2
  11050  11047  11046  11060     1  0.0000000  0.7531200  3
  11050  11047  11046  11068     1  0.0000000  0.6508444  3
  11050  11051  11052  11056     1  0.0000000  0.6508444  3
  11050  11051  11052  11068     1  0.0000000  0.6508444  3
  11051  11050  11047  11059     1  0.0000000  0.6508444  3
  11052  11051  11050  11058     1  0.0000000  0.6508444  3
  11052  11068  11046  11060     1  180.0000771  0.4184000  2
  11052  11068  11046  11060     1  0.0000000  1.6024720  3
  11056  11052  11051  11057     1  0.0000000  4.9162000  2
  11056  11052  11051  11057     1  0.0000000  0.6024960  3
  11057  11051  11050  11058     1  0.0000000  4.9162000  2
  11057  11051  11050  11058     1  0.0000000  0.6024960  3
  11057  11051  11052  11068     1  0.0000000  4.9162000  2
  11057  11051  11052  11068     1  0.0000000  0.6024960  3
  11058  11050  11047  11059     1  0.0000000  4.9162000  2
  11058  11050  11047  11059     1  0.0000000  0.6024960  3
  11059  11047  11046  11060     1  0.0000000  0.6508444  3
  11059  11047  11046  11068     1  0.0000000  4.9162000  2
  11059  11047  11046  11068     1  0.0000000  0.6024960  3
  11066  11060  11046  11068     1  0.0000000  4.9162000  2
  11066  11060  11046  11068     1  0.0000000  0.6024960  3
  11069  11070  11073  11074     1  180.0000771  0.8368000  1
  11069  11070  11073  11074     1  180.0000771  1.0460000  2
  11069  11070  11073  11074     1  0.0000000  0.7531200  3
  11069  11070  11073  11081     1  0.0000000  0.6508444  3
  11069  11091  11075  11079     1  180.0000771  5.6484000  1
  11069  11091  11075  11079     1  180.0000771  3.5564000  2
  11069  11091  11075  11079     1  0.0000000  0.4184000  3
  11069  11091  11075  11074     1  180.0000771  0.4184000  2
  11069  11091  11075  11074     1  0.0000000  1.6024720  3
  11070  11073  11074  11075     1  180.0000771  0.8368000  1
  11070  11073  11074  11075     1  180.0000771  1.0460000  2
  11070  11073  11074  11075     1  0.0000000  0.7531200  3
  11070  11073  11074  11080     1  0.0000000  0.6508444  3
  11070  11069  11083  11089     1  0.0000000  0.6508444  3
  11070  11069  11091  11075     1  180.0000771  0.4184000  2
  11070  11069  11091  11075     1  0.0000000  1.6024720  3
  11073  11074  11075  11079     1  0.0000000  0.6508444  3
  11073  11074  11075  11091     1  0.0000000  0.6508444  3
  11073  11070  11069  11083     1  180.0000771  0.8368000  1
  11073  11070  11069  11083     1  180.0000771  1.0460000  2
  11073  11070  11069  11083     1  0.0000000  0.7531200  3
  11073  11070  11069  11091     1  0.0000000  0.6508444  3
  11074  11073  11070  11082     1  0.0000000  0.6508444  3
  11075  11091  11069  11083     1  180.0000771  0.4184000  2
  11075  11091  11069  11083     1  0.0000000  1.6024720  3
  11075  11074  11073  11081     1  0.0000000  0.6508444  3
  11079  11075  11074  11080     1  0.0000000  4.9162000  2
  11079  11075  11074  11080     1  0.0000000  0.6024960  3
  11080  11074  11075  11091     1  0.0000000  4.9162000  2
  11080  11074  11075  11091     1  0.0000000  0.6024960  3
  11080  11074  11073  11081     1  0.0000000  4.9162000  2
  11080  11074  11073  11081     1  0.0000000  0.6024960  3
  11081  11073  11070  11082     1  0.0000000  4.9162000  2
  11081  11073  11070  11082     1  0.0000000  0.6024960  3
  11082  11070  11069  11083     1  0.0000000  0.6508444  3
  11082  11070  11069  11091     1  0.0000000  4.9162000  2
  11082  11070  11069  11091     1  0.0000000  0.6024960  3
  11089  11083  11069  11091     1  0.0000000  4.9162000  2
  11089  11083  11069  11091     1  0.0000000  0.6024960  3
  11092  11093  11096  11097     1  180.0000771  0.8368000  1
  11092  11093  11096  11097     1  180.0000771  1.0460000  2
  11092  11093  11096  11097     1  0.0000000  0.7531200  3
  11092  11093  11096  11104     1  0.0000000  0.6508444  3
  11092  11114  11098  11097     1  180.0000771  0.4184000  2
  11092  11114  11098  11097     1  0.0000000  1.6024720  3
  11092  11114  11098  11102     1  180.0000771  5.6484000  1
  11092  11114  11098  11102     1  180.0000771  3.5564000  2
  11092  11114  11098  11102     1  0.0000000  0.4184000  3
  11093  11092  11106  11112     1  0.0000000  0.6508444  3
  11093  11092  11114  11098     1  180.0000771  0.4184000  2
  11093  11092  11114  11098     1  0.0000000  1.6024720  3
  11093  11096  11097  11098     1  180.0000771  0.8368000  1
  11093  11096  11097  11098     1  180.0000771  1.0460000  2
  11093  11096  11097  11098     1  0.0000000  0.7531200  3
  11093  11096  11097  11103     1  0.0000000  0.6508444  3
  11096  11093  11092  11106     1  180.0000771  0.8368000  1
  11096  11093  11092  11106     1  180.0000771  1.0460000  2
  11096  11093  11092  11106     1  0.0000000  0.7531200  3
  11096  11093  11092  11114     1  0.0000000  0.6508444  3
  11096  11097  11098  11102     1  0.0000000  0.6508444  3
  11096  11097  11098  11114     1  0.0000000  0.6508444  3
  11097  11096  11093  11105     1  0.0000000  0.6508444  3
  11098  11097  11096  11104     1  0.0000000  0.6508444  3
  11098  11114  11092  11106     1  180.0000771  0.4184000  2
  11098  11114  11092  11106     1  0.0000000  1.6024720  3
  11102  11098  11097  11103     1  0.0000000  4.9162000  2
  11102  11098  11097  11103     1  0.0000000  0.6024960  3
  11103  11097  11096  11104     1  0.0000000  4.9162000  2
  11103  11097  11096  11104     1  0.0000000  0.6024960  3
  11103  11097  11098  11114     1  0.0000000  4.9162000  2
  11103  11097  11098  11114     1  0.0000000  0.6024960  3
  11104  11096  11093  11105     1  0.0000000  4.9162000  2
  11104  11096  11093  11105     1  0.0000000  0.6024960  3
  11105  11093  11092  11106     1  0.0000000  0.6508444  3
  11105  11093  11092  11114     1  0.0000000  4.9162000  2
  11105  11093  11092  11114     1  0.0000000  0.6024960  3
  11112  11106  11092  11114     1  0.0000000  4.9162000  2
  11112  11106  11092  11114     1  0.0000000  0.6024960  3
  11115  11116  11119  11120     1  180.0000771  0.8368000  1
  11115  11116  11119  11120     1  180.0000771  1.0460000  2
  11115  11116  11119  11120     1  0.0000000  0.7531200  3
  11115  11116  11119  11127     1  0.0000000  0.6508444  3
  11115  11137  11121  11125     1  180.0000771  5.6484000  1
  11115  11137  11121  11125     1  180.0000771  3.5564000  2
  11115  11137  11121  11125     1  0.0000000  0.4184000  3
  11115  11137  11121  11120     1  180.0000771  0.4184000  2
  11115  11137  11121  11120     1  0.0000000  1.6024720  3
  11116  11119  11120  11121     1  180.0000771  0.8368000  1
  11116  11119  11120  11121     1  180.0000771  1.0460000  2
  11116  11119  11120  11121     1  0.0000000  0.7531200  3
  11116  11119  11120  11126     1  0.0000000  0.6508444  3
  11116  11115  11129  11135     1  0.0000000  0.6508444  3
  11116  11115  11137  11121     1  180.0000771  0.4184000  2
  11116  11115  11137  11121     1  0.0000000  1.6024720  3
  11119  11120  11121  11125     1  0.0000000  0.6508444  3
  11119  11120  11121  11137     1  0.0000000  0.6508444  3
  11119  11116  11115  11129     1  180.0000771  0.8368000  1
  11119  11116  11115  11129     1  180.0000771  1.0460000  2
  11119  11116  11115  11129     1  0.0000000  0.7531200  3
  11119  11116  11115  11137     1  0.0000000  0.6508444  3
  11120  11119  11116  11128     1  0.0000000  0.6508444  3
  11121  11137  11115  11129     1  180.0000771  0.4184000  2
  11121  11137  11115  11129     1  0.0000000  1.6024720  3
  11121  11120  11119  11127     1  0.0000000  0.6508444  3
  11125  11121  11120  11126     1  0.0000000  4.9162000  2
  11125  11121  11120  11126     1  0.0000000  0.6024960  3
  11126  11120  11121  11137     1  0.0000000  4.9162000  2
  11126  11120  11121  11137     1  0.0000000  0.6024960  3
  11126  11120  11119  11127     1  0.0000000  4.9162000  2
  11126  11120  11119  11127     1  0.0000000  0.6024960  3
  11127  11119  11116  11128     1  0.0000000  4.9162000  2
  11127  11119  11116  11128     1  0.0000000  0.6024960  3
  11128  11116  11115  11129     1  0.0000000  0.6508444  3
  11128  11116  11115  11137     1  0.0000000  4.9162000  2
  11128  11116  11115  11137     1  0.0000000  0.6024960  3
  11135  11129  11115  11137     1  0.0000000  4.9162000  2
  11135  11129  11115  11137     1  0.0000000  0.6024960  3
  11138  11139  11142  11143     1  180.0000771  0.8368000  1
  11138  11139  11142  11143     1  180.0000771  1.0460000  2
  11138  11139  11142  11143     1  0.0000000  0.7531200  3
  11138  11139  11142  11150     1  0.0000000  0.6508444  3
  11138  11160  11144  11143     1  180.0000771  0.4184000  2
  11138  11160  11144  11143     1  0.0000000  1.6024720  3
  11138  11160  11144  11148     1  180.0000771  5.6484000  1
  11138  11160  11144  11148     1  180.0000771  3.5564000  2
  11138  11160  11144  11148     1  0.0000000  0.4184000  3
  11139  11138  11152  11158     1  0.0000000  0.6508444  3
  11139  11138  11160  11144     1  180.0000771  0.4184000  2
  11139  11138  11160  11144     1  0.0000000  1.6024720  3
  11139  11142  11143  11144     1  180.0000771  0.8368000  1
  11139  11142  11143  11144     1  180.0000771  1.0460000  2
  11139  11142  11143  11144     1  0.0000000  0.7531200  3
  11139  11142  11143  11149     1  0.0000000  0.6508444  3
  11142  11139  11138  11152     1  180.0000771  0.8368000  1
  11142  11139  11138  11152     1  180.0000771  1.0460000  2
  11142  11139  11138  11152     1  0.0000000  0.7531200  3
  11142  11139  11138  11160     1  0.0000000  0.6508444  3
  11142  11143  11144  11148     1  0.0000000  0.6508444  3
  11142  11143  11144  11160     1  0.0000000  0.6508444  3
  11143  11142  11139  11151     1  0.0000000  0.6508444  3
  11144  11143  11142  11150     1  0.0000000  0.6508444  3
  11144  11160  11138  11152     1  180.0000771  0.4184000  2
  11144  11160  11138  11152     1  0.0000000  1.6024720  3
  11148  11144  11143  11149     1  0.0000000  4.9162000  2
  11148  11144  11143  11149     1  0.0000000  0.6024960  3
  11149  11143  11142  11150     1  0.0000000  4.9162000  2
  11149  11143  11142  11150     1  0.0000000  0.6024960  3
  11149  11143  11144  11160     1  0.0000000  4.9162000  2
  11149  11143  11144  11160     1  0.0000000  0.6024960  3
  11150  11142  11139  11151     1  0.0000000  4.9162000  2
  11150  11142  11139  11151     1  0.0000000  0.6024960  3
  11151  11139  11138  11152     1  0.0000000  0.6508444  3
  11151  11139  11138  11160     1  0.0000000  4.9162000  2
  11151  11139  11138  11160     1  0.0000000  0.6024960  3
  11158  11152  11138  11160     1  0.0000000  4.9162000  2
  11158  11152  11138  11160     1  0.0000000  0.6024960  3
  11161  11162  11165  11166     1  180.0000771  0.8368000  1
  11161  11162  11165  11166     1  180.0000771  1.0460000  2
  11161  11162  11165  11166     1  0.0000000  0.7531200  3
  11161  11162  11165  11173     1  0.0000000  0.6508444  3
  11161  11183  11167  11171     1  180.0000771  5.6484000  1
  11161  11183  11167  11171     1  180.0000771  3.5564000  2
  11161  11183  11167  11171     1  0.0000000  0.4184000  3
  11161  11183  11167  11166     1  180.0000771  0.4184000  2
  11161  11183  11167  11166     1  0.0000000  1.6024720  3
  11162  11165  11166  11167     1  180.0000771  0.8368000  1
  11162  11165  11166  11167     1  180.0000771  1.0460000  2
  11162  11165  11166  11167     1  0.0000000  0.7531200  3
  11162  11165  11166  11172     1  0.0000000  0.6508444  3
  11162  11161  11175  11181     1  0.0000000  0.6508444  3
  11162  11161  11183  11167     1  180.0000771  0.4184000  2
  11162  11161  11183  11167     1  0.0000000  1.6024720  3
  11165  11166  11167  11171     1  0.0000000  0.6508444  3
  11165  11166  11167  11183     1  0.0000000  0.6508444  3
  11165  11162  11161  11175     1  180.0000771  0.8368000  1
  11165  11162  11161  11175     1  180.0000771  1.0460000  2
  11165  11162  11161  11175     1  0.0000000  0.7531200  3
  11165  11162  11161  11183     1  0.0000000  0.6508444  3
  11166  11165  11162  11174     1  0.0000000  0.6508444  3
  11167  11183  11161  11175     1  180.0000771  0.4184000  2
  11167  11183  11161  11175     1  0.0000000  1.6024720  3
  11167  11166  11165  11173     1  0.0000000  0.6508444  3
  11171  11167  11166  11172     1  0.0000000  4.9162000  2
  11171  11167  11166  11172     1  0.0000000  0.6024960  3
  11172  11166  11167  11183     1  0.0000000  4.9162000  2
  11172  11166  11167  11183     1  0.0000000  0.6024960  3
  11172  11166  11165  11173     1  0.0000000  4.9162000  2
  11172  11166  11165  11173     1  0.0000000  0.6024960  3
  11173  11165  11162  11174     1  0.0000000  4.9162000  2
  11173  11165  11162  11174     1  0.0000000  0.6024960  3
  11174  11162  11161  11175     1  0.0000000  0.6508444  3
  11174  11162  11161  11183     1  0.0000000  4.9162000  2
  11174  11162  11161  11183     1  0.0000000  0.6024960  3
  11181  11175  11161  11183     1  0.0000000  4.9162000  2
  11181  11175  11161  11183     1  0.0000000  0.6024960  3
  11184  11185  11188  11189     1  180.0000771  0.8368000  1
  11184  11185  11188  11189     1  180.0000771  1.0460000  2
  11184  11185  11188  11189     1  0.0000000  0.7531200  3
  11184  11185  11188  11196     1  0.0000000  0.6508444  3
  11184  11206  11190  11189     1  180.0000771  0.4184000  2
  11184  11206  11190  11189     1  0.0000000  1.6024720  3
  11184  11206  11190  11194     1  180.0000771  5.6484000  1
  11184  11206  11190  11194     1  180.0000771  3.5564000  2
  11184  11206  11190  11194     1  0.0000000  0.4184000  3
  11185  11184  11198  11204     1  0.0000000  0.6508444  3
  11185  11184  11206  11190     1  180.0000771  0.4184000  2
  11185  11184  11206  11190     1  0.0000000  1.6024720  3
  11185  11188  11189  11190     1  180.0000771  0.8368000  1
  11185  11188  11189  11190     1  180.0000771  1.0460000  2
  11185  11188  11189  11190     1  0.0000000  0.7531200  3
  11185  11188  11189  11195     1  0.0000000  0.6508444  3
  11188  11185  11184  11198     1  180.0000771  0.8368000  1
  11188  11185  11184  11198     1  180.0000771  1.0460000  2
  11188  11185  11184  11198     1  0.0000000  0.7531200  3
  11188  11185  11184  11206     1  0.0000000  0.6508444  3
  11188  11189  11190  11194     1  0.0000000  0.6508444  3
  11188  11189  11190  11206     1  0.0000000  0.6508444  3
  11189  11188  11185  11197     1  0.0000000  0.6508444  3
  11190  11189  11188  11196     1  0.0000000  0.6508444  3
  11190  11206  11184  11198     1  180.0000771  0.4184000  2
  11190  11206  11184  11198     1  0.0000000  1.6024720  3
  11194  11190  11189  11195     1  0.0000000  4.9162000  2
  11194  11190  11189  11195     1  0.0000000  0.6024960  3
  11195  11189  11188  11196     1  0.0000000  4.9162000  2
  11195  11189  11188  11196     1  0.0000000  0.6024960  3
  11195  11189  11190  11206     1  0.0000000  4.9162000  2
  11195  11189  11190  11206     1  0.0000000  0.6024960  3
  11196  11188  11185  11197     1  0.0000000  4.9162000  2
  11196  11188  11185  11197     1  0.0000000  0.6024960  3
  11197  11185  11184  11198     1  0.0000000  0.6508444  3
  11197  11185  11184  11206     1  0.0000000  4.9162000  2
  11197  11185  11184  11206     1  0.0000000  0.6024960  3
  11204  11198  11184  11206     1  0.0000000  4.9162000  2
  11204  11198  11184  11206     1  0.0000000  0.6024960  3
  11207  11208  11211  11212     1  180.0000771  0.8368000  1
  11207  11208  11211  11212     1  180.0000771  1.0460000  2
  11207  11208  11211  11212     1  0.0000000  0.7531200  3
  11207  11208  11211  11219     1  0.0000000  0.6508444  3
  11207  11229  11213  11217     1  180.0000771  5.6484000  1
  11207  11229  11213  11217     1  180.0000771  3.5564000  2
  11207  11229  11213  11217     1  0.0000000  0.4184000  3
  11207  11229  11213  11212     1  180.0000771  0.4184000  2
  11207  11229  11213  11212     1  0.0000000  1.6024720  3
  11208  11211  11212  11213     1  180.0000771  0.8368000  1
  11208  11211  11212  11213     1  180.0000771  1.0460000  2
  11208  11211  11212  11213     1  0.0000000  0.7531200  3
  11208  11211  11212  11218     1  0.0000000  0.6508444  3
  11208  11207  11221  11227     1  0.0000000  0.6508444  3
  11208  11207  11229  11213     1  180.0000771  0.4184000  2
  11208  11207  11229  11213     1  0.0000000  1.6024720  3
  11211  11212  11213  11217     1  0.0000000  0.6508444  3
  11211  11212  11213  11229     1  0.0000000  0.6508444  3
  11211  11208  11207  11221     1  180.0000771  0.8368000  1
  11211  11208  11207  11221     1  180.0000771  1.0460000  2
  11211  11208  11207  11221     1  0.0000000  0.7531200  3
  11211  11208  11207  11229     1  0.0000000  0.6508444  3
  11212  11211  11208  11220     1  0.0000000  0.6508444  3
  11213  11229  11207  11221     1  180.0000771  0.4184000  2
  11213  11229  11207  11221     1  0.0000000  1.6024720  3
  11213  11212  11211  11219     1  0.0000000  0.6508444  3
  11217  11213  11212  11218     1  0.0000000  4.9162000  2
  11217  11213  11212  11218     1  0.0000000  0.6024960  3
  11218  11212  11213  11229     1  0.0000000  4.9162000  2
  11218  11212  11213  11229     1  0.0000000  0.6024960  3
  11218  11212  11211  11219     1  0.0000000  4.9162000  2
  11218  11212  11211  11219     1  0.0000000  0.6024960  3
  11219  11211  11208  11220     1  0.0000000  4.9162000  2
  11219  11211  11208  11220     1  0.0000000  0.6024960  3
  11220  11208  11207  11221     1  0.0000000  0.6508444  3
  11220  11208  11207  11229     1  0.0000000  4.9162000  2
  11220  11208  11207  11229     1  0.0000000  0.6024960  3
  11227  11221  11207  11229     1  0.0000000  4.9162000  2
  11227  11221  11207  11229     1  0.0000000  0.6024960  3
  11230  11231  11234  11235     1  180.0000771  0.8368000  1
  11230  11231  11234  11235     1  180.0000771  1.0460000  2
  11230  11231  11234  11235     1  0.0000000  0.7531200  3
  11230  11231  11234  11242     1  0.0000000  0.6508444  3
  11230  11252  11236  11235     1  180.0000771  0.4184000  2
  11230  11252  11236  11235     1  0.0000000  1.6024720  3
  11230  11252  11236  11240     1  180.0000771  5.6484000  1
  11230  11252  11236  11240     1  180.0000771  3.5564000  2
  11230  11252  11236  11240     1  0.0000000  0.4184000  3
  11231  11230  11244  11250     1  0.0000000  0.6508444  3
  11231  11230  11252  11236     1  180.0000771  0.4184000  2
  11231  11230  11252  11236     1  0.0000000  1.6024720  3
  11231  11234  11235  11236     1  180.0000771  0.8368000  1
  11231  11234  11235  11236     1  180.0000771  1.0460000  2
  11231  11234  11235  11236     1  0.0000000  0.7531200  3
  11231  11234  11235  11241     1  0.0000000  0.6508444  3
  11234  11231  11230  11244     1  180.0000771  0.8368000  1
  11234  11231  11230  11244     1  180.0000771  1.0460000  2
  11234  11231  11230  11244     1  0.0000000  0.7531200  3
  11234  11231  11230  11252     1  0.0000000  0.6508444  3
  11234  11235  11236  11240     1  0.0000000  0.6508444  3
  11234  11235  11236  11252     1  0.0000000  0.6508444  3
  11235  11234  11231  11243     1  0.0000000  0.6508444  3
  11236  11235  11234  11242     1  0.0000000  0.6508444  3
  11236  11252  11230  11244     1  180.0000771  0.4184000  2
  11236  11252  11230  11244     1  0.0000000  1.6024720  3
  11240  11236  11235  11241     1  0.0000000  4.9162000  2
  11240  11236  11235  11241     1  0.0000000  0.6024960  3
  11241  11235  11234  11242     1  0.0000000  4.9162000  2
  11241  11235  11234  11242     1  0.0000000  0.6024960  3
  11241  11235  11236  11252     1  0.0000000  4.9162000  2
  11241  11235  11236  11252     1  0.0000000  0.6024960  3
  11242  11234  11231  11243     1  0.0000000  4.9162000  2
  11242  11234  11231  11243     1  0.0000000  0.6024960  3
  11243  11231  11230  11244     1  0.0000000  0.6508444  3
  11243  11231  11230  11252     1  0.0000000  4.9162000  2
  11243  11231  11230  11252     1  0.0000000  0.6024960  3
  11250  11244  11230  11252     1  0.0000000  4.9162000  2
  11250  11244  11230  11252     1  0.0000000  0.6024960  3
  11253  11254  11257  11258     1  180.0000771  0.8368000  1
  11253  11254  11257  11258     1  180.0000771  1.0460000  2
  11253  11254  11257  11258     1  0.0000000  0.7531200  3
  11253  11254  11257  11265     1  0.0000000  0.6508444  3
  11253  11275  11259  11263     1  180.0000771  5.6484000  1
  11253  11275  11259  11263     1  180.0000771  3.5564000  2
  11253  11275  11259  11263     1  0.0000000  0.4184000  3
  11253  11275  11259  11258     1  180.0000771  0.4184000  2
  11253  11275  11259  11258     1  0.0000000  1.6024720  3
  11254  11257  11258  11259     1  180.0000771  0.8368000  1
  11254  11257  11258  11259     1  180.0000771  1.0460000  2
  11254  11257  11258  11259     1  0.0000000  0.7531200  3
  11254  11257  11258  11264     1  0.0000000  0.6508444  3
  11254  11253  11267  11273     1  0.0000000  0.6508444  3
  11254  11253  11275  11259     1  180.0000771  0.4184000  2
  11254  11253  11275  11259     1  0.0000000  1.6024720  3
  11257  11258  11259  11263     1  0.0000000  0.6508444  3
  11257  11258  11259  11275     1  0.0000000  0.6508444  3
  11257  11254  11253  11267     1  180.0000771  0.8368000  1
  11257  11254  11253  11267     1  180.0000771  1.0460000  2
  11257  11254  11253  11267     1  0.0000000  0.7531200  3
  11257  11254  11253  11275     1  0.0000000  0.6508444  3
  11258  11257  11254  11266     1  0.0000000  0.6508444  3
  11259  11275  11253  11267     1  180.0000771  0.4184000  2
  11259  11275  11253  11267     1  0.0000000  1.6024720  3
  11259  11258  11257  11265     1  0.0000000  0.6508444  3
  11263  11259  11258  11264     1  0.0000000  4.9162000  2
  11263  11259  11258  11264     1  0.0000000  0.6024960  3
  11264  11258  11259  11275     1  0.0000000  4.9162000  2
  11264  11258  11259  11275     1  0.0000000  0.6024960  3
  11264  11258  11257  11265     1  0.0000000  4.9162000  2
  11264  11258  11257  11265     1  0.0000000  0.6024960  3
  11265  11257  11254  11266     1  0.0000000  4.9162000  2
  11265  11257  11254  11266     1  0.0000000  0.6024960  3
  11266  11254  11253  11267     1  0.0000000  0.6508444  3
  11266  11254  11253  11275     1  0.0000000  4.9162000  2
  11266  11254  11253  11275     1  0.0000000  0.6024960  3
  11273  11267  11253  11275     1  0.0000000  4.9162000  2
  11273  11267  11253  11275     1  0.0000000  0.6024960  3
  11276  11277  11280  11281     1  180.0000771  0.8368000  1
  11276  11277  11280  11281     1  180.0000771  1.0460000  2
  11276  11277  11280  11281     1  0.0000000  0.7531200  3
  11276  11277  11280  11288     1  0.0000000  0.6508444  3
  11276  11298  11282  11281     1  180.0000771  0.4184000  2
  11276  11298  11282  11281     1  0.0000000  1.6024720  3
  11276  11298  11282  11286     1  180.0000771  5.6484000  1
  11276  11298  11282  11286     1  180.0000771  3.5564000  2
  11276  11298  11282  11286     1  0.0000000  0.4184000  3
  11277  11276  11290  11296     1  0.0000000  0.6508444  3
  11277  11276  11298  11282     1  180.0000771  0.4184000  2
  11277  11276  11298  11282     1  0.0000000  1.6024720  3
  11277  11280  11281  11282     1  180.0000771  0.8368000  1
  11277  11280  11281  11282     1  180.0000771  1.0460000  2
  11277  11280  11281  11282     1  0.0000000  0.7531200  3
  11277  11280  11281  11287     1  0.0000000  0.6508444  3
  11280  11277  11276  11290     1  180.0000771  0.8368000  1
  11280  11277  11276  11290     1  180.0000771  1.0460000  2
  11280  11277  11276  11290     1  0.0000000  0.7531200  3
  11280  11277  11276  11298     1  0.0000000  0.6508444  3
  11280  11281  11282  11286     1  0.0000000  0.6508444  3
  11280  11281  11282  11298     1  0.0000000  0.6508444  3
  11281  11280  11277  11289     1  0.0000000  0.6508444  3
  11282  11281  11280  11288     1  0.0000000  0.6508444  3
  11282  11298  11276  11290     1  180.0000771  0.4184000  2
  11282  11298  11276  11290     1  0.0000000  1.6024720  3
  11286  11282  11281  11287     1  0.0000000  4.9162000  2
  11286  11282  11281  11287     1  0.0000000  0.6024960  3
  11287  11281  11280  11288     1  0.0000000  4.9162000  2
  11287  11281  11280  11288     1  0.0000000  0.6024960  3
  11287  11281  11282  11298     1  0.0000000  4.9162000  2
  11287  11281  11282  11298     1  0.0000000  0.6024960  3
  11288  11280  11277  11289     1  0.0000000  4.9162000  2
  11288  11280  11277  11289     1  0.0000000  0.6024960  3
  11289  11277  11276  11290     1  0.0000000  0.6508444  3
  11289  11277  11276  11298     1  0.0000000  4.9162000  2
  11289  11277  11276  11298     1  0.0000000  0.6024960  3
  11296  11290  11276  11298     1  0.0000000  4.9162000  2
  11296  11290  11276  11298     1  0.0000000  0.6024960  3
  11299  11300  11303  11304     1  180.0000771  0.8368000  1
  11299  11300  11303  11304     1  180.0000771  1.0460000  2
  11299  11300  11303  11304     1  0.0000000  0.7531200  3
  11299  11300  11303  11311     1  0.0000000  0.6508444  3
  11299  11321  11305  11309     1  180.0000771  5.6484000  1
  11299  11321  11305  11309     1  180.0000771  3.5564000  2
  11299  11321  11305  11309     1  0.0000000  0.4184000  3
  11299  11321  11305  11304     1  180.0000771  0.4184000  2
  11299  11321  11305  11304     1  0.0000000  1.6024720  3
  11300  11303  11304  11305     1  180.0000771  0.8368000  1
  11300  11303  11304  11305     1  180.0000771  1.0460000  2
  11300  11303  11304  11305     1  0.0000000  0.7531200  3
  11300  11303  11304  11310     1  0.0000000  0.6508444  3
  11300  11299  11313  11319     1  0.0000000  0.6508444  3
  11300  11299  11321  11305     1  180.0000771  0.4184000  2
  11300  11299  11321  11305     1  0.0000000  1.6024720  3
  11303  11304  11305  11309     1  0.0000000  0.6508444  3
  11303  11304  11305  11321     1  0.0000000  0.6508444  3
  11303  11300  11299  11313     1  180.0000771  0.8368000  1
  11303  11300  11299  11313     1  180.0000771  1.0460000  2
  11303  11300  11299  11313     1  0.0000000  0.7531200  3
  11303  11300  11299  11321     1  0.0000000  0.6508444  3
  11304  11303  11300  11312     1  0.0000000  0.6508444  3
  11305  11321  11299  11313     1  180.0000771  0.4184000  2
  11305  11321  11299  11313     1  0.0000000  1.6024720  3
  11305  11304  11303  11311     1  0.0000000  0.6508444  3
  11309  11305  11304  11310     1  0.0000000  4.9162000  2
  11309  11305  11304  11310     1  0.0000000  0.6024960  3
  11310  11304  11305  11321     1  0.0000000  4.9162000  2
  11310  11304  11305  11321     1  0.0000000  0.6024960  3
  11310  11304  11303  11311     1  0.0000000  4.9162000  2
  11310  11304  11303  11311     1  0.0000000  0.6024960  3
  11311  11303  11300  11312     1  0.0000000  4.9162000  2
  11311  11303  11300  11312     1  0.0000000  0.6024960  3
  11312  11300  11299  11313     1  0.0000000  0.6508444  3
  11312  11300  11299  11321     1  0.0000000  4.9162000  2
  11312  11300  11299  11321     1  0.0000000  0.6024960  3
  11319  11313  11299  11321     1  0.0000000  4.9162000  2
  11319  11313  11299  11321     1  0.0000000  0.6024960  3
  11322  11323  11326  11327     1  180.0000771  0.8368000  1
  11322  11323  11326  11327     1  180.0000771  1.0460000  2
  11322  11323  11326  11327     1  0.0000000  0.7531200  3
  11322  11323  11326  11334     1  0.0000000  0.6508444  3
  11322  11344  11328  11327     1  180.0000771  0.4184000  2
  11322  11344  11328  11327     1  0.0000000  1.6024720  3
  11322  11344  11328  11332     1  180.0000771  5.6484000  1
  11322  11344  11328  11332     1  180.0000771  3.5564000  2
  11322  11344  11328  11332     1  0.0000000  0.4184000  3
  11323  11322  11336  11342     1  0.0000000  0.6508444  3
  11323  11322  11344  11328     1  180.0000771  0.4184000  2
  11323  11322  11344  11328     1  0.0000000  1.6024720  3
  11323  11326  11327  11328     1  180.0000771  0.8368000  1
  11323  11326  11327  11328     1  180.0000771  1.0460000  2
  11323  11326  11327  11328     1  0.0000000  0.7531200  3
  11323  11326  11327  11333     1  0.0000000  0.6508444  3
  11326  11323  11322  11336     1  180.0000771  0.8368000  1
  11326  11323  11322  11336     1  180.0000771  1.0460000  2
  11326  11323  11322  11336     1  0.0000000  0.7531200  3
  11326  11323  11322  11344     1  0.0000000  0.6508444  3
  11326  11327  11328  11332     1  0.0000000  0.6508444  3
  11326  11327  11328  11344     1  0.0000000  0.6508444  3
  11327  11326  11323  11335     1  0.0000000  0.6508444  3
  11328  11327  11326  11334     1  0.0000000  0.6508444  3
  11328  11344  11322  11336     1  180.0000771  0.4184000  2
  11328  11344  11322  11336     1  0.0000000  1.6024720  3
  11332  11328  11327  11333     1  0.0000000  4.9162000  2
  11332  11328  11327  11333     1  0.0000000  0.6024960  3
  11333  11327  11326  11334     1  0.0000000  4.9162000  2
  11333  11327  11326  11334     1  0.0000000  0.6024960  3
  11333  11327  11328  11344     1  0.0000000  4.9162000  2
  11333  11327  11328  11344     1  0.0000000  0.6024960  3
  11334  11326  11323  11335     1  0.0000000  4.9162000  2
  11334  11326  11323  11335     1  0.0000000  0.6024960  3
  11335  11323  11322  11336     1  0.0000000  0.6508444  3
  11335  11323  11322  11344     1  0.0000000  4.9162000  2
  11335  11323  11322  11344     1  0.0000000  0.6024960  3
  11342  11336  11322  11344     1  0.0000000  4.9162000  2
  11342  11336  11322  11344     1  0.0000000  0.6024960  3
  11345  11346  11349  11350     1  180.0000771  0.8368000  1
  11345  11346  11349  11350     1  180.0000771  1.0460000  2
  11345  11346  11349  11350     1  0.0000000  0.7531200  3
  11345  11346  11349  11357     1  0.0000000  0.6508444  3
  11345  11367  11351  11355     1  180.0000771  5.6484000  1
  11345  11367  11351  11355     1  180.0000771  3.5564000  2
  11345  11367  11351  11355     1  0.0000000  0.4184000  3
  11345  11367  11351  11350     1  180.0000771  0.4184000  2
  11345  11367  11351  11350     1  0.0000000  1.6024720  3
  11346  11349  11350  11351     1  180.0000771  0.8368000  1
  11346  11349  11350  11351     1  180.0000771  1.0460000  2
  11346  11349  11350  11351     1  0.0000000  0.7531200  3
  11346  11349  11350  11356     1  0.0000000  0.6508444  3
  11346  11345  11359  11365     1  0.0000000  0.6508444  3
  11346  11345  11367  11351     1  180.0000771  0.4184000  2
  11346  11345  11367  11351     1  0.0000000  1.6024720  3
  11349  11350  11351  11355     1  0.0000000  0.6508444  3
  11349  11350  11351  11367     1  0.0000000  0.6508444  3
  11349  11346  11345  11359     1  180.0000771  0.8368000  1
  11349  11346  11345  11359     1  180.0000771  1.0460000  2
  11349  11346  11345  11359     1  0.0000000  0.7531200  3
  11349  11346  11345  11367     1  0.0000000  0.6508444  3
  11350  11349  11346  11358     1  0.0000000  0.6508444  3
  11351  11367  11345  11359     1  180.0000771  0.4184000  2
  11351  11367  11345  11359     1  0.0000000  1.6024720  3
  11351  11350  11349  11357     1  0.0000000  0.6508444  3
  11355  11351  11350  11356     1  0.0000000  4.9162000  2
  11355  11351  11350  11356     1  0.0000000  0.6024960  3
  11356  11350  11351  11367     1  0.0000000  4.9162000  2
  11356  11350  11351  11367     1  0.0000000  0.6024960  3
  11356  11350  11349  11357     1  0.0000000  4.9162000  2
  11356  11350  11349  11357     1  0.0000000  0.6024960  3
  11357  11349  11346  11358     1  0.0000000  4.9162000  2
  11357  11349  11346  11358     1  0.0000000  0.6024960  3
  11358  11346  11345  11359     1  0.0000000  0.6508444  3
  11358  11346  11345  11367     1  0.0000000  4.9162000  2
  11358  11346  11345  11367     1  0.0000000  0.6024960  3
  11365  11359  11345  11367     1  0.0000000  4.9162000  2
  11365  11359  11345  11367     1  0.0000000  0.6024960  3
  11368  11369  11372  11373     1  180.0000771  0.8368000  1
  11368  11369  11372  11373     1  180.0000771  1.0460000  2
  11368  11369  11372  11373     1  0.0000000  0.7531200  3
  11368  11369  11372  11380     1  0.0000000  0.6508444  3
  11368  11390  11374  11373     1  180.0000771  0.4184000  2
  11368  11390  11374  11373     1  0.0000000  1.6024720  3
  11368  11390  11374  11378     1  180.0000771  5.6484000  1
  11368  11390  11374  11378     1  180.0000771  3.5564000  2
  11368  11390  11374  11378     1  0.0000000  0.4184000  3
  11369  11368  11382  11388     1  0.0000000  0.6508444  3
  11369  11368  11390  11374     1  180.0000771  0.4184000  2
  11369  11368  11390  11374     1  0.0000000  1.6024720  3
  11369  11372  11373  11374     1  180.0000771  0.8368000  1
  11369  11372  11373  11374     1  180.0000771  1.0460000  2
  11369  11372  11373  11374     1  0.0000000  0.7531200  3
  11369  11372  11373  11379     1  0.0000000  0.6508444  3
  11372  11369  11368  11382     1  180.0000771  0.8368000  1
  11372  11369  11368  11382     1  180.0000771  1.0460000  2
  11372  11369  11368  11382     1  0.0000000  0.7531200  3
  11372  11369  11368  11390     1  0.0000000  0.6508444  3
  11372  11373  11374  11378     1  0.0000000  0.6508444  3
  11372  11373  11374  11390     1  0.0000000  0.6508444  3
  11373  11372  11369  11381     1  0.0000000  0.6508444  3
  11374  11373  11372  11380     1  0.0000000  0.6508444  3
  11374  11390  11368  11382     1  180.0000771  0.4184000  2
  11374  11390  11368  11382     1  0.0000000  1.6024720  3
  11378  11374  11373  11379     1  0.0000000  4.9162000  2
  11378  11374  11373  11379     1  0.0000000  0.6024960  3
  11379  11373  11372  11380     1  0.0000000  4.9162000  2
  11379  11373  11372  11380     1  0.0000000  0.6024960  3
  11379  11373  11374  11390     1  0.0000000  4.9162000  2
  11379  11373  11374  11390     1  0.0000000  0.6024960  3
  11380  11372  11369  11381     1  0.0000000  4.9162000  2
  11380  11372  11369  11381     1  0.0000000  0.6024960  3
  11381  11369  11368  11382     1  0.0000000  0.6508444  3
  11381  11369  11368  11390     1  0.0000000  4.9162000  2
  11381  11369  11368  11390     1  0.0000000  0.6024960  3
  11388  11382  11368  11390     1  0.0000000  4.9162000  2
  11388  11382  11368  11390     1  0.0000000  0.6024960  3
  11391  11392  11395  11396     1  180.0000771  0.8368000  1
  11391  11392  11395  11396     1  180.0000771  1.0460000  2
  11391  11392  11395  11396     1  0.0000000  0.7531200  3
  11391  11392  11395  11403     1  0.0000000  0.6508444  3
  11391  11413  11397  11401     1  180.0000771  5.6484000  1
  11391  11413  11397  11401     1  180.0000771  3.5564000  2
  11391  11413  11397  11401     1  0.0000000  0.4184000  3
  11391  11413  11397  11396     1  180.0000771  0.4184000  2
  11391  11413  11397  11396     1  0.0000000  1.6024720  3
  11392  11395  11396  11397     1  180.0000771  0.8368000  1
  11392  11395  11396  11397     1  180.0000771  1.0460000  2
  11392  11395  11396  11397     1  0.0000000  0.7531200  3
  11392  11395  11396  11402     1  0.0000000  0.6508444  3
  11392  11391  11405  11411     1  0.0000000  0.6508444  3
  11392  11391  11413  11397     1  180.0000771  0.4184000  2
  11392  11391  11413  11397     1  0.0000000  1.6024720  3
  11395  11396  11397  11401     1  0.0000000  0.6508444  3
  11395  11396  11397  11413     1  0.0000000  0.6508444  3
  11395  11392  11391  11405     1  180.0000771  0.8368000  1
  11395  11392  11391  11405     1  180.0000771  1.0460000  2
  11395  11392  11391  11405     1  0.0000000  0.7531200  3
  11395  11392  11391  11413     1  0.0000000  0.6508444  3
  11396  11395  11392  11404     1  0.0000000  0.6508444  3
  11397  11413  11391  11405     1  180.0000771  0.4184000  2
  11397  11413  11391  11405     1  0.0000000  1.6024720  3
  11397  11396  11395  11403     1  0.0000000  0.6508444  3
  11401  11397  11396  11402     1  0.0000000  4.9162000  2
  11401  11397  11396  11402     1  0.0000000  0.6024960  3
  11402  11396  11397  11413     1  0.0000000  4.9162000  2
  11402  11396  11397  11413     1  0.0000000  0.6024960  3
  11402  11396  11395  11403     1  0.0000000  4.9162000  2
  11402  11396  11395  11403     1  0.0000000  0.6024960  3
  11403  11395  11392  11404     1  0.0000000  4.9162000  2
  11403  11395  11392  11404     1  0.0000000  0.6024960  3
  11404  11392  11391  11405     1  0.0000000  0.6508444  3
  11404  11392  11391  11413     1  0.0000000  4.9162000  2
  11404  11392  11391  11413     1  0.0000000  0.6024960  3
  11411  11405  11391  11413     1  0.0000000  4.9162000  2
  11411  11405  11391  11413     1  0.0000000  0.6024960  3
  11414  11415  11418  11419     1  180.0000771  0.8368000  1
  11414  11415  11418  11419     1  180.0000771  1.0460000  2
  11414  11415  11418  11419     1  0.0000000  0.7531200  3
  11414  11415  11418  11426     1  0.0000000  0.6508444  3
  11414  11436  11420  11419     1  180.0000771  0.4184000  2
  11414  11436  11420  11419     1  0.0000000  1.6024720  3
  11414  11436  11420  11424     1  180.0000771  5.6484000  1
  11414  11436  11420  11424     1  180.0000771  3.5564000  2
  11414  11436  11420  11424     1  0.0000000  0.4184000  3
  11415  11414  11428  11434     1  0.0000000  0.6508444  3
  11415  11414  11436  11420     1  180.0000771  0.4184000  2
  11415  11414  11436  11420     1  0.0000000  1.6024720  3
  11415  11418  11419  11420     1  180.0000771  0.8368000  1
  11415  11418  11419  11420     1  180.0000771  1.0460000  2
  11415  11418  11419  11420     1  0.0000000  0.7531200  3
  11415  11418  11419  11425     1  0.0000000  0.6508444  3
  11418  11415  11414  11428     1  180.0000771  0.8368000  1
  11418  11415  11414  11428     1  180.0000771  1.0460000  2
  11418  11415  11414  11428     1  0.0000000  0.7531200  3
  11418  11415  11414  11436     1  0.0000000  0.6508444  3
  11418  11419  11420  11424     1  0.0000000  0.6508444  3
  11418  11419  11420  11436     1  0.0000000  0.6508444  3
  11419  11418  11415  11427     1  0.0000000  0.6508444  3
  11420  11419  11418  11426     1  0.0000000  0.6508444  3
  11420  11436  11414  11428     1  180.0000771  0.4184000  2
  11420  11436  11414  11428     1  0.0000000  1.6024720  3
  11424  11420  11419  11425     1  0.0000000  4.9162000  2
  11424  11420  11419  11425     1  0.0000000  0.6024960  3
  11425  11419  11418  11426     1  0.0000000  4.9162000  2
  11425  11419  11418  11426     1  0.0000000  0.6024960  3
  11425  11419  11420  11436     1  0.0000000  4.9162000  2
  11425  11419  11420  11436     1  0.0000000  0.6024960  3
  11426  11418  11415  11427     1  0.0000000  4.9162000  2
  11426  11418  11415  11427     1  0.0000000  0.6024960  3
  11427  11415  11414  11428     1  0.0000000  0.6508444  3
  11427  11415  11414  11436     1  0.0000000  4.9162000  2
  11427  11415  11414  11436     1  0.0000000  0.6024960  3
  11434  11428  11414  11436     1  0.0000000  4.9162000  2
  11434  11428  11414  11436     1  0.0000000  0.6024960  3
  11437  11438  11441  11442     1  180.0000771  0.8368000  1
  11437  11438  11441  11442     1  180.0000771  1.0460000  2
  11437  11438  11441  11442     1  0.0000000  0.7531200  3
  11437  11438  11441  11449     1  0.0000000  0.6508444  3
  11437  11459  11443  11447     1  180.0000771  5.6484000  1
  11437  11459  11443  11447     1  180.0000771  3.5564000  2
  11437  11459  11443  11447     1  0.0000000  0.4184000  3
  11437  11459  11443  11442     1  180.0000771  0.4184000  2
  11437  11459  11443  11442     1  0.0000000  1.6024720  3
  11438  11441  11442  11443     1  180.0000771  0.8368000  1
  11438  11441  11442  11443     1  180.0000771  1.0460000  2
  11438  11441  11442  11443     1  0.0000000  0.7531200  3
  11438  11441  11442  11448     1  0.0000000  0.6508444  3
  11438  11437  11451  11457     1  0.0000000  0.6508444  3
  11438  11437  11459  11443     1  180.0000771  0.4184000  2
  11438  11437  11459  11443     1  0.0000000  1.6024720  3
  11441  11442  11443  11447     1  0.0000000  0.6508444  3
  11441  11442  11443  11459     1  0.0000000  0.6508444  3
  11441  11438  11437  11451     1  180.0000771  0.8368000  1
  11441  11438  11437  11451     1  180.0000771  1.0460000  2
  11441  11438  11437  11451     1  0.0000000  0.7531200  3
  11441  11438  11437  11459     1  0.0000000  0.6508444  3
  11442  11441  11438  11450     1  0.0000000  0.6508444  3
  11443  11459  11437  11451     1  180.0000771  0.4184000  2
  11443  11459  11437  11451     1  0.0000000  1.6024720  3
  11443  11442  11441  11449     1  0.0000000  0.6508444  3
  11447  11443  11442  11448     1  0.0000000  4.9162000  2
  11447  11443  11442  11448     1  0.0000000  0.6024960  3
  11448  11442  11443  11459     1  0.0000000  4.9162000  2
  11448  11442  11443  11459     1  0.0000000  0.6024960  3
  11448  11442  11441  11449     1  0.0000000  4.9162000  2
  11448  11442  11441  11449     1  0.0000000  0.6024960  3
  11449  11441  11438  11450     1  0.0000000  4.9162000  2
  11449  11441  11438  11450     1  0.0000000  0.6024960  3
  11450  11438  11437  11451     1  0.0000000  0.6508444  3
  11450  11438  11437  11459     1  0.0000000  4.9162000  2
  11450  11438  11437  11459     1  0.0000000  0.6024960  3
  11457  11451  11437  11459     1  0.0000000  4.9162000  2
  11457  11451  11437  11459     1  0.0000000  0.6024960  3
  11460  11461  11464  11465     1  180.0000771  0.8368000  1
  11460  11461  11464  11465     1  180.0000771  1.0460000  2
  11460  11461  11464  11465     1  0.0000000  0.7531200  3
  11460  11461  11464  11472     1  0.0000000  0.6508444  3
  11460  11482  11466  11465     1  180.0000771  0.4184000  2
  11460  11482  11466  11465     1  0.0000000  1.6024720  3
  11460  11482  11466  11470     1  180.0000771  5.6484000  1
  11460  11482  11466  11470     1  180.0000771  3.5564000  2
  11460  11482  11466  11470     1  0.0000000  0.4184000  3
  11461  11460  11474  11480     1  0.0000000  0.6508444  3
  11461  11460  11482  11466     1  180.0000771  0.4184000  2
  11461  11460  11482  11466     1  0.0000000  1.6024720  3
  11461  11464  11465  11466     1  180.0000771  0.8368000  1
  11461  11464  11465  11466     1  180.0000771  1.0460000  2
  11461  11464  11465  11466     1  0.0000000  0.7531200  3
  11461  11464  11465  11471     1  0.0000000  0.6508444  3
  11464  11461  11460  11474     1  180.0000771  0.8368000  1
  11464  11461  11460  11474     1  180.0000771  1.0460000  2
  11464  11461  11460  11474     1  0.0000000  0.7531200  3
  11464  11461  11460  11482     1  0.0000000  0.6508444  3
  11464  11465  11466  11470     1  0.0000000  0.6508444  3
  11464  11465  11466  11482     1  0.0000000  0.6508444  3
  11465  11464  11461  11473     1  0.0000000  0.6508444  3
  11466  11465  11464  11472     1  0.0000000  0.6508444  3
  11466  11482  11460  11474     1  180.0000771  0.4184000  2
  11466  11482  11460  11474     1  0.0000000  1.6024720  3
  11470  11466  11465  11471     1  0.0000000  4.9162000  2
  11470  11466  11465  11471     1  0.0000000  0.6024960  3
  11471  11465  11464  11472     1  0.0000000  4.9162000  2
  11471  11465  11464  11472     1  0.0000000  0.6024960  3
  11471  11465  11466  11482     1  0.0000000  4.9162000  2
  11471  11465  11466  11482     1  0.0000000  0.6024960  3
  11472  11464  11461  11473     1  0.0000000  4.9162000  2
  11472  11464  11461  11473     1  0.0000000  0.6024960  3
  11473  11461  11460  11474     1  0.0000000  0.6508444  3
  11473  11461  11460  11482     1  0.0000000  4.9162000  2
  11473  11461  11460  11482     1  0.0000000  0.6024960  3
  11480  11474  11460  11482     1  0.0000000  4.9162000  2
  11480  11474  11460  11482     1  0.0000000  0.6024960  3
  11483  11484  11487  11488     1  180.0000771  0.8368000  1
  11483  11484  11487  11488     1  180.0000771  1.0460000  2
  11483  11484  11487  11488     1  0.0000000  0.7531200  3
  11483  11484  11487  11495     1  0.0000000  0.6508444  3
  11483  11505  11489  11493     1  180.0000771  5.6484000  1
  11483  11505  11489  11493     1  180.0000771  3.5564000  2
  11483  11505  11489  11493     1  0.0000000  0.4184000  3
  11483  11505  11489  11488     1  180.0000771  0.4184000  2
  11483  11505  11489  11488     1  0.0000000  1.6024720  3
  11484  11487  11488  11489     1  180.0000771  0.8368000  1
  11484  11487  11488  11489     1  180.0000771  1.0460000  2
  11484  11487  11488  11489     1  0.0000000  0.7531200  3
  11484  11487  11488  11494     1  0.0000000  0.6508444  3
  11484  11483  11497  11503     1  0.0000000  0.6508444  3
  11484  11483  11505  11489     1  180.0000771  0.4184000  2
  11484  11483  11505  11489     1  0.0000000  1.6024720  3
  11487  11488  11489  11493     1  0.0000000  0.6508444  3
  11487  11488  11489  11505     1  0.0000000  0.6508444  3
  11487  11484  11483  11497     1  180.0000771  0.8368000  1
  11487  11484  11483  11497     1  180.0000771  1.0460000  2
  11487  11484  11483  11497     1  0.0000000  0.7531200  3
  11487  11484  11483  11505     1  0.0000000  0.6508444  3
  11488  11487  11484  11496     1  0.0000000  0.6508444  3
  11489  11505  11483  11497     1  180.0000771  0.4184000  2
  11489  11505  11483  11497     1  0.0000000  1.6024720  3
  11489  11488  11487  11495     1  0.0000000  0.6508444  3
  11493  11489  11488  11494     1  0.0000000  4.9162000  2
  11493  11489  11488  11494     1  0.0000000  0.6024960  3
  11494  11488  11489  11505     1  0.0000000  4.9162000  2
  11494  11488  11489  11505     1  0.0000000  0.6024960  3
  11494  11488  11487  11495     1  0.0000000  4.9162000  2
  11494  11488  11487  11495     1  0.0000000  0.6024960  3
  11495  11487  11484  11496     1  0.0000000  4.9162000  2
  11495  11487  11484  11496     1  0.0000000  0.6024960  3
  11496  11484  11483  11497     1  0.0000000  0.6508444  3
  11496  11484  11483  11505     1  0.0000000  4.9162000  2
  11496  11484  11483  11505     1  0.0000000  0.6024960  3
  11503  11497  11483  11505     1  0.0000000  4.9162000  2
  11503  11497  11483  11505     1  0.0000000  0.6024960  3
  11506  11507  11510  11511     1  180.0000771  0.8368000  1
  11506  11507  11510  11511     1  180.0000771  1.0460000  2
  11506  11507  11510  11511     1  0.0000000  0.7531200  3
  11506  11507  11510  11518     1  0.0000000  0.6508444  3
  11506  11528  11512  11511     1  180.0000771  0.4184000  2
  11506  11528  11512  11511     1  0.0000000  1.6024720  3
  11506  11528  11512  11516     1  180.0000771  5.6484000  1
  11506  11528  11512  11516     1  180.0000771  3.5564000  2
  11506  11528  11512  11516     1  0.0000000  0.4184000  3
  11507  11506  11520  11526     1  0.0000000  0.6508444  3
  11507  11506  11528  11512     1  180.0000771  0.4184000  2
  11507  11506  11528  11512     1  0.0000000  1.6024720  3
  11507  11510  11511  11512     1  180.0000771  0.8368000  1
  11507  11510  11511  11512     1  180.0000771  1.0460000  2
  11507  11510  11511  11512     1  0.0000000  0.7531200  3
  11507  11510  11511  11517     1  0.0000000  0.6508444  3
  11510  11507  11506  11520     1  180.0000771  0.8368000  1
  11510  11507  11506  11520     1  180.0000771  1.0460000  2
  11510  11507  11506  11520     1  0.0000000  0.7531200  3
  11510  11507  11506  11528     1  0.0000000  0.6508444  3
  11510  11511  11512  11516     1  0.0000000  0.6508444  3
  11510  11511  11512  11528     1  0.0000000  0.6508444  3
  11511  11510  11507  11519     1  0.0000000  0.6508444  3
  11512  11511  11510  11518     1  0.0000000  0.6508444  3
  11512  11528  11506  11520     1  180.0000771  0.4184000  2
  11512  11528  11506  11520     1  0.0000000  1.6024720  3
  11516  11512  11511  11517     1  0.0000000  4.9162000  2
  11516  11512  11511  11517     1  0.0000000  0.6024960  3
  11517  11511  11510  11518     1  0.0000000  4.9162000  2
  11517  11511  11510  11518     1  0.0000000  0.6024960  3
  11517  11511  11512  11528     1  0.0000000  4.9162000  2
  11517  11511  11512  11528     1  0.0000000  0.6024960  3
  11518  11510  11507  11519     1  0.0000000  4.9162000  2
  11518  11510  11507  11519     1  0.0000000  0.6024960  3
  11519  11507  11506  11520     1  0.0000000  0.6508444  3
  11519  11507  11506  11528     1  0.0000000  4.9162000  2
  11519  11507  11506  11528     1  0.0000000  0.6024960  3
  11526  11520  11506  11528     1  0.0000000  4.9162000  2
  11526  11520  11506  11528     1  0.0000000  0.6024960  3
  11529  11530  11533  11534     1  180.0000771  0.8368000  1
  11529  11530  11533  11534     1  180.0000771  1.0460000  2
  11529  11530  11533  11534     1  0.0000000  0.7531200  3
  11529  11530  11533  11541     1  0.0000000  0.6508444  3
  11529  11551  11535  11539     1  180.0000771  5.6484000  1
  11529  11551  11535  11539     1  180.0000771  3.5564000  2
  11529  11551  11535  11539     1  0.0000000  0.4184000  3
  11529  11551  11535  11534     1  180.0000771  0.4184000  2
  11529  11551  11535  11534     1  0.0000000  1.6024720  3
  11530  11533  11534  11535     1  180.0000771  0.8368000  1
  11530  11533  11534  11535     1  180.0000771  1.0460000  2
  11530  11533  11534  11535     1  0.0000000  0.7531200  3
  11530  11533  11534  11540     1  0.0000000  0.6508444  3
  11530  11529  11543  11549     1  0.0000000  0.6508444  3
  11530  11529  11551  11535     1  180.0000771  0.4184000  2
  11530  11529  11551  11535     1  0.0000000  1.6024720  3
  11533  11534  11535  11539     1  0.0000000  0.6508444  3
  11533  11534  11535  11551     1  0.0000000  0.6508444  3
  11533  11530  11529  11543     1  180.0000771  0.8368000  1
  11533  11530  11529  11543     1  180.0000771  1.0460000  2
  11533  11530  11529  11543     1  0.0000000  0.7531200  3
  11533  11530  11529  11551     1  0.0000000  0.6508444  3
  11534  11533  11530  11542     1  0.0000000  0.6508444  3
  11535  11551  11529  11543     1  180.0000771  0.4184000  2
  11535  11551  11529  11543     1  0.0000000  1.6024720  3
  11535  11534  11533  11541     1  0.0000000  0.6508444  3
  11539  11535  11534  11540     1  0.0000000  4.9162000  2
  11539  11535  11534  11540     1  0.0000000  0.6024960  3
  11540  11534  11535  11551     1  0.0000000  4.9162000  2
  11540  11534  11535  11551     1  0.0000000  0.6024960  3
  11540  11534  11533  11541     1  0.0000000  4.9162000  2
  11540  11534  11533  11541     1  0.0000000  0.6024960  3
  11541  11533  11530  11542     1  0.0000000  4.9162000  2
  11541  11533  11530  11542     1  0.0000000  0.6024960  3
  11542  11530  11529  11543     1  0.0000000  0.6508444  3
  11542  11530  11529  11551     1  0.0000000  4.9162000  2
  11542  11530  11529  11551     1  0.0000000  0.6024960  3
  11549  11543  11529  11551     1  0.0000000  4.9162000  2
  11549  11543  11529  11551     1  0.0000000  0.6024960  3
  11552  11553  11556  11557     1  180.0000771  0.8368000  1
  11552  11553  11556  11557     1  180.0000771  1.0460000  2
  11552  11553  11556  11557     1  0.0000000  0.7531200  3
  11552  11553  11556  11564     1  0.0000000  0.6508444  3
  11552  11574  11558  11557     1  180.0000771  0.4184000  2
  11552  11574  11558  11557     1  0.0000000  1.6024720  3
  11552  11574  11558  11562     1  180.0000771  5.6484000  1
  11552  11574  11558  11562     1  180.0000771  3.5564000  2
  11552  11574  11558  11562     1  0.0000000  0.4184000  3
  11553  11552  11566  11572     1  0.0000000  0.6508444  3
  11553  11552  11574  11558     1  180.0000771  0.4184000  2
  11553  11552  11574  11558     1  0.0000000  1.6024720  3
  11553  11556  11557  11558     1  180.0000771  0.8368000  1
  11553  11556  11557  11558     1  180.0000771  1.0460000  2
  11553  11556  11557  11558     1  0.0000000  0.7531200  3
  11553  11556  11557  11563     1  0.0000000  0.6508444  3
  11556  11553  11552  11566     1  180.0000771  0.8368000  1
  11556  11553  11552  11566     1  180.0000771  1.0460000  2
  11556  11553  11552  11566     1  0.0000000  0.7531200  3
  11556  11553  11552  11574     1  0.0000000  0.6508444  3
  11556  11557  11558  11562     1  0.0000000  0.6508444  3
  11556  11557  11558  11574     1  0.0000000  0.6508444  3
  11557  11556  11553  11565     1  0.0000000  0.6508444  3
  11558  11557  11556  11564     1  0.0000000  0.6508444  3
  11558  11574  11552  11566     1  180.0000771  0.4184000  2
  11558  11574  11552  11566     1  0.0000000  1.6024720  3
  11562  11558  11557  11563     1  0.0000000  4.9162000  2
  11562  11558  11557  11563     1  0.0000000  0.6024960  3
  11563  11557  11556  11564     1  0.0000000  4.9162000  2
  11563  11557  11556  11564     1  0.0000000  0.6024960  3
  11563  11557  11558  11574     1  0.0000000  4.9162000  2
  11563  11557  11558  11574     1  0.0000000  0.6024960  3
  11564  11556  11553  11565     1  0.0000000  4.9162000  2
  11564  11556  11553  11565     1  0.0000000  0.6024960  3
  11565  11553  11552  11566     1  0.0000000  0.6508444  3
  11565  11553  11552  11574     1  0.0000000  4.9162000  2
  11565  11553  11552  11574     1  0.0000000  0.6024960  3
  11572  11566  11552  11574     1  0.0000000  4.9162000  2
  11572  11566  11552  11574     1  0.0000000  0.6024960  3
  11575  11576  11579  11580     1  180.0000771  0.8368000  1
  11575  11576  11579  11580     1  180.0000771  1.0460000  2
  11575  11576  11579  11580     1  0.0000000  0.7531200  3
  11575  11576  11579  11587     1  0.0000000  0.6508444  3
  11575  11597  11581  11585     1  180.0000771  5.6484000  1
  11575  11597  11581  11585     1  180.0000771  3.5564000  2
  11575  11597  11581  11585     1  0.0000000  0.4184000  3
  11575  11597  11581  11580     1  180.0000771  0.4184000  2
  11575  11597  11581  11580     1  0.0000000  1.6024720  3
  11576  11579  11580  11581     1  180.0000771  0.8368000  1
  11576  11579  11580  11581     1  180.0000771  1.0460000  2
  11576  11579  11580  11581     1  0.0000000  0.7531200  3
  11576  11579  11580  11586     1  0.0000000  0.6508444  3
  11576  11575  11589  11595     1  0.0000000  0.6508444  3
  11576  11575  11597  11581     1  180.0000771  0.4184000  2
  11576  11575  11597  11581     1  0.0000000  1.6024720  3
  11579  11580  11581  11585     1  0.0000000  0.6508444  3
  11579  11580  11581  11597     1  0.0000000  0.6508444  3
  11579  11576  11575  11589     1  180.0000771  0.8368000  1
  11579  11576  11575  11589     1  180.0000771  1.0460000  2
  11579  11576  11575  11589     1  0.0000000  0.7531200  3
  11579  11576  11575  11597     1  0.0000000  0.6508444  3
  11580  11579  11576  11588     1  0.0000000  0.6508444  3
  11581  11597  11575  11589     1  180.0000771  0.4184000  2
  11581  11597  11575  11589     1  0.0000000  1.6024720  3
  11581  11580  11579  11587     1  0.0000000  0.6508444  3
  11585  11581  11580  11586     1  0.0000000  4.9162000  2
  11585  11581  11580  11586     1  0.0000000  0.6024960  3
  11586  11580  11581  11597     1  0.0000000  4.9162000  2
  11586  11580  11581  11597     1  0.0000000  0.6024960  3
  11586  11580  11579  11587     1  0.0000000  4.9162000  2
  11586  11580  11579  11587     1  0.0000000  0.6024960  3
  11587  11579  11576  11588     1  0.0000000  4.9162000  2
  11587  11579  11576  11588     1  0.0000000  0.6024960  3
  11588  11576  11575  11589     1  0.0000000  0.6508444  3
  11588  11576  11575  11597     1  0.0000000  4.9162000  2
  11588  11576  11575  11597     1  0.0000000  0.6024960  3
  11595  11589  11575  11597     1  0.0000000  4.9162000  2
  11595  11589  11575  11597     1  0.0000000  0.6024960  3
  11598  11599  11602  11603     1  180.0000771  0.8368000  1
  11598  11599  11602  11603     1  180.0000771  1.0460000  2
  11598  11599  11602  11603     1  0.0000000  0.7531200  3
  11598  11599  11602  11610     1  0.0000000  0.6508444  3
  11598  11620  11604  11603     1  180.0000771  0.4184000  2
  11598  11620  11604  11603     1  0.0000000  1.6024720  3
  11598  11620  11604  11608     1  180.0000771  5.6484000  1
  11598  11620  11604  11608     1  180.0000771  3.5564000  2
  11598  11620  11604  11608     1  0.0000000  0.4184000  3
  11599  11598  11612  11618     1  0.0000000  0.6508444  3
  11599  11598  11620  11604     1  180.0000771  0.4184000  2
  11599  11598  11620  11604     1  0.0000000  1.6024720  3
  11599  11602  11603  11604     1  180.0000771  0.8368000  1
  11599  11602  11603  11604     1  180.0000771  1.0460000  2
  11599  11602  11603  11604     1  0.0000000  0.7531200  3
  11599  11602  11603  11609     1  0.0000000  0.6508444  3
  11602  11599  11598  11612     1  180.0000771  0.8368000  1
  11602  11599  11598  11612     1  180.0000771  1.0460000  2
  11602  11599  11598  11612     1  0.0000000  0.7531200  3
  11602  11599  11598  11620     1  0.0000000  0.6508444  3
  11602  11603  11604  11608     1  0.0000000  0.6508444  3
  11602  11603  11604  11620     1  0.0000000  0.6508444  3
  11603  11602  11599  11611     1  0.0000000  0.6508444  3
  11604  11603  11602  11610     1  0.0000000  0.6508444  3
  11604  11620  11598  11612     1  180.0000771  0.4184000  2
  11604  11620  11598  11612     1  0.0000000  1.6024720  3
  11608  11604  11603  11609     1  0.0000000  4.9162000  2
  11608  11604  11603  11609     1  0.0000000  0.6024960  3
  11609  11603  11602  11610     1  0.0000000  4.9162000  2
  11609  11603  11602  11610     1  0.0000000  0.6024960  3
  11609  11603  11604  11620     1  0.0000000  4.9162000  2
  11609  11603  11604  11620     1  0.0000000  0.6024960  3
  11610  11602  11599  11611     1  0.0000000  4.9162000  2
  11610  11602  11599  11611     1  0.0000000  0.6024960  3
  11611  11599  11598  11612     1  0.0000000  0.6508444  3
  11611  11599  11598  11620     1  0.0000000  4.9162000  2
  11611  11599  11598  11620     1  0.0000000  0.6024960  3
  11618  11612  11598  11620     1  0.0000000  4.9162000  2
  11618  11612  11598  11620     1  0.0000000  0.6024960  3
  11621  11622  11625  11626     1  180.0000771  0.8368000  1
  11621  11622  11625  11626     1  180.0000771  1.0460000  2
  11621  11622  11625  11626     1  0.0000000  0.7531200  3
  11621  11622  11625  11633     1  0.0000000  0.6508444  3
  11621  11643  11627  11631     1  180.0000771  5.6484000  1
  11621  11643  11627  11631     1  180.0000771  3.5564000  2
  11621  11643  11627  11631     1  0.0000000  0.4184000  3
  11621  11643  11627  11626     1  180.0000771  0.4184000  2
  11621  11643  11627  11626     1  0.0000000  1.6024720  3
  11622  11625  11626  11627     1  180.0000771  0.8368000  1
  11622  11625  11626  11627     1  180.0000771  1.0460000  2
  11622  11625  11626  11627     1  0.0000000  0.7531200  3
  11622  11625  11626  11632     1  0.0000000  0.6508444  3
  11622  11621  11635  11641     1  0.0000000  0.6508444  3
  11622  11621  11643  11627     1  180.0000771  0.4184000  2
  11622  11621  11643  11627     1  0.0000000  1.6024720  3
  11625  11626  11627  11631     1  0.0000000  0.6508444  3
  11625  11626  11627  11643     1  0.0000000  0.6508444  3
  11625  11622  11621  11635     1  180.0000771  0.8368000  1
  11625  11622  11621  11635     1  180.0000771  1.0460000  2
  11625  11622  11621  11635     1  0.0000000  0.7531200  3
  11625  11622  11621  11643     1  0.0000000  0.6508444  3
  11626  11625  11622  11634     1  0.0000000  0.6508444  3
  11627  11643  11621  11635     1  180.0000771  0.4184000  2
  11627  11643  11621  11635     1  0.0000000  1.6024720  3
  11627  11626  11625  11633     1  0.0000000  0.6508444  3
  11631  11627  11626  11632     1  0.0000000  4.9162000  2
  11631  11627  11626  11632     1  0.0000000  0.6024960  3
  11632  11626  11627  11643     1  0.0000000  4.9162000  2
  11632  11626  11627  11643     1  0.0000000  0.6024960  3
  11632  11626  11625  11633     1  0.0000000  4.9162000  2
  11632  11626  11625  11633     1  0.0000000  0.6024960  3
  11633  11625  11622  11634     1  0.0000000  4.9162000  2
  11633  11625  11622  11634     1  0.0000000  0.6024960  3
  11634  11622  11621  11635     1  0.0000000  0.6508444  3
  11634  11622  11621  11643     1  0.0000000  4.9162000  2
  11634  11622  11621  11643     1  0.0000000  0.6024960  3
  11641  11635  11621  11643     1  0.0000000  4.9162000  2
  11641  11635  11621  11643     1  0.0000000  0.6024960  3
  11644  11645  11648  11649     1  180.0000771  0.8368000  1
  11644  11645  11648  11649     1  180.0000771  1.0460000  2
  11644  11645  11648  11649     1  0.0000000  0.7531200  3
  11644  11645  11648  11656     1  0.0000000  0.6508444  3
  11644  11666  11650  11649     1  180.0000771  0.4184000  2
  11644  11666  11650  11649     1  0.0000000  1.6024720  3
  11644  11666  11650  11654     1  180.0000771  5.6484000  1
  11644  11666  11650  11654     1  180.0000771  3.5564000  2
  11644  11666  11650  11654     1  0.0000000  0.4184000  3
  11645  11644  11658  11664     1  0.0000000  0.6508444  3
  11645  11644  11666  11650     1  180.0000771  0.4184000  2
  11645  11644  11666  11650     1  0.0000000  1.6024720  3
  11645  11648  11649  11650     1  180.0000771  0.8368000  1
  11645  11648  11649  11650     1  180.0000771  1.0460000  2
  11645  11648  11649  11650     1  0.0000000  0.7531200  3
  11645  11648  11649  11655     1  0.0000000  0.6508444  3
  11648  11645  11644  11658     1  180.0000771  0.8368000  1
  11648  11645  11644  11658     1  180.0000771  1.0460000  2
  11648  11645  11644  11658     1  0.0000000  0.7531200  3
  11648  11645  11644  11666     1  0.0000000  0.6508444  3
  11648  11649  11650  11654     1  0.0000000  0.6508444  3
  11648  11649  11650  11666     1  0.0000000  0.6508444  3
  11649  11648  11645  11657     1  0.0000000  0.6508444  3
  11650  11649  11648  11656     1  0.0000000  0.6508444  3
  11650  11666  11644  11658     1  180.0000771  0.4184000  2
  11650  11666  11644  11658     1  0.0000000  1.6024720  3
  11654  11650  11649  11655     1  0.0000000  4.9162000  2
  11654  11650  11649  11655     1  0.0000000  0.6024960  3
  11655  11649  11648  11656     1  0.0000000  4.9162000  2
  11655  11649  11648  11656     1  0.0000000  0.6024960  3
  11655  11649  11650  11666     1  0.0000000  4.9162000  2
  11655  11649  11650  11666     1  0.0000000  0.6024960  3
  11656  11648  11645  11657     1  0.0000000  4.9162000  2
  11656  11648  11645  11657     1  0.0000000  0.6024960  3
  11657  11645  11644  11658     1  0.0000000  0.6508444  3
  11657  11645  11644  11666     1  0.0000000  4.9162000  2
  11657  11645  11644  11666     1  0.0000000  0.6024960  3
  11664  11658  11644  11666     1  0.0000000  4.9162000  2
  11664  11658  11644  11666     1  0.0000000  0.6024960  3
  11667  11668  11671  11672     1  180.0000771  0.8368000  1
  11667  11668  11671  11672     1  180.0000771  1.0460000  2
  11667  11668  11671  11672     1  0.0000000  0.7531200  3
  11667  11668  11671  11679     1  0.0000000  0.6508444  3
  11667  11689  11673  11677     1  180.0000771  5.6484000  1
  11667  11689  11673  11677     1  180.0000771  3.5564000  2
  11667  11689  11673  11677     1  0.0000000  0.4184000  3
  11667  11689  11673  11672     1  180.0000771  0.4184000  2
  11667  11689  11673  11672     1  0.0000000  1.6024720  3
  11668  11671  11672  11673     1  180.0000771  0.8368000  1
  11668  11671  11672  11673     1  180.0000771  1.0460000  2
  11668  11671  11672  11673     1  0.0000000  0.7531200  3
  11668  11671  11672  11678     1  0.0000000  0.6508444  3
  11668  11667  11681  11687     1  0.0000000  0.6508444  3
  11668  11667  11689  11673     1  180.0000771  0.4184000  2
  11668  11667  11689  11673     1  0.0000000  1.6024720  3
  11671  11672  11673  11677     1  0.0000000  0.6508444  3
  11671  11672  11673  11689     1  0.0000000  0.6508444  3
  11671  11668  11667  11681     1  180.0000771  0.8368000  1
  11671  11668  11667  11681     1  180.0000771  1.0460000  2
  11671  11668  11667  11681     1  0.0000000  0.7531200  3
  11671  11668  11667  11689     1  0.0000000  0.6508444  3
  11672  11671  11668  11680     1  0.0000000  0.6508444  3
  11673  11689  11667  11681     1  180.0000771  0.4184000  2
  11673  11689  11667  11681     1  0.0000000  1.6024720  3
  11673  11672  11671  11679     1  0.0000000  0.6508444  3
  11677  11673  11672  11678     1  0.0000000  4.9162000  2
  11677  11673  11672  11678     1  0.0000000  0.6024960  3
  11678  11672  11673  11689     1  0.0000000  4.9162000  2
  11678  11672  11673  11689     1  0.0000000  0.6024960  3
  11678  11672  11671  11679     1  0.0000000  4.9162000  2
  11678  11672  11671  11679     1  0.0000000  0.6024960  3
  11679  11671  11668  11680     1  0.0000000  4.9162000  2
  11679  11671  11668  11680     1  0.0000000  0.6024960  3
  11680  11668  11667  11681     1  0.0000000  0.6508444  3
  11680  11668  11667  11689     1  0.0000000  4.9162000  2
  11680  11668  11667  11689     1  0.0000000  0.6024960  3
  11687  11681  11667  11689     1  0.0000000  4.9162000  2
  11687  11681  11667  11689     1  0.0000000  0.6024960  3
  11690  11691  11694  11695     1  180.0000771  0.8368000  1
  11690  11691  11694  11695     1  180.0000771  1.0460000  2
  11690  11691  11694  11695     1  0.0000000  0.7531200  3
  11690  11691  11694  11702     1  0.0000000  0.6508444  3
  11690  11712  11696  11695     1  180.0000771  0.4184000  2
  11690  11712  11696  11695     1  0.0000000  1.6024720  3
  11690  11712  11696  11700     1  180.0000771  5.6484000  1
  11690  11712  11696  11700     1  180.0000771  3.5564000  2
  11690  11712  11696  11700     1  0.0000000  0.4184000  3
  11691  11690  11704  11710     1  0.0000000  0.6508444  3
  11691  11690  11712  11696     1  180.0000771  0.4184000  2
  11691  11690  11712  11696     1  0.0000000  1.6024720  3
  11691  11694  11695  11696     1  180.0000771  0.8368000  1
  11691  11694  11695  11696     1  180.0000771  1.0460000  2
  11691  11694  11695  11696     1  0.0000000  0.7531200  3
  11691  11694  11695  11701     1  0.0000000  0.6508444  3
  11694  11691  11690  11704     1  180.0000771  0.8368000  1
  11694  11691  11690  11704     1  180.0000771  1.0460000  2
  11694  11691  11690  11704     1  0.0000000  0.7531200  3
  11694  11691  11690  11712     1  0.0000000  0.6508444  3
  11694  11695  11696  11700     1  0.0000000  0.6508444  3
  11694  11695  11696  11712     1  0.0000000  0.6508444  3
  11695  11694  11691  11703     1  0.0000000  0.6508444  3
  11696  11695  11694  11702     1  0.0000000  0.6508444  3
  11696  11712  11690  11704     1  180.0000771  0.4184000  2
  11696  11712  11690  11704     1  0.0000000  1.6024720  3
  11700  11696  11695  11701     1  0.0000000  4.9162000  2
  11700  11696  11695  11701     1  0.0000000  0.6024960  3
  11701  11695  11694  11702     1  0.0000000  4.9162000  2
  11701  11695  11694  11702     1  0.0000000  0.6024960  3
  11701  11695  11696  11712     1  0.0000000  4.9162000  2
  11701  11695  11696  11712     1  0.0000000  0.6024960  3
  11702  11694  11691  11703     1  0.0000000  4.9162000  2
  11702  11694  11691  11703     1  0.0000000  0.6024960  3
  11703  11691  11690  11704     1  0.0000000  0.6508444  3
  11703  11691  11690  11712     1  0.0000000  4.9162000  2
  11703  11691  11690  11712     1  0.0000000  0.6024960  3
  11710  11704  11690  11712     1  0.0000000  4.9162000  2
  11710  11704  11690  11712     1  0.0000000  0.6024960  3
  11713  11714  11717  11718     1  180.0000771  0.8368000  1
  11713  11714  11717  11718     1  180.0000771  1.0460000  2
  11713  11714  11717  11718     1  0.0000000  0.7531200  3
  11713  11714  11717  11725     1  0.0000000  0.6508444  3
  11713  11735  11719  11723     1  180.0000771  5.6484000  1
  11713  11735  11719  11723     1  180.0000771  3.5564000  2
  11713  11735  11719  11723     1  0.0000000  0.4184000  3
  11713  11735  11719  11718     1  180.0000771  0.4184000  2
  11713  11735  11719  11718     1  0.0000000  1.6024720  3
  11714  11717  11718  11719     1  180.0000771  0.8368000  1
  11714  11717  11718  11719     1  180.0000771  1.0460000  2
  11714  11717  11718  11719     1  0.0000000  0.7531200  3
  11714  11717  11718  11724     1  0.0000000  0.6508444  3
  11714  11713  11727  11733     1  0.0000000  0.6508444  3
  11714  11713  11735  11719     1  180.0000771  0.4184000  2
  11714  11713  11735  11719     1  0.0000000  1.6024720  3
  11717  11718  11719  11723     1  0.0000000  0.6508444  3
  11717  11718  11719  11735     1  0.0000000  0.6508444  3
  11717  11714  11713  11727     1  180.0000771  0.8368000  1
  11717  11714  11713  11727     1  180.0000771  1.0460000  2
  11717  11714  11713  11727     1  0.0000000  0.7531200  3
  11717  11714  11713  11735     1  0.0000000  0.6508444  3
  11718  11717  11714  11726     1  0.0000000  0.6508444  3
  11719  11735  11713  11727     1  180.0000771  0.4184000  2
  11719  11735  11713  11727     1  0.0000000  1.6024720  3
  11719  11718  11717  11725     1  0.0000000  0.6508444  3
  11723  11719  11718  11724     1  0.0000000  4.9162000  2
  11723  11719  11718  11724     1  0.0000000  0.6024960  3
  11724  11718  11719  11735     1  0.0000000  4.9162000  2
  11724  11718  11719  11735     1  0.0000000  0.6024960  3
  11724  11718  11717  11725     1  0.0000000  4.9162000  2
  11724  11718  11717  11725     1  0.0000000  0.6024960  3
  11725  11717  11714  11726     1  0.0000000  4.9162000  2
  11725  11717  11714  11726     1  0.0000000  0.6024960  3
  11726  11714  11713  11727     1  0.0000000  0.6508444  3
  11726  11714  11713  11735     1  0.0000000  4.9162000  2
  11726  11714  11713  11735     1  0.0000000  0.6024960  3
  11733  11727  11713  11735     1  0.0000000  4.9162000  2
  11733  11727  11713  11735     1  0.0000000  0.6024960  3
  11736  11737  11740  11741     1  180.0000771  0.8368000  1
  11736  11737  11740  11741     1  180.0000771  1.0460000  2
  11736  11737  11740  11741     1  0.0000000  0.7531200  3
  11736  11737  11740  11748     1  0.0000000  0.6508444  3
  11736  11758  11742  11741     1  180.0000771  0.4184000  2
  11736  11758  11742  11741     1  0.0000000  1.6024720  3
  11736  11758  11742  11746     1  180.0000771  5.6484000  1
  11736  11758  11742  11746     1  180.0000771  3.5564000  2
  11736  11758  11742  11746     1  0.0000000  0.4184000  3
  11737  11736  11750  11756     1  0.0000000  0.6508444  3
  11737  11736  11758  11742     1  180.0000771  0.4184000  2
  11737  11736  11758  11742     1  0.0000000  1.6024720  3
  11737  11740  11741  11742     1  180.0000771  0.8368000  1
  11737  11740  11741  11742     1  180.0000771  1.0460000  2
  11737  11740  11741  11742     1  0.0000000  0.7531200  3
  11737  11740  11741  11747     1  0.0000000  0.6508444  3
  11740  11737  11736  11750     1  180.0000771  0.8368000  1
  11740  11737  11736  11750     1  180.0000771  1.0460000  2
  11740  11737  11736  11750     1  0.0000000  0.7531200  3
  11740  11737  11736  11758     1  0.0000000  0.6508444  3
  11740  11741  11742  11746     1  0.0000000  0.6508444  3
  11740  11741  11742  11758     1  0.0000000  0.6508444  3
  11741  11740  11737  11749     1  0.0000000  0.6508444  3
  11742  11741  11740  11748     1  0.0000000  0.6508444  3
  11742  11758  11736  11750     1  180.0000771  0.4184000  2
  11742  11758  11736  11750     1  0.0000000  1.6024720  3
  11746  11742  11741  11747     1  0.0000000  4.9162000  2
  11746  11742  11741  11747     1  0.0000000  0.6024960  3
  11747  11741  11740  11748     1  0.0000000  4.9162000  2
  11747  11741  11740  11748     1  0.0000000  0.6024960  3
  11747  11741  11742  11758     1  0.0000000  4.9162000  2
  11747  11741  11742  11758     1  0.0000000  0.6024960  3
  11748  11740  11737  11749     1  0.0000000  4.9162000  2
  11748  11740  11737  11749     1  0.0000000  0.6024960  3
  11749  11737  11736  11750     1  0.0000000  0.6508444  3
  11749  11737  11736  11758     1  0.0000000  4.9162000  2
  11749  11737  11736  11758     1  0.0000000  0.6024960  3
  11756  11750  11736  11758     1  0.0000000  4.9162000  2
  11756  11750  11736  11758     1  0.0000000  0.6024960  3
  11759  11760  11763  11764     1  180.0000771  0.8368000  1
  11759  11760  11763  11764     1  180.0000771  1.0460000  2
  11759  11760  11763  11764     1  0.0000000  0.7531200  3
  11759  11760  11763  11771     1  0.0000000  0.6508444  3
  11759  11781  11765  11769     1  180.0000771  5.6484000  1
  11759  11781  11765  11769     1  180.0000771  3.5564000  2
  11759  11781  11765  11769     1  0.0000000  0.4184000  3
  11759  11781  11765  11764     1  180.0000771  0.4184000  2
  11759  11781  11765  11764     1  0.0000000  1.6024720  3
  11760  11763  11764  11765     1  180.0000771  0.8368000  1
  11760  11763  11764  11765     1  180.0000771  1.0460000  2
  11760  11763  11764  11765     1  0.0000000  0.7531200  3
  11760  11763  11764  11770     1  0.0000000  0.6508444  3
  11760  11759  11773  11779     1  0.0000000  0.6508444  3
  11760  11759  11781  11765     1  180.0000771  0.4184000  2
  11760  11759  11781  11765     1  0.0000000  1.6024720  3
  11763  11764  11765  11769     1  0.0000000  0.6508444  3
  11763  11764  11765  11781     1  0.0000000  0.6508444  3
  11763  11760  11759  11773     1  180.0000771  0.8368000  1
  11763  11760  11759  11773     1  180.0000771  1.0460000  2
  11763  11760  11759  11773     1  0.0000000  0.7531200  3
  11763  11760  11759  11781     1  0.0000000  0.6508444  3
  11764  11763  11760  11772     1  0.0000000  0.6508444  3
  11765  11781  11759  11773     1  180.0000771  0.4184000  2
  11765  11781  11759  11773     1  0.0000000  1.6024720  3
  11765  11764  11763  11771     1  0.0000000  0.6508444  3
  11769  11765  11764  11770     1  0.0000000  4.9162000  2
  11769  11765  11764  11770     1  0.0000000  0.6024960  3
  11770  11764  11765  11781     1  0.0000000  4.9162000  2
  11770  11764  11765  11781     1  0.0000000  0.6024960  3
  11770  11764  11763  11771     1  0.0000000  4.9162000  2
  11770  11764  11763  11771     1  0.0000000  0.6024960  3
  11771  11763  11760  11772     1  0.0000000  4.9162000  2
  11771  11763  11760  11772     1  0.0000000  0.6024960  3
  11772  11760  11759  11773     1  0.0000000  0.6508444  3
  11772  11760  11759  11781     1  0.0000000  4.9162000  2
  11772  11760  11759  11781     1  0.0000000  0.6024960  3
  11779  11773  11759  11781     1  0.0000000  4.9162000  2
  11779  11773  11759  11781     1  0.0000000  0.6024960  3
  11782  11783  11786  11787     1  180.0000771  0.8368000  1
  11782  11783  11786  11787     1  180.0000771  1.0460000  2
  11782  11783  11786  11787     1  0.0000000  0.7531200  3
  11782  11783  11786  11794     1  0.0000000  0.6508444  3
  11782  11804  11788  11787     1  180.0000771  0.4184000  2
  11782  11804  11788  11787     1  0.0000000  1.6024720  3
  11782  11804  11788  11792     1  180.0000771  5.6484000  1
  11782  11804  11788  11792     1  180.0000771  3.5564000  2
  11782  11804  11788  11792     1  0.0000000  0.4184000  3
  11783  11782  11796  11802     1  0.0000000  0.6508444  3
  11783  11782  11804  11788     1  180.0000771  0.4184000  2
  11783  11782  11804  11788     1  0.0000000  1.6024720  3
  11783  11786  11787  11788     1  180.0000771  0.8368000  1
  11783  11786  11787  11788     1  180.0000771  1.0460000  2
  11783  11786  11787  11788     1  0.0000000  0.7531200  3
  11783  11786  11787  11793     1  0.0000000  0.6508444  3
  11786  11783  11782  11796     1  180.0000771  0.8368000  1
  11786  11783  11782  11796     1  180.0000771  1.0460000  2
  11786  11783  11782  11796     1  0.0000000  0.7531200  3
  11786  11783  11782  11804     1  0.0000000  0.6508444  3
  11786  11787  11788  11792     1  0.0000000  0.6508444  3
  11786  11787  11788  11804     1  0.0000000  0.6508444  3
  11787  11786  11783  11795     1  0.0000000  0.6508444  3
  11788  11787  11786  11794     1  0.0000000  0.6508444  3
  11788  11804  11782  11796     1  180.0000771  0.4184000  2
  11788  11804  11782  11796     1  0.0000000  1.6024720  3
  11792  11788  11787  11793     1  0.0000000  4.9162000  2
  11792  11788  11787  11793     1  0.0000000  0.6024960  3
  11793  11787  11786  11794     1  0.0000000  4.9162000  2
  11793  11787  11786  11794     1  0.0000000  0.6024960  3
  11793  11787  11788  11804     1  0.0000000  4.9162000  2
  11793  11787  11788  11804     1  0.0000000  0.6024960  3
  11794  11786  11783  11795     1  0.0000000  4.9162000  2
  11794  11786  11783  11795     1  0.0000000  0.6024960  3
  11795  11783  11782  11796     1  0.0000000  0.6508444  3
  11795  11783  11782  11804     1  0.0000000  4.9162000  2
  11795  11783  11782  11804     1  0.0000000  0.6024960  3
  11802  11796  11782  11804     1  0.0000000  4.9162000  2
  11802  11796  11782  11804     1  0.0000000  0.6024960  3
  11805  11806  11809  11810     1  180.0000771  0.8368000  1
  11805  11806  11809  11810     1  180.0000771  1.0460000  2
  11805  11806  11809  11810     1  0.0000000  0.7531200  3
  11805  11806  11809  11817     1  0.0000000  0.6508444  3
  11805  11827  11811  11815     1  180.0000771  5.6484000  1
  11805  11827  11811  11815     1  180.0000771  3.5564000  2
  11805  11827  11811  11815     1  0.0000000  0.4184000  3
  11805  11827  11811  11810     1  180.0000771  0.4184000  2
  11805  11827  11811  11810     1  0.0000000  1.6024720  3
  11806  11809  11810  11811     1  180.0000771  0.8368000  1
  11806  11809  11810  11811     1  180.0000771  1.0460000  2
  11806  11809  11810  11811     1  0.0000000  0.7531200  3
  11806  11809  11810  11816     1  0.0000000  0.6508444  3
  11806  11805  11819  11825     1  0.0000000  0.6508444  3
  11806  11805  11827  11811     1  180.0000771  0.4184000  2
  11806  11805  11827  11811     1  0.0000000  1.6024720  3
  11809  11810  11811  11815     1  0.0000000  0.6508444  3
  11809  11810  11811  11827     1  0.0000000  0.6508444  3
  11809  11806  11805  11819     1  180.0000771  0.8368000  1
  11809  11806  11805  11819     1  180.0000771  1.0460000  2
  11809  11806  11805  11819     1  0.0000000  0.7531200  3
  11809  11806  11805  11827     1  0.0000000  0.6508444  3
  11810  11809  11806  11818     1  0.0000000  0.6508444  3
  11811  11827  11805  11819     1  180.0000771  0.4184000  2
  11811  11827  11805  11819     1  0.0000000  1.6024720  3
  11811  11810  11809  11817     1  0.0000000  0.6508444  3
  11815  11811  11810  11816     1  0.0000000  4.9162000  2
  11815  11811  11810  11816     1  0.0000000  0.6024960  3
  11816  11810  11811  11827     1  0.0000000  4.9162000  2
  11816  11810  11811  11827     1  0.0000000  0.6024960  3
  11816  11810  11809  11817     1  0.0000000  4.9162000  2
  11816  11810  11809  11817     1  0.0000000  0.6024960  3
  11817  11809  11806  11818     1  0.0000000  4.9162000  2
  11817  11809  11806  11818     1  0.0000000  0.6024960  3
  11818  11806  11805  11819     1  0.0000000  0.6508444  3
  11818  11806  11805  11827     1  0.0000000  4.9162000  2
  11818  11806  11805  11827     1  0.0000000  0.6024960  3
  11825  11819  11805  11827     1  0.0000000  4.9162000  2
  11825  11819  11805  11827     1  0.0000000  0.6024960  3
  11828  11829  11832  11833     1  180.0000771  0.8368000  1
  11828  11829  11832  11833     1  180.0000771  1.0460000  2
  11828  11829  11832  11833     1  0.0000000  0.7531200  3
  11828  11829  11832  11840     1  0.0000000  0.6508444  3
  11828  11850  11834  11833     1  180.0000771  0.4184000  2
  11828  11850  11834  11833     1  0.0000000  1.6024720  3
  11828  11850  11834  11838     1  180.0000771  5.6484000  1
  11828  11850  11834  11838     1  180.0000771  3.5564000  2
  11828  11850  11834  11838     1  0.0000000  0.4184000  3
  11829  11828  11842  11848     1  0.0000000  0.6508444  3
  11829  11828  11850  11834     1  180.0000771  0.4184000  2
  11829  11828  11850  11834     1  0.0000000  1.6024720  3
  11829  11832  11833  11834     1  180.0000771  0.8368000  1
  11829  11832  11833  11834     1  180.0000771  1.0460000  2
  11829  11832  11833  11834     1  0.0000000  0.7531200  3
  11829  11832  11833  11839     1  0.0000000  0.6508444  3
  11832  11829  11828  11842     1  180.0000771  0.8368000  1
  11832  11829  11828  11842     1  180.0000771  1.0460000  2
  11832  11829  11828  11842     1  0.0000000  0.7531200  3
  11832  11829  11828  11850     1  0.0000000  0.6508444  3
  11832  11833  11834  11838     1  0.0000000  0.6508444  3
  11832  11833  11834  11850     1  0.0000000  0.6508444  3
  11833  11832  11829  11841     1  0.0000000  0.6508444  3
  11834  11833  11832  11840     1  0.0000000  0.6508444  3
  11834  11850  11828  11842     1  180.0000771  0.4184000  2
  11834  11850  11828  11842     1  0.0000000  1.6024720  3
  11838  11834  11833  11839     1  0.0000000  4.9162000  2
  11838  11834  11833  11839     1  0.0000000  0.6024960  3
  11839  11833  11832  11840     1  0.0000000  4.9162000  2
  11839  11833  11832  11840     1  0.0000000  0.6024960  3
  11839  11833  11834  11850     1  0.0000000  4.9162000  2
  11839  11833  11834  11850     1  0.0000000  0.6024960  3
  11840  11832  11829  11841     1  0.0000000  4.9162000  2
  11840  11832  11829  11841     1  0.0000000  0.6024960  3
  11841  11829  11828  11842     1  0.0000000  0.6508444  3
  11841  11829  11828  11850     1  0.0000000  4.9162000  2
  11841  11829  11828  11850     1  0.0000000  0.6024960  3
  11848  11842  11828  11850     1  0.0000000  4.9162000  2
  11848  11842  11828  11850     1  0.0000000  0.6024960  3
  11851  11852  11855  11856     1  180.0000771  0.8368000  1
  11851  11852  11855  11856     1  180.0000771  1.0460000  2
  11851  11852  11855  11856     1  0.0000000  0.7531200  3
  11851  11852  11855  11863     1  0.0000000  0.6508444  3
  11851  11873  11857  11861     1  180.0000771  5.6484000  1
  11851  11873  11857  11861     1  180.0000771  3.5564000  2
  11851  11873  11857  11861     1  0.0000000  0.4184000  3
  11851  11873  11857  11856     1  180.0000771  0.4184000  2
  11851  11873  11857  11856     1  0.0000000  1.6024720  3
  11852  11855  11856  11857     1  180.0000771  0.8368000  1
  11852  11855  11856  11857     1  180.0000771  1.0460000  2
  11852  11855  11856  11857     1  0.0000000  0.7531200  3
  11852  11855  11856  11862     1  0.0000000  0.6508444  3
  11852  11851  11865  11871     1  0.0000000  0.6508444  3
  11852  11851  11873  11857     1  180.0000771  0.4184000  2
  11852  11851  11873  11857     1  0.0000000  1.6024720  3
  11855  11856  11857  11861     1  0.0000000  0.6508444  3
  11855  11856  11857  11873     1  0.0000000  0.6508444  3
  11855  11852  11851  11865     1  180.0000771  0.8368000  1
  11855  11852  11851  11865     1  180.0000771  1.0460000  2
  11855  11852  11851  11865     1  0.0000000  0.7531200  3
  11855  11852  11851  11873     1  0.0000000  0.6508444  3
  11856  11855  11852  11864     1  0.0000000  0.6508444  3
  11857  11873  11851  11865     1  180.0000771  0.4184000  2
  11857  11873  11851  11865     1  0.0000000  1.6024720  3
  11857  11856  11855  11863     1  0.0000000  0.6508444  3
  11861  11857  11856  11862     1  0.0000000  4.9162000  2
  11861  11857  11856  11862     1  0.0000000  0.6024960  3
  11862  11856  11857  11873     1  0.0000000  4.9162000  2
  11862  11856  11857  11873     1  0.0000000  0.6024960  3
  11862  11856  11855  11863     1  0.0000000  4.9162000  2
  11862  11856  11855  11863     1  0.0000000  0.6024960  3
  11863  11855  11852  11864     1  0.0000000  4.9162000  2
  11863  11855  11852  11864     1  0.0000000  0.6024960  3
  11864  11852  11851  11865     1  0.0000000  0.6508444  3
  11864  11852  11851  11873     1  0.0000000  4.9162000  2
  11864  11852  11851  11873     1  0.0000000  0.6024960  3
  11871  11865  11851  11873     1  0.0000000  4.9162000  2
  11871  11865  11851  11873     1  0.0000000  0.6024960  3
  11874  11875  11878  11879     1  180.0000771  0.8368000  1
  11874  11875  11878  11879     1  180.0000771  1.0460000  2
  11874  11875  11878  11879     1  0.0000000  0.7531200  3
  11874  11875  11878  11886     1  0.0000000  0.6508444  3
  11874  11896  11880  11879     1  180.0000771  0.4184000  2
  11874  11896  11880  11879     1  0.0000000  1.6024720  3
  11874  11896  11880  11884     1  180.0000771  5.6484000  1
  11874  11896  11880  11884     1  180.0000771  3.5564000  2
  11874  11896  11880  11884     1  0.0000000  0.4184000  3
  11875  11874  11888  11894     1  0.0000000  0.6508444  3
  11875  11874  11896  11880     1  180.0000771  0.4184000  2
  11875  11874  11896  11880     1  0.0000000  1.6024720  3
  11875  11878  11879  11880     1  180.0000771  0.8368000  1
  11875  11878  11879  11880     1  180.0000771  1.0460000  2
  11875  11878  11879  11880     1  0.0000000  0.7531200  3
  11875  11878  11879  11885     1  0.0000000  0.6508444  3
  11878  11875  11874  11888     1  180.0000771  0.8368000  1
  11878  11875  11874  11888     1  180.0000771  1.0460000  2
  11878  11875  11874  11888     1  0.0000000  0.7531200  3
  11878  11875  11874  11896     1  0.0000000  0.6508444  3
  11878  11879  11880  11884     1  0.0000000  0.6508444  3
  11878  11879  11880  11896     1  0.0000000  0.6508444  3
  11879  11878  11875  11887     1  0.0000000  0.6508444  3
  11880  11879  11878  11886     1  0.0000000  0.6508444  3
  11880  11896  11874  11888     1  180.0000771  0.4184000  2
  11880  11896  11874  11888     1  0.0000000  1.6024720  3
  11884  11880  11879  11885     1  0.0000000  4.9162000  2
  11884  11880  11879  11885     1  0.0000000  0.6024960  3
  11885  11879  11878  11886     1  0.0000000  4.9162000  2
  11885  11879  11878  11886     1  0.0000000  0.6024960  3
  11885  11879  11880  11896     1  0.0000000  4.9162000  2
  11885  11879  11880  11896     1  0.0000000  0.6024960  3
  11886  11878  11875  11887     1  0.0000000  4.9162000  2
  11886  11878  11875  11887     1  0.0000000  0.6024960  3
  11887  11875  11874  11888     1  0.0000000  0.6508444  3
  11887  11875  11874  11896     1  0.0000000  4.9162000  2
  11887  11875  11874  11896     1  0.0000000  0.6024960  3
  11894  11888  11874  11896     1  0.0000000  4.9162000  2
  11894  11888  11874  11896     1  0.0000000  0.6024960  3
  11897  11898  11901  11902     1  180.0000771  0.8368000  1
  11897  11898  11901  11902     1  180.0000771  1.0460000  2
  11897  11898  11901  11902     1  0.0000000  0.7531200  3
  11897  11898  11901  11909     1  0.0000000  0.6508444  3
  11897  11919  11903  11907     1  180.0000771  5.6484000  1
  11897  11919  11903  11907     1  180.0000771  3.5564000  2
  11897  11919  11903  11907     1  0.0000000  0.4184000  3
  11897  11919  11903  11902     1  180.0000771  0.4184000  2
  11897  11919  11903  11902     1  0.0000000  1.6024720  3
  11898  11901  11902  11903     1  180.0000771  0.8368000  1
  11898  11901  11902  11903     1  180.0000771  1.0460000  2
  11898  11901  11902  11903     1  0.0000000  0.7531200  3
  11898  11901  11902  11908     1  0.0000000  0.6508444  3
  11898  11897  11911  11917     1  0.0000000  0.6508444  3
  11898  11897  11919  11903     1  180.0000771  0.4184000  2
  11898  11897  11919  11903     1  0.0000000  1.6024720  3
  11901  11902  11903  11907     1  0.0000000  0.6508444  3
  11901  11902  11903  11919     1  0.0000000  0.6508444  3
  11901  11898  11897  11911     1  180.0000771  0.8368000  1
  11901  11898  11897  11911     1  180.0000771  1.0460000  2
  11901  11898  11897  11911     1  0.0000000  0.7531200  3
  11901  11898  11897  11919     1  0.0000000  0.6508444  3
  11902  11901  11898  11910     1  0.0000000  0.6508444  3
  11903  11919  11897  11911     1  180.0000771  0.4184000  2
  11903  11919  11897  11911     1  0.0000000  1.6024720  3
  11903  11902  11901  11909     1  0.0000000  0.6508444  3
  11907  11903  11902  11908     1  0.0000000  4.9162000  2
  11907  11903  11902  11908     1  0.0000000  0.6024960  3
  11908  11902  11903  11919     1  0.0000000  4.9162000  2
  11908  11902  11903  11919     1  0.0000000  0.6024960  3
  11908  11902  11901  11909     1  0.0000000  4.9162000  2
  11908  11902  11901  11909     1  0.0000000  0.6024960  3
  11909  11901  11898  11910     1  0.0000000  4.9162000  2
  11909  11901  11898  11910     1  0.0000000  0.6024960  3
  11910  11898  11897  11911     1  0.0000000  0.6508444  3
  11910  11898  11897  11919     1  0.0000000  4.9162000  2
  11910  11898  11897  11919     1  0.0000000  0.6024960  3
  11917  11911  11897  11919     1  0.0000000  4.9162000  2
  11917  11911  11897  11919     1  0.0000000  0.6024960  3
  11920  11921  11924  11925     1  180.0000771  0.8368000  1
  11920  11921  11924  11925     1  180.0000771  1.0460000  2
  11920  11921  11924  11925     1  0.0000000  0.7531200  3
  11920  11921  11924  11932     1  0.0000000  0.6508444  3
  11920  11942  11926  11925     1  180.0000771  0.4184000  2
  11920  11942  11926  11925     1  0.0000000  1.6024720  3
  11920  11942  11926  11930     1  180.0000771  5.6484000  1
  11920  11942  11926  11930     1  180.0000771  3.5564000  2
  11920  11942  11926  11930     1  0.0000000  0.4184000  3
  11921  11920  11934  11940     1  0.0000000  0.6508444  3
  11921  11920  11942  11926     1  180.0000771  0.4184000  2
  11921  11920  11942  11926     1  0.0000000  1.6024720  3
  11921  11924  11925  11926     1  180.0000771  0.8368000  1
  11921  11924  11925  11926     1  180.0000771  1.0460000  2
  11921  11924  11925  11926     1  0.0000000  0.7531200  3
  11921  11924  11925  11931     1  0.0000000  0.6508444  3
  11924  11921  11920  11934     1  180.0000771  0.8368000  1
  11924  11921  11920  11934     1  180.0000771  1.0460000  2
  11924  11921  11920  11934     1  0.0000000  0.7531200  3
  11924  11921  11920  11942     1  0.0000000  0.6508444  3
  11924  11925  11926  11930     1  0.0000000  0.6508444  3
  11924  11925  11926  11942     1  0.0000000  0.6508444  3
  11925  11924  11921  11933     1  0.0000000  0.6508444  3
  11926  11925  11924  11932     1  0.0000000  0.6508444  3
  11926  11942  11920  11934     1  180.0000771  0.4184000  2
  11926  11942  11920  11934     1  0.0000000  1.6024720  3
  11930  11926  11925  11931     1  0.0000000  4.9162000  2
  11930  11926  11925  11931     1  0.0000000  0.6024960  3
  11931  11925  11924  11932     1  0.0000000  4.9162000  2
  11931  11925  11924  11932     1  0.0000000  0.6024960  3
  11931  11925  11926  11942     1  0.0000000  4.9162000  2
  11931  11925  11926  11942     1  0.0000000  0.6024960  3
  11932  11924  11921  11933     1  0.0000000  4.9162000  2
  11932  11924  11921  11933     1  0.0000000  0.6024960  3
  11933  11921  11920  11934     1  0.0000000  0.6508444  3
  11933  11921  11920  11942     1  0.0000000  4.9162000  2
  11933  11921  11920  11942     1  0.0000000  0.6024960  3
  11940  11934  11920  11942     1  0.0000000  4.9162000  2
  11940  11934  11920  11942     1  0.0000000  0.6024960  3
  11943  11944  11947  11948     1  180.0000771  0.8368000  1
  11943  11944  11947  11948     1  180.0000771  1.0460000  2
  11943  11944  11947  11948     1  0.0000000  0.7531200  3
  11943  11944  11947  11955     1  0.0000000  0.6508444  3
  11943  11965  11949  11953     1  180.0000771  5.6484000  1
  11943  11965  11949  11953     1  180.0000771  3.5564000  2
  11943  11965  11949  11953     1  0.0000000  0.4184000  3
  11943  11965  11949  11948     1  180.0000771  0.4184000  2
  11943  11965  11949  11948     1  0.0000000  1.6024720  3
  11944  11947  11948  11949     1  180.0000771  0.8368000  1
  11944  11947  11948  11949     1  180.0000771  1.0460000  2
  11944  11947  11948  11949     1  0.0000000  0.7531200  3
  11944  11947  11948  11954     1  0.0000000  0.6508444  3
  11944  11943  11957  11963     1  0.0000000  0.6508444  3
  11944  11943  11965  11949     1  180.0000771  0.4184000  2
  11944  11943  11965  11949     1  0.0000000  1.6024720  3
  11947  11948  11949  11953     1  0.0000000  0.6508444  3
  11947  11948  11949  11965     1  0.0000000  0.6508444  3
  11947  11944  11943  11957     1  180.0000771  0.8368000  1
  11947  11944  11943  11957     1  180.0000771  1.0460000  2
  11947  11944  11943  11957     1  0.0000000  0.7531200  3
  11947  11944  11943  11965     1  0.0000000  0.6508444  3
  11948  11947  11944  11956     1  0.0000000  0.6508444  3
  11949  11965  11943  11957     1  180.0000771  0.4184000  2
  11949  11965  11943  11957     1  0.0000000  1.6024720  3
  11949  11948  11947  11955     1  0.0000000  0.6508444  3
  11953  11949  11948  11954     1  0.0000000  4.9162000  2
  11953  11949  11948  11954     1  0.0000000  0.6024960  3
  11954  11948  11949  11965     1  0.0000000  4.9162000  2
  11954  11948  11949  11965     1  0.0000000  0.6024960  3
  11954  11948  11947  11955     1  0.0000000  4.9162000  2
  11954  11948  11947  11955     1  0.0000000  0.6024960  3
  11955  11947  11944  11956     1  0.0000000  4.9162000  2
  11955  11947  11944  11956     1  0.0000000  0.6024960  3
  11956  11944  11943  11957     1  0.0000000  0.6508444  3
  11956  11944  11943  11965     1  0.0000000  4.9162000  2
  11956  11944  11943  11965     1  0.0000000  0.6024960  3
  11963  11957  11943  11965     1  0.0000000  4.9162000  2
  11963  11957  11943  11965     1  0.0000000  0.6024960  3
  11966  11967  11970  11971     1  180.0000771  0.8368000  1
  11966  11967  11970  11971     1  180.0000771  1.0460000  2
  11966  11967  11970  11971     1  0.0000000  0.7531200  3
  11966  11967  11970  11978     1  0.0000000  0.6508444  3
  11966  11988  11972  11971     1  180.0000771  0.4184000  2
  11966  11988  11972  11971     1  0.0000000  1.6024720  3
  11966  11988  11972  11976     1  180.0000771  5.6484000  1
  11966  11988  11972  11976     1  180.0000771  3.5564000  2
  11966  11988  11972  11976     1  0.0000000  0.4184000  3
  11967  11966  11980  11986     1  0.0000000  0.6508444  3
  11967  11966  11988  11972     1  180.0000771  0.4184000  2
  11967  11966  11988  11972     1  0.0000000  1.6024720  3
  11967  11970  11971  11972     1  180.0000771  0.8368000  1
  11967  11970  11971  11972     1  180.0000771  1.0460000  2
  11967  11970  11971  11972     1  0.0000000  0.7531200  3
  11967  11970  11971  11977     1  0.0000000  0.6508444  3
  11970  11967  11966  11980     1  180.0000771  0.8368000  1
  11970  11967  11966  11980     1  180.0000771  1.0460000  2
  11970  11967  11966  11980     1  0.0000000  0.7531200  3
  11970  11967  11966  11988     1  0.0000000  0.6508444  3
  11970  11971  11972  11976     1  0.0000000  0.6508444  3
  11970  11971  11972  11988     1  0.0000000  0.6508444  3
  11971  11970  11967  11979     1  0.0000000  0.6508444  3
  11972  11971  11970  11978     1  0.0000000  0.6508444  3
  11972  11988  11966  11980     1  180.0000771  0.4184000  2
  11972  11988  11966  11980     1  0.0000000  1.6024720  3
  11976  11972  11971  11977     1  0.0000000  4.9162000  2
  11976  11972  11971  11977     1  0.0000000  0.6024960  3
  11977  11971  11970  11978     1  0.0000000  4.9162000  2
  11977  11971  11970  11978     1  0.0000000  0.6024960  3
  11977  11971  11972  11988     1  0.0000000  4.9162000  2
  11977  11971  11972  11988     1  0.0000000  0.6024960  3
  11978  11970  11967  11979     1  0.0000000  4.9162000  2
  11978  11970  11967  11979     1  0.0000000  0.6024960  3
  11979  11967  11966  11980     1  0.0000000  0.6508444  3
  11979  11967  11966  11988     1  0.0000000  4.9162000  2
  11979  11967  11966  11988     1  0.0000000  0.6024960  3
  11986  11980  11966  11988     1  0.0000000  4.9162000  2
  11986  11980  11966  11988     1  0.0000000  0.6024960  3
  11989  11990  11993  11994     1  180.0000771  0.8368000  1
  11989  11990  11993  11994     1  180.0000771  1.0460000  2
  11989  11990  11993  11994     1  0.0000000  0.7531200  3
  11989  11990  11993  12001     1  0.0000000  0.6508444  3
  11989  12011  11995  11999     1  180.0000771  5.6484000  1
  11989  12011  11995  11999     1  180.0000771  3.5564000  2
  11989  12011  11995  11999     1  0.0000000  0.4184000  3
  11989  12011  11995  11994     1  180.0000771  0.4184000  2
  11989  12011  11995  11994     1  0.0000000  1.6024720  3
  11990  11993  11994  11995     1  180.0000771  0.8368000  1
  11990  11993  11994  11995     1  180.0000771  1.0460000  2
  11990  11993  11994  11995     1  0.0000000  0.7531200  3
  11990  11993  11994  12000     1  0.0000000  0.6508444  3
  11990  11989  12003  12009     1  0.0000000  0.6508444  3
  11990  11989  12011  11995     1  180.0000771  0.4184000  2
  11990  11989  12011  11995     1  0.0000000  1.6024720  3
  11993  11994  11995  11999     1  0.0000000  0.6508444  3
  11993  11994  11995  12011     1  0.0000000  0.6508444  3
  11993  11990  11989  12003     1  180.0000771  0.8368000  1
  11993  11990  11989  12003     1  180.0000771  1.0460000  2
  11993  11990  11989  12003     1  0.0000000  0.7531200  3
  11993  11990  11989  12011     1  0.0000000  0.6508444  3
  11994  11993  11990  12002     1  0.0000000  0.6508444  3
  11995  12011  11989  12003     1  180.0000771  0.4184000  2
  11995  12011  11989  12003     1  0.0000000  1.6024720  3
  11995  11994  11993  12001     1  0.0000000  0.6508444  3
  11999  11995  11994  12000     1  0.0000000  4.9162000  2
  11999  11995  11994  12000     1  0.0000000  0.6024960  3
  12000  11994  11995  12011     1  0.0000000  4.9162000  2
  12000  11994  11995  12011     1  0.0000000  0.6024960  3
  12000  11994  11993  12001     1  0.0000000  4.9162000  2
  12000  11994  11993  12001     1  0.0000000  0.6024960  3
  12001  11993  11990  12002     1  0.0000000  4.9162000  2
  12001  11993  11990  12002     1  0.0000000  0.6024960  3
  12002  11990  11989  12003     1  0.0000000  0.6508444  3
  12002  11990  11989  12011     1  0.0000000  4.9162000  2
  12002  11990  11989  12011     1  0.0000000  0.6024960  3
  12009  12003  11989  12011     1  0.0000000  4.9162000  2
  12009  12003  11989  12011     1  0.0000000  0.6024960  3
  12012  12013  12016  12017     1  180.0000771  0.8368000  1
  12012  12013  12016  12017     1  180.0000771  1.0460000  2
  12012  12013  12016  12017     1  0.0000000  0.7531200  3
  12012  12013  12016  12024     1  0.0000000  0.6508444  3
  12012  12034  12018  12017     1  180.0000771  0.4184000  2
  12012  12034  12018  12017     1  0.0000000  1.6024720  3
  12012  12034  12018  12022     1  180.0000771  5.6484000  1
  12012  12034  12018  12022     1  180.0000771  3.5564000  2
  12012  12034  12018  12022     1  0.0000000  0.4184000  3
  12013  12012  12026  12032     1  0.0000000  0.6508444  3
  12013  12012  12034  12018     1  180.0000771  0.4184000  2
  12013  12012  12034  12018     1  0.0000000  1.6024720  3
  12013  12016  12017  12018     1  180.0000771  0.8368000  1
  12013  12016  12017  12018     1  180.0000771  1.0460000  2
  12013  12016  12017  12018     1  0.0000000  0.7531200  3
  12013  12016  12017  12023     1  0.0000000  0.6508444  3
  12016  12013  12012  12026     1  180.0000771  0.8368000  1
  12016  12013  12012  12026     1  180.0000771  1.0460000  2
  12016  12013  12012  12026     1  0.0000000  0.7531200  3
  12016  12013  12012  12034     1  0.0000000  0.6508444  3
  12016  12017  12018  12022     1  0.0000000  0.6508444  3
  12016  12017  12018  12034     1  0.0000000  0.6508444  3
  12017  12016  12013  12025     1  0.0000000  0.6508444  3
  12018  12017  12016  12024     1  0.0000000  0.6508444  3
  12018  12034  12012  12026     1  180.0000771  0.4184000  2
  12018  12034  12012  12026     1  0.0000000  1.6024720  3
  12022  12018  12017  12023     1  0.0000000  4.9162000  2
  12022  12018  12017  12023     1  0.0000000  0.6024960  3
  12023  12017  12016  12024     1  0.0000000  4.9162000  2
  12023  12017  12016  12024     1  0.0000000  0.6024960  3
  12023  12017  12018  12034     1  0.0000000  4.9162000  2
  12023  12017  12018  12034     1  0.0000000  0.6024960  3
  12024  12016  12013  12025     1  0.0000000  4.9162000  2
  12024  12016  12013  12025     1  0.0000000  0.6024960  3
  12025  12013  12012  12026     1  0.0000000  0.6508444  3
  12025  12013  12012  12034     1  0.0000000  4.9162000  2
  12025  12013  12012  12034     1  0.0000000  0.6024960  3
  12032  12026  12012  12034     1  0.0000000  4.9162000  2
  12032  12026  12012  12034     1  0.0000000  0.6024960  3
  12035  12036  12039  12040     1  180.0000771  0.8368000  1
  12035  12036  12039  12040     1  180.0000771  1.0460000  2
  12035  12036  12039  12040     1  0.0000000  0.7531200  3
  12035  12036  12039  12047     1  0.0000000  0.6508444  3
  12035  12057  12041  12045     1  180.0000771  5.6484000  1
  12035  12057  12041  12045     1  180.0000771  3.5564000  2
  12035  12057  12041  12045     1  0.0000000  0.4184000  3
  12035  12057  12041  12040     1  180.0000771  0.4184000  2
  12035  12057  12041  12040     1  0.0000000  1.6024720  3
  12036  12039  12040  12041     1  180.0000771  0.8368000  1
  12036  12039  12040  12041     1  180.0000771  1.0460000  2
  12036  12039  12040  12041     1  0.0000000  0.7531200  3
  12036  12039  12040  12046     1  0.0000000  0.6508444  3
  12036  12035  12049  12055     1  0.0000000  0.6508444  3
  12036  12035  12057  12041     1  180.0000771  0.4184000  2
  12036  12035  12057  12041     1  0.0000000  1.6024720  3
  12039  12040  12041  12045     1  0.0000000  0.6508444  3
  12039  12040  12041  12057     1  0.0000000  0.6508444  3
  12039  12036  12035  12049     1  180.0000771  0.8368000  1
  12039  12036  12035  12049     1  180.0000771  1.0460000  2
  12039  12036  12035  12049     1  0.0000000  0.7531200  3
  12039  12036  12035  12057     1  0.0000000  0.6508444  3
  12040  12039  12036  12048     1  0.0000000  0.6508444  3
  12041  12057  12035  12049     1  180.0000771  0.4184000  2
  12041  12057  12035  12049     1  0.0000000  1.6024720  3
  12041  12040  12039  12047     1  0.0000000  0.6508444  3
  12045  12041  12040  12046     1  0.0000000  4.9162000  2
  12045  12041  12040  12046     1  0.0000000  0.6024960  3
  12046  12040  12041  12057     1  0.0000000  4.9162000  2
  12046  12040  12041  12057     1  0.0000000  0.6024960  3
  12046  12040  12039  12047     1  0.0000000  4.9162000  2
  12046  12040  12039  12047     1  0.0000000  0.6024960  3
  12047  12039  12036  12048     1  0.0000000  4.9162000  2
  12047  12039  12036  12048     1  0.0000000  0.6024960  3
  12048  12036  12035  12049     1  0.0000000  0.6508444  3
  12048  12036  12035  12057     1  0.0000000  4.9162000  2
  12048  12036  12035  12057     1  0.0000000  0.6024960  3
  12055  12049  12035  12057     1  0.0000000  4.9162000  2
  12055  12049  12035  12057     1  0.0000000  0.6024960  3
  12058  12059  12062  12063     1  180.0000771  0.8368000  1
  12058  12059  12062  12063     1  180.0000771  1.0460000  2
  12058  12059  12062  12063     1  0.0000000  0.7531200  3
  12058  12059  12062  12070     1  0.0000000  0.6508444  3
  12058  12080  12064  12063     1  180.0000771  0.4184000  2
  12058  12080  12064  12063     1  0.0000000  1.6024720  3
  12058  12080  12064  12068     1  180.0000771  5.6484000  1
  12058  12080  12064  12068     1  180.0000771  3.5564000  2
  12058  12080  12064  12068     1  0.0000000  0.4184000  3
  12059  12058  12072  12078     1  0.0000000  0.6508444  3
  12059  12058  12080  12064     1  180.0000771  0.4184000  2
  12059  12058  12080  12064     1  0.0000000  1.6024720  3
  12059  12062  12063  12064     1  180.0000771  0.8368000  1
  12059  12062  12063  12064     1  180.0000771  1.0460000  2
  12059  12062  12063  12064     1  0.0000000  0.7531200  3
  12059  12062  12063  12069     1  0.0000000  0.6508444  3
  12062  12059  12058  12072     1  180.0000771  0.8368000  1
  12062  12059  12058  12072     1  180.0000771  1.0460000  2
  12062  12059  12058  12072     1  0.0000000  0.7531200  3
  12062  12059  12058  12080     1  0.0000000  0.6508444  3
  12062  12063  12064  12068     1  0.0000000  0.6508444  3
  12062  12063  12064  12080     1  0.0000000  0.6508444  3
  12063  12062  12059  12071     1  0.0000000  0.6508444  3
  12064  12063  12062  12070     1  0.0000000  0.6508444  3
  12064  12080  12058  12072     1  180.0000771  0.4184000  2
  12064  12080  12058  12072     1  0.0000000  1.6024720  3
  12068  12064  12063  12069     1  0.0000000  4.9162000  2
  12068  12064  12063  12069     1  0.0000000  0.6024960  3
  12069  12063  12062  12070     1  0.0000000  4.9162000  2
  12069  12063  12062  12070     1  0.0000000  0.6024960  3
  12069  12063  12064  12080     1  0.0000000  4.9162000  2
  12069  12063  12064  12080     1  0.0000000  0.6024960  3
  12070  12062  12059  12071     1  0.0000000  4.9162000  2
  12070  12062  12059  12071     1  0.0000000  0.6024960  3
  12071  12059  12058  12072     1  0.0000000  0.6508444  3
  12071  12059  12058  12080     1  0.0000000  4.9162000  2
  12071  12059  12058  12080     1  0.0000000  0.6024960  3
  12078  12072  12058  12080     1  0.0000000  4.9162000  2
  12078  12072  12058  12080     1  0.0000000  0.6024960  3
  12081  12082  12085  12086     1  180.0000771  0.8368000  1
  12081  12082  12085  12086     1  180.0000771  1.0460000  2
  12081  12082  12085  12086     1  0.0000000  0.7531200  3
  12081  12082  12085  12093     1  0.0000000  0.6508444  3
  12081  12103  12087  12091     1  180.0000771  5.6484000  1
  12081  12103  12087  12091     1  180.0000771  3.5564000  2
  12081  12103  12087  12091     1  0.0000000  0.4184000  3
  12081  12103  12087  12086     1  180.0000771  0.4184000  2
  12081  12103  12087  12086     1  0.0000000  1.6024720  3
  12082  12085  12086  12087     1  180.0000771  0.8368000  1
  12082  12085  12086  12087     1  180.0000771  1.0460000  2
  12082  12085  12086  12087     1  0.0000000  0.7531200  3
  12082  12085  12086  12092     1  0.0000000  0.6508444  3
  12082  12081  12095  12101     1  0.0000000  0.6508444  3
  12082  12081  12103  12087     1  180.0000771  0.4184000  2
  12082  12081  12103  12087     1  0.0000000  1.6024720  3
  12085  12086  12087  12091     1  0.0000000  0.6508444  3
  12085  12086  12087  12103     1  0.0000000  0.6508444  3
  12085  12082  12081  12095     1  180.0000771  0.8368000  1
  12085  12082  12081  12095     1  180.0000771  1.0460000  2
  12085  12082  12081  12095     1  0.0000000  0.7531200  3
  12085  12082  12081  12103     1  0.0000000  0.6508444  3
  12086  12085  12082  12094     1  0.0000000  0.6508444  3
  12087  12103  12081  12095     1  180.0000771  0.4184000  2
  12087  12103  12081  12095     1  0.0000000  1.6024720  3
  12087  12086  12085  12093     1  0.0000000  0.6508444  3
  12091  12087  12086  12092     1  0.0000000  4.9162000  2
  12091  12087  12086  12092     1  0.0000000  0.6024960  3
  12092  12086  12087  12103     1  0.0000000  4.9162000  2
  12092  12086  12087  12103     1  0.0000000  0.6024960  3
  12092  12086  12085  12093     1  0.0000000  4.9162000  2
  12092  12086  12085  12093     1  0.0000000  0.6024960  3
  12093  12085  12082  12094     1  0.0000000  4.9162000  2
  12093  12085  12082  12094     1  0.0000000  0.6024960  3
  12094  12082  12081  12095     1  0.0000000  0.6508444  3
  12094  12082  12081  12103     1  0.0000000  4.9162000  2
  12094  12082  12081  12103     1  0.0000000  0.6024960  3
  12101  12095  12081  12103     1  0.0000000  4.9162000  2
  12101  12095  12081  12103     1  0.0000000  0.6024960  3
  12104  12105  12108  12109     1  180.0000771  0.8368000  1
  12104  12105  12108  12109     1  180.0000771  1.0460000  2
  12104  12105  12108  12109     1  0.0000000  0.7531200  3
  12104  12105  12108  12116     1  0.0000000  0.6508444  3
  12104  12126  12110  12109     1  180.0000771  0.4184000  2
  12104  12126  12110  12109     1  0.0000000  1.6024720  3
  12104  12126  12110  12114     1  180.0000771  5.6484000  1
  12104  12126  12110  12114     1  180.0000771  3.5564000  2
  12104  12126  12110  12114     1  0.0000000  0.4184000  3
  12105  12104  12118  12124     1  0.0000000  0.6508444  3
  12105  12104  12126  12110     1  180.0000771  0.4184000  2
  12105  12104  12126  12110     1  0.0000000  1.6024720  3
  12105  12108  12109  12110     1  180.0000771  0.8368000  1
  12105  12108  12109  12110     1  180.0000771  1.0460000  2
  12105  12108  12109  12110     1  0.0000000  0.7531200  3
  12105  12108  12109  12115     1  0.0000000  0.6508444  3
  12108  12105  12104  12118     1  180.0000771  0.8368000  1
  12108  12105  12104  12118     1  180.0000771  1.0460000  2
  12108  12105  12104  12118     1  0.0000000  0.7531200  3
  12108  12105  12104  12126     1  0.0000000  0.6508444  3
  12108  12109  12110  12114     1  0.0000000  0.6508444  3
  12108  12109  12110  12126     1  0.0000000  0.6508444  3
  12109  12108  12105  12117     1  0.0000000  0.6508444  3
  12110  12109  12108  12116     1  0.0000000  0.6508444  3
  12110  12126  12104  12118     1  180.0000771  0.4184000  2
  12110  12126  12104  12118     1  0.0000000  1.6024720  3
  12114  12110  12109  12115     1  0.0000000  4.9162000  2
  12114  12110  12109  12115     1  0.0000000  0.6024960  3
  12115  12109  12108  12116     1  0.0000000  4.9162000  2
  12115  12109  12108  12116     1  0.0000000  0.6024960  3
  12115  12109  12110  12126     1  0.0000000  4.9162000  2
  12115  12109  12110  12126     1  0.0000000  0.6024960  3
  12116  12108  12105  12117     1  0.0000000  4.9162000  2
  12116  12108  12105  12117     1  0.0000000  0.6024960  3
  12117  12105  12104  12118     1  0.0000000  0.6508444  3
  12117  12105  12104  12126     1  0.0000000  4.9162000  2
  12117  12105  12104  12126     1  0.0000000  0.6024960  3
  12124  12118  12104  12126     1  0.0000000  4.9162000  2
  12124  12118  12104  12126     1  0.0000000  0.6024960  3
  12127  12128  12131  12132     1  180.0000771  0.8368000  1
  12127  12128  12131  12132     1  180.0000771  1.0460000  2
  12127  12128  12131  12132     1  0.0000000  0.7531200  3
  12127  12128  12131  12139     1  0.0000000  0.6508444  3
  12127  12149  12133  12137     1  180.0000771  5.6484000  1
  12127  12149  12133  12137     1  180.0000771  3.5564000  2
  12127  12149  12133  12137     1  0.0000000  0.4184000  3
  12127  12149  12133  12132     1  180.0000771  0.4184000  2
  12127  12149  12133  12132     1  0.0000000  1.6024720  3
  12128  12131  12132  12133     1  180.0000771  0.8368000  1
  12128  12131  12132  12133     1  180.0000771  1.0460000  2
  12128  12131  12132  12133     1  0.0000000  0.7531200  3
  12128  12131  12132  12138     1  0.0000000  0.6508444  3
  12128  12127  12141  12147     1  0.0000000  0.6508444  3
  12128  12127  12149  12133     1  180.0000771  0.4184000  2
  12128  12127  12149  12133     1  0.0000000  1.6024720  3
  12131  12132  12133  12137     1  0.0000000  0.6508444  3
  12131  12132  12133  12149     1  0.0000000  0.6508444  3
  12131  12128  12127  12141     1  180.0000771  0.8368000  1
  12131  12128  12127  12141     1  180.0000771  1.0460000  2
  12131  12128  12127  12141     1  0.0000000  0.7531200  3
  12131  12128  12127  12149     1  0.0000000  0.6508444  3
  12132  12131  12128  12140     1  0.0000000  0.6508444  3
  12133  12149  12127  12141     1  180.0000771  0.4184000  2
  12133  12149  12127  12141     1  0.0000000  1.6024720  3
  12133  12132  12131  12139     1  0.0000000  0.6508444  3
  12137  12133  12132  12138     1  0.0000000  4.9162000  2
  12137  12133  12132  12138     1  0.0000000  0.6024960  3
  12138  12132  12133  12149     1  0.0000000  4.9162000  2
  12138  12132  12133  12149     1  0.0000000  0.6024960  3
  12138  12132  12131  12139     1  0.0000000  4.9162000  2
  12138  12132  12131  12139     1  0.0000000  0.6024960  3
  12139  12131  12128  12140     1  0.0000000  4.9162000  2
  12139  12131  12128  12140     1  0.0000000  0.6024960  3
  12140  12128  12127  12141     1  0.0000000  0.6508444  3
  12140  12128  12127  12149     1  0.0000000  4.9162000  2
  12140  12128  12127  12149     1  0.0000000  0.6024960  3
  12147  12141  12127  12149     1  0.0000000  4.9162000  2
  12147  12141  12127  12149     1  0.0000000  0.6024960  3
  12150  12151  12154  12155     1  180.0000771  0.8368000  1
  12150  12151  12154  12155     1  180.0000771  1.0460000  2
  12150  12151  12154  12155     1  0.0000000  0.7531200  3
  12150  12151  12154  12162     1  0.0000000  0.6508444  3
  12150  12172  12156  12155     1  180.0000771  0.4184000  2
  12150  12172  12156  12155     1  0.0000000  1.6024720  3
  12150  12172  12156  12160     1  180.0000771  5.6484000  1
  12150  12172  12156  12160     1  180.0000771  3.5564000  2
  12150  12172  12156  12160     1  0.0000000  0.4184000  3
  12151  12150  12164  12170     1  0.0000000  0.6508444  3
  12151  12150  12172  12156     1  180.0000771  0.4184000  2
  12151  12150  12172  12156     1  0.0000000  1.6024720  3
  12151  12154  12155  12156     1  180.0000771  0.8368000  1
  12151  12154  12155  12156     1  180.0000771  1.0460000  2
  12151  12154  12155  12156     1  0.0000000  0.7531200  3
  12151  12154  12155  12161     1  0.0000000  0.6508444  3
  12154  12151  12150  12164     1  180.0000771  0.8368000  1
  12154  12151  12150  12164     1  180.0000771  1.0460000  2
  12154  12151  12150  12164     1  0.0000000  0.7531200  3
  12154  12151  12150  12172     1  0.0000000  0.6508444  3
  12154  12155  12156  12160     1  0.0000000  0.6508444  3
  12154  12155  12156  12172     1  0.0000000  0.6508444  3
  12155  12154  12151  12163     1  0.0000000  0.6508444  3
  12156  12155  12154  12162     1  0.0000000  0.6508444  3
  12156  12172  12150  12164     1  180.0000771  0.4184000  2
  12156  12172  12150  12164     1  0.0000000  1.6024720  3
  12160  12156  12155  12161     1  0.0000000  4.9162000  2
  12160  12156  12155  12161     1  0.0000000  0.6024960  3
  12161  12155  12154  12162     1  0.0000000  4.9162000  2
  12161  12155  12154  12162     1  0.0000000  0.6024960  3
  12161  12155  12156  12172     1  0.0000000  4.9162000  2
  12161  12155  12156  12172     1  0.0000000  0.6024960  3
  12162  12154  12151  12163     1  0.0000000  4.9162000  2
  12162  12154  12151  12163     1  0.0000000  0.6024960  3
  12163  12151  12150  12164     1  0.0000000  0.6508444  3
  12163  12151  12150  12172     1  0.0000000  4.9162000  2
  12163  12151  12150  12172     1  0.0000000  0.6024960  3
  12170  12164  12150  12172     1  0.0000000  4.9162000  2
  12170  12164  12150  12172     1  0.0000000  0.6024960  3
  12173  12174  12177  12178     1  180.0000771  0.8368000  1
  12173  12174  12177  12178     1  180.0000771  1.0460000  2
  12173  12174  12177  12178     1  0.0000000  0.7531200  3
  12173  12174  12177  12185     1  0.0000000  0.6508444  3
  12173  12195  12179  12183     1  180.0000771  5.6484000  1
  12173  12195  12179  12183     1  180.0000771  3.5564000  2
  12173  12195  12179  12183     1  0.0000000  0.4184000  3
  12173  12195  12179  12178     1  180.0000771  0.4184000  2
  12173  12195  12179  12178     1  0.0000000  1.6024720  3
  12174  12177  12178  12179     1  180.0000771  0.8368000  1
  12174  12177  12178  12179     1  180.0000771  1.0460000  2
  12174  12177  12178  12179     1  0.0000000  0.7531200  3
  12174  12177  12178  12184     1  0.0000000  0.6508444  3
  12174  12173  12187  12193     1  0.0000000  0.6508444  3
  12174  12173  12195  12179     1  180.0000771  0.4184000  2
  12174  12173  12195  12179     1  0.0000000  1.6024720  3
  12177  12178  12179  12183     1  0.0000000  0.6508444  3
  12177  12178  12179  12195     1  0.0000000  0.6508444  3
  12177  12174  12173  12187     1  180.0000771  0.8368000  1
  12177  12174  12173  12187     1  180.0000771  1.0460000  2
  12177  12174  12173  12187     1  0.0000000  0.7531200  3
  12177  12174  12173  12195     1  0.0000000  0.6508444  3
  12178  12177  12174  12186     1  0.0000000  0.6508444  3
  12179  12195  12173  12187     1  180.0000771  0.4184000  2
  12179  12195  12173  12187     1  0.0000000  1.6024720  3
  12179  12178  12177  12185     1  0.0000000  0.6508444  3
  12183  12179  12178  12184     1  0.0000000  4.9162000  2
  12183  12179  12178  12184     1  0.0000000  0.6024960  3
  12184  12178  12179  12195     1  0.0000000  4.9162000  2
  12184  12178  12179  12195     1  0.0000000  0.6024960  3
  12184  12178  12177  12185     1  0.0000000  4.9162000  2
  12184  12178  12177  12185     1  0.0000000  0.6024960  3
  12185  12177  12174  12186     1  0.0000000  4.9162000  2
  12185  12177  12174  12186     1  0.0000000  0.6024960  3
  12186  12174  12173  12187     1  0.0000000  0.6508444  3
  12186  12174  12173  12195     1  0.0000000  4.9162000  2
  12186  12174  12173  12195     1  0.0000000  0.6024960  3
  12193  12187  12173  12195     1  0.0000000  4.9162000  2
  12193  12187  12173  12195     1  0.0000000  0.6024960  3
  12196  12197  12200  12201     1  180.0000771  0.8368000  1
  12196  12197  12200  12201     1  180.0000771  1.0460000  2
  12196  12197  12200  12201     1  0.0000000  0.7531200  3
  12196  12197  12200  12208     1  0.0000000  0.6508444  3
  12196  12218  12202  12201     1  180.0000771  0.4184000  2
  12196  12218  12202  12201     1  0.0000000  1.6024720  3
  12196  12218  12202  12206     1  180.0000771  5.6484000  1
  12196  12218  12202  12206     1  180.0000771  3.5564000  2
  12196  12218  12202  12206     1  0.0000000  0.4184000  3
  12197  12196  12210  12216     1  0.0000000  0.6508444  3
  12197  12196  12218  12202     1  180.0000771  0.4184000  2
  12197  12196  12218  12202     1  0.0000000  1.6024720  3
  12197  12200  12201  12202     1  180.0000771  0.8368000  1
  12197  12200  12201  12202     1  180.0000771  1.0460000  2
  12197  12200  12201  12202     1  0.0000000  0.7531200  3
  12197  12200  12201  12207     1  0.0000000  0.6508444  3
  12200  12197  12196  12210     1  180.0000771  0.8368000  1
  12200  12197  12196  12210     1  180.0000771  1.0460000  2
  12200  12197  12196  12210     1  0.0000000  0.7531200  3
  12200  12197  12196  12218     1  0.0000000  0.6508444  3
  12200  12201  12202  12206     1  0.0000000  0.6508444  3
  12200  12201  12202  12218     1  0.0000000  0.6508444  3
  12201  12200  12197  12209     1  0.0000000  0.6508444  3
  12202  12201  12200  12208     1  0.0000000  0.6508444  3
  12202  12218  12196  12210     1  180.0000771  0.4184000  2
  12202  12218  12196  12210     1  0.0000000  1.6024720  3
  12206  12202  12201  12207     1  0.0000000  4.9162000  2
  12206  12202  12201  12207     1  0.0000000  0.6024960  3
  12207  12201  12200  12208     1  0.0000000  4.9162000  2
  12207  12201  12200  12208     1  0.0000000  0.6024960  3
  12207  12201  12202  12218     1  0.0000000  4.9162000  2
  12207  12201  12202  12218     1  0.0000000  0.6024960  3
  12208  12200  12197  12209     1  0.0000000  4.9162000  2
  12208  12200  12197  12209     1  0.0000000  0.6024960  3
  12209  12197  12196  12210     1  0.0000000  0.6508444  3
  12209  12197  12196  12218     1  0.0000000  4.9162000  2
  12209  12197  12196  12218     1  0.0000000  0.6024960  3
  12216  12210  12196  12218     1  0.0000000  4.9162000  2
  12216  12210  12196  12218     1  0.0000000  0.6024960  3
  12219  12220  12223  12224     1  180.0000771  0.8368000  1
  12219  12220  12223  12224     1  180.0000771  1.0460000  2
  12219  12220  12223  12224     1  0.0000000  0.7531200  3
  12219  12220  12223  12231     1  0.0000000  0.6508444  3
  12219  12241  12225  12229     1  180.0000771  5.6484000  1
  12219  12241  12225  12229     1  180.0000771  3.5564000  2
  12219  12241  12225  12229     1  0.0000000  0.4184000  3
  12219  12241  12225  12224     1  180.0000771  0.4184000  2
  12219  12241  12225  12224     1  0.0000000  1.6024720  3
  12220  12223  12224  12225     1  180.0000771  0.8368000  1
  12220  12223  12224  12225     1  180.0000771  1.0460000  2
  12220  12223  12224  12225     1  0.0000000  0.7531200  3
  12220  12223  12224  12230     1  0.0000000  0.6508444  3
  12220  12219  12233  12239     1  0.0000000  0.6508444  3
  12220  12219  12241  12225     1  180.0000771  0.4184000  2
  12220  12219  12241  12225     1  0.0000000  1.6024720  3
  12223  12224  12225  12229     1  0.0000000  0.6508444  3
  12223  12224  12225  12241     1  0.0000000  0.6508444  3
  12223  12220  12219  12233     1  180.0000771  0.8368000  1
  12223  12220  12219  12233     1  180.0000771  1.0460000  2
  12223  12220  12219  12233     1  0.0000000  0.7531200  3
  12223  12220  12219  12241     1  0.0000000  0.6508444  3
  12224  12223  12220  12232     1  0.0000000  0.6508444  3
  12225  12241  12219  12233     1  180.0000771  0.4184000  2
  12225  12241  12219  12233     1  0.0000000  1.6024720  3
  12225  12224  12223  12231     1  0.0000000  0.6508444  3
  12229  12225  12224  12230     1  0.0000000  4.9162000  2
  12229  12225  12224  12230     1  0.0000000  0.6024960  3
  12230  12224  12225  12241     1  0.0000000  4.9162000  2
  12230  12224  12225  12241     1  0.0000000  0.6024960  3
  12230  12224  12223  12231     1  0.0000000  4.9162000  2
  12230  12224  12223  12231     1  0.0000000  0.6024960  3
  12231  12223  12220  12232     1  0.0000000  4.9162000  2
  12231  12223  12220  12232     1  0.0000000  0.6024960  3
  12232  12220  12219  12233     1  0.0000000  0.6508444  3
  12232  12220  12219  12241     1  0.0000000  4.9162000  2
  12232  12220  12219  12241     1  0.0000000  0.6024960  3
  12239  12233  12219  12241     1  0.0000000  4.9162000  2
  12239  12233  12219  12241     1  0.0000000  0.6024960  3
  12242  12243  12246  12247     1  180.0000771  0.8368000  1
  12242  12243  12246  12247     1  180.0000771  1.0460000  2
  12242  12243  12246  12247     1  0.0000000  0.7531200  3
  12242  12243  12246  12254     1  0.0000000  0.6508444  3
  12242  12264  12248  12247     1  180.0000771  0.4184000  2
  12242  12264  12248  12247     1  0.0000000  1.6024720  3
  12242  12264  12248  12252     1  180.0000771  5.6484000  1
  12242  12264  12248  12252     1  180.0000771  3.5564000  2
  12242  12264  12248  12252     1  0.0000000  0.4184000  3
  12243  12242  12256  12262     1  0.0000000  0.6508444  3
  12243  12242  12264  12248     1  180.0000771  0.4184000  2
  12243  12242  12264  12248     1  0.0000000  1.6024720  3
  12243  12246  12247  12248     1  180.0000771  0.8368000  1
  12243  12246  12247  12248     1  180.0000771  1.0460000  2
  12243  12246  12247  12248     1  0.0000000  0.7531200  3
  12243  12246  12247  12253     1  0.0000000  0.6508444  3
  12246  12243  12242  12256     1  180.0000771  0.8368000  1
  12246  12243  12242  12256     1  180.0000771  1.0460000  2
  12246  12243  12242  12256     1  0.0000000  0.7531200  3
  12246  12243  12242  12264     1  0.0000000  0.6508444  3
  12246  12247  12248  12252     1  0.0000000  0.6508444  3
  12246  12247  12248  12264     1  0.0000000  0.6508444  3
  12247  12246  12243  12255     1  0.0000000  0.6508444  3
  12248  12247  12246  12254     1  0.0000000  0.6508444  3
  12248  12264  12242  12256     1  180.0000771  0.4184000  2
  12248  12264  12242  12256     1  0.0000000  1.6024720  3
  12252  12248  12247  12253     1  0.0000000  4.9162000  2
  12252  12248  12247  12253     1  0.0000000  0.6024960  3
  12253  12247  12246  12254     1  0.0000000  4.9162000  2
  12253  12247  12246  12254     1  0.0000000  0.6024960  3
  12253  12247  12248  12264     1  0.0000000  4.9162000  2
  12253  12247  12248  12264     1  0.0000000  0.6024960  3
  12254  12246  12243  12255     1  0.0000000  4.9162000  2
  12254  12246  12243  12255     1  0.0000000  0.6024960  3
  12255  12243  12242  12256     1  0.0000000  0.6508444  3
  12255  12243  12242  12264     1  0.0000000  4.9162000  2
  12255  12243  12242  12264     1  0.0000000  0.6024960  3
  12262  12256  12242  12264     1  0.0000000  4.9162000  2
  12262  12256  12242  12264     1  0.0000000  0.6024960  3
  12265  12266  12269  12270     1  180.0000771  0.8368000  1
  12265  12266  12269  12270     1  180.0000771  1.0460000  2
  12265  12266  12269  12270     1  0.0000000  0.7531200  3
  12265  12266  12269  12277     1  0.0000000  0.6508444  3
  12265  12287  12271  12275     1  180.0000771  5.6484000  1
  12265  12287  12271  12275     1  180.0000771  3.5564000  2
  12265  12287  12271  12275     1  0.0000000  0.4184000  3
  12265  12287  12271  12270     1  180.0000771  0.4184000  2
  12265  12287  12271  12270     1  0.0000000  1.6024720  3
  12266  12269  12270  12271     1  180.0000771  0.8368000  1
  12266  12269  12270  12271     1  180.0000771  1.0460000  2
  12266  12269  12270  12271     1  0.0000000  0.7531200  3
  12266  12269  12270  12276     1  0.0000000  0.6508444  3
  12266  12265  12279  12285     1  0.0000000  0.6508444  3
  12266  12265  12287  12271     1  180.0000771  0.4184000  2
  12266  12265  12287  12271     1  0.0000000  1.6024720  3
  12269  12270  12271  12275     1  0.0000000  0.6508444  3
  12269  12270  12271  12287     1  0.0000000  0.6508444  3
  12269  12266  12265  12279     1  180.0000771  0.8368000  1
  12269  12266  12265  12279     1  180.0000771  1.0460000  2
  12269  12266  12265  12279     1  0.0000000  0.7531200  3
  12269  12266  12265  12287     1  0.0000000  0.6508444  3
  12270  12269  12266  12278     1  0.0000000  0.6508444  3
  12271  12287  12265  12279     1  180.0000771  0.4184000  2
  12271  12287  12265  12279     1  0.0000000  1.6024720  3
  12271  12270  12269  12277     1  0.0000000  0.6508444  3
  12275  12271  12270  12276     1  0.0000000  4.9162000  2
  12275  12271  12270  12276     1  0.0000000  0.6024960  3
  12276  12270  12271  12287     1  0.0000000  4.9162000  2
  12276  12270  12271  12287     1  0.0000000  0.6024960  3
  12276  12270  12269  12277     1  0.0000000  4.9162000  2
  12276  12270  12269  12277     1  0.0000000  0.6024960  3
  12277  12269  12266  12278     1  0.0000000  4.9162000  2
  12277  12269  12266  12278     1  0.0000000  0.6024960  3
  12278  12266  12265  12279     1  0.0000000  0.6508444  3
  12278  12266  12265  12287     1  0.0000000  4.9162000  2
  12278  12266  12265  12287     1  0.0000000  0.6024960  3
  12285  12279  12265  12287     1  0.0000000  4.9162000  2
  12285  12279  12265  12287     1  0.0000000  0.6024960  3
  12288  12289  12292  12293     1  180.0000771  0.8368000  1
  12288  12289  12292  12293     1  180.0000771  1.0460000  2
  12288  12289  12292  12293     1  0.0000000  0.7531200  3
  12288  12289  12292  12300     1  0.0000000  0.6508444  3
  12288  12310  12294  12293     1  180.0000771  0.4184000  2
  12288  12310  12294  12293     1  0.0000000  1.6024720  3
  12288  12310  12294  12298     1  180.0000771  5.6484000  1
  12288  12310  12294  12298     1  180.0000771  3.5564000  2
  12288  12310  12294  12298     1  0.0000000  0.4184000  3
  12289  12288  12302  12308     1  0.0000000  0.6508444  3
  12289  12288  12310  12294     1  180.0000771  0.4184000  2
  12289  12288  12310  12294     1  0.0000000  1.6024720  3
  12289  12292  12293  12294     1  180.0000771  0.8368000  1
  12289  12292  12293  12294     1  180.0000771  1.0460000  2
  12289  12292  12293  12294     1  0.0000000  0.7531200  3
  12289  12292  12293  12299     1  0.0000000  0.6508444  3
  12292  12289  12288  12302     1  180.0000771  0.8368000  1
  12292  12289  12288  12302     1  180.0000771  1.0460000  2
  12292  12289  12288  12302     1  0.0000000  0.7531200  3
  12292  12289  12288  12310     1  0.0000000  0.6508444  3
  12292  12293  12294  12298     1  0.0000000  0.6508444  3
  12292  12293  12294  12310     1  0.0000000  0.6508444  3
  12293  12292  12289  12301     1  0.0000000  0.6508444  3
  12294  12293  12292  12300     1  0.0000000  0.6508444  3
  12294  12310  12288  12302     1  180.0000771  0.4184000  2
  12294  12310  12288  12302     1  0.0000000  1.6024720  3
  12298  12294  12293  12299     1  0.0000000  4.9162000  2
  12298  12294  12293  12299     1  0.0000000  0.6024960  3
  12299  12293  12292  12300     1  0.0000000  4.9162000  2
  12299  12293  12292  12300     1  0.0000000  0.6024960  3
  12299  12293  12294  12310     1  0.0000000  4.9162000  2
  12299  12293  12294  12310     1  0.0000000  0.6024960  3
  12300  12292  12289  12301     1  0.0000000  4.9162000  2
  12300  12292  12289  12301     1  0.0000000  0.6024960  3
  12301  12289  12288  12302     1  0.0000000  0.6508444  3
  12301  12289  12288  12310     1  0.0000000  4.9162000  2
  12301  12289  12288  12310     1  0.0000000  0.6024960  3
  12308  12302  12288  12310     1  0.0000000  4.9162000  2
  12308  12302  12288  12310     1  0.0000000  0.6024960  3
  12311  12312  12315  12316     1  180.0000771  0.8368000  1
  12311  12312  12315  12316     1  180.0000771  1.0460000  2
  12311  12312  12315  12316     1  0.0000000  0.7531200  3
  12311  12312  12315  12323     1  0.0000000  0.6508444  3
  12311  12333  12317  12321     1  180.0000771  5.6484000  1
  12311  12333  12317  12321     1  180.0000771  3.5564000  2
  12311  12333  12317  12321     1  0.0000000  0.4184000  3
  12311  12333  12317  12316     1  180.0000771  0.4184000  2
  12311  12333  12317  12316     1  0.0000000  1.6024720  3
  12312  12315  12316  12317     1  180.0000771  0.8368000  1
  12312  12315  12316  12317     1  180.0000771  1.0460000  2
  12312  12315  12316  12317     1  0.0000000  0.7531200  3
  12312  12315  12316  12322     1  0.0000000  0.6508444  3
  12312  12311  12325  12331     1  0.0000000  0.6508444  3
  12312  12311  12333  12317     1  180.0000771  0.4184000  2
  12312  12311  12333  12317     1  0.0000000  1.6024720  3
  12315  12316  12317  12321     1  0.0000000  0.6508444  3
  12315  12316  12317  12333     1  0.0000000  0.6508444  3
  12315  12312  12311  12325     1  180.0000771  0.8368000  1
  12315  12312  12311  12325     1  180.0000771  1.0460000  2
  12315  12312  12311  12325     1  0.0000000  0.7531200  3
  12315  12312  12311  12333     1  0.0000000  0.6508444  3
  12316  12315  12312  12324     1  0.0000000  0.6508444  3
  12317  12333  12311  12325     1  180.0000771  0.4184000  2
  12317  12333  12311  12325     1  0.0000000  1.6024720  3
  12317  12316  12315  12323     1  0.0000000  0.6508444  3
  12321  12317  12316  12322     1  0.0000000  4.9162000  2
  12321  12317  12316  12322     1  0.0000000  0.6024960  3
  12322  12316  12317  12333     1  0.0000000  4.9162000  2
  12322  12316  12317  12333     1  0.0000000  0.6024960  3
  12322  12316  12315  12323     1  0.0000000  4.9162000  2
  12322  12316  12315  12323     1  0.0000000  0.6024960  3
  12323  12315  12312  12324     1  0.0000000  4.9162000  2
  12323  12315  12312  12324     1  0.0000000  0.6024960  3
  12324  12312  12311  12325     1  0.0000000  0.6508444  3
  12324  12312  12311  12333     1  0.0000000  4.9162000  2
  12324  12312  12311  12333     1  0.0000000  0.6024960  3
  12331  12325  12311  12333     1  0.0000000  4.9162000  2
  12331  12325  12311  12333     1  0.0000000  0.6024960  3
  12334  12335  12338  12339     1  180.0000771  0.8368000  1
  12334  12335  12338  12339     1  180.0000771  1.0460000  2
  12334  12335  12338  12339     1  0.0000000  0.7531200  3
  12334  12335  12338  12346     1  0.0000000  0.6508444  3
  12334  12356  12340  12339     1  180.0000771  0.4184000  2
  12334  12356  12340  12339     1  0.0000000  1.6024720  3
  12334  12356  12340  12344     1  180.0000771  5.6484000  1
  12334  12356  12340  12344     1  180.0000771  3.5564000  2
  12334  12356  12340  12344     1  0.0000000  0.4184000  3
  12335  12334  12348  12354     1  0.0000000  0.6508444  3
  12335  12334  12356  12340     1  180.0000771  0.4184000  2
  12335  12334  12356  12340     1  0.0000000  1.6024720  3
  12335  12338  12339  12340     1  180.0000771  0.8368000  1
  12335  12338  12339  12340     1  180.0000771  1.0460000  2
  12335  12338  12339  12340     1  0.0000000  0.7531200  3
  12335  12338  12339  12345     1  0.0000000  0.6508444  3
  12338  12335  12334  12348     1  180.0000771  0.8368000  1
  12338  12335  12334  12348     1  180.0000771  1.0460000  2
  12338  12335  12334  12348     1  0.0000000  0.7531200  3
  12338  12335  12334  12356     1  0.0000000  0.6508444  3
  12338  12339  12340  12344     1  0.0000000  0.6508444  3
  12338  12339  12340  12356     1  0.0000000  0.6508444  3
  12339  12338  12335  12347     1  0.0000000  0.6508444  3
  12340  12339  12338  12346     1  0.0000000  0.6508444  3
  12340  12356  12334  12348     1  180.0000771  0.4184000  2
  12340  12356  12334  12348     1  0.0000000  1.6024720  3
  12344  12340  12339  12345     1  0.0000000  4.9162000  2
  12344  12340  12339  12345     1  0.0000000  0.6024960  3
  12345  12339  12338  12346     1  0.0000000  4.9162000  2
  12345  12339  12338  12346     1  0.0000000  0.6024960  3
  12345  12339  12340  12356     1  0.0000000  4.9162000  2
  12345  12339  12340  12356     1  0.0000000  0.6024960  3
  12346  12338  12335  12347     1  0.0000000  4.9162000  2
  12346  12338  12335  12347     1  0.0000000  0.6024960  3
  12347  12335  12334  12348     1  0.0000000  0.6508444  3
  12347  12335  12334  12356     1  0.0000000  4.9162000  2
  12347  12335  12334  12356     1  0.0000000  0.6024960  3
  12354  12348  12334  12356     1  0.0000000  4.9162000  2
  12354  12348  12334  12356     1  0.0000000  0.6024960  3
  12357  12358  12361  12362     1  180.0000771  0.8368000  1
  12357  12358  12361  12362     1  180.0000771  1.0460000  2
  12357  12358  12361  12362     1  0.0000000  0.7531200  3
  12357  12358  12361  12369     1  0.0000000  0.6508444  3
  12357  12379  12363  12367     1  180.0000771  5.6484000  1
  12357  12379  12363  12367     1  180.0000771  3.5564000  2
  12357  12379  12363  12367     1  0.0000000  0.4184000  3
  12357  12379  12363  12362     1  180.0000771  0.4184000  2
  12357  12379  12363  12362     1  0.0000000  1.6024720  3
  12358  12361  12362  12363     1  180.0000771  0.8368000  1
  12358  12361  12362  12363     1  180.0000771  1.0460000  2
  12358  12361  12362  12363     1  0.0000000  0.7531200  3
  12358  12361  12362  12368     1  0.0000000  0.6508444  3
  12358  12357  12371  12377     1  0.0000000  0.6508444  3
  12358  12357  12379  12363     1  180.0000771  0.4184000  2
  12358  12357  12379  12363     1  0.0000000  1.6024720  3
  12361  12362  12363  12367     1  0.0000000  0.6508444  3
  12361  12362  12363  12379     1  0.0000000  0.6508444  3
  12361  12358  12357  12371     1  180.0000771  0.8368000  1
  12361  12358  12357  12371     1  180.0000771  1.0460000  2
  12361  12358  12357  12371     1  0.0000000  0.7531200  3
  12361  12358  12357  12379     1  0.0000000  0.6508444  3
  12362  12361  12358  12370     1  0.0000000  0.6508444  3
  12363  12379  12357  12371     1  180.0000771  0.4184000  2
  12363  12379  12357  12371     1  0.0000000  1.6024720  3
  12363  12362  12361  12369     1  0.0000000  0.6508444  3
  12367  12363  12362  12368     1  0.0000000  4.9162000  2
  12367  12363  12362  12368     1  0.0000000  0.6024960  3
  12368  12362  12363  12379     1  0.0000000  4.9162000  2
  12368  12362  12363  12379     1  0.0000000  0.6024960  3
  12368  12362  12361  12369     1  0.0000000  4.9162000  2
  12368  12362  12361  12369     1  0.0000000  0.6024960  3
  12369  12361  12358  12370     1  0.0000000  4.9162000  2
  12369  12361  12358  12370     1  0.0000000  0.6024960  3
  12370  12358  12357  12371     1  0.0000000  0.6508444  3
  12370  12358  12357  12379     1  0.0000000  4.9162000  2
  12370  12358  12357  12379     1  0.0000000  0.6024960  3
  12377  12371  12357  12379     1  0.0000000  4.9162000  2
  12377  12371  12357  12379     1  0.0000000  0.6024960  3
  12380  12381  12384  12385     1  180.0000771  0.8368000  1
  12380  12381  12384  12385     1  180.0000771  1.0460000  2
  12380  12381  12384  12385     1  0.0000000  0.7531200  3
  12380  12381  12384  12392     1  0.0000000  0.6508444  3
  12380  12402  12386  12385     1  180.0000771  0.4184000  2
  12380  12402  12386  12385     1  0.0000000  1.6024720  3
  12380  12402  12386  12390     1  180.0000771  5.6484000  1
  12380  12402  12386  12390     1  180.0000771  3.5564000  2
  12380  12402  12386  12390     1  0.0000000  0.4184000  3
  12381  12380  12394  12400     1  0.0000000  0.6508444  3
  12381  12380  12402  12386     1  180.0000771  0.4184000  2
  12381  12380  12402  12386     1  0.0000000  1.6024720  3
  12381  12384  12385  12386     1  180.0000771  0.8368000  1
  12381  12384  12385  12386     1  180.0000771  1.0460000  2
  12381  12384  12385  12386     1  0.0000000  0.7531200  3
  12381  12384  12385  12391     1  0.0000000  0.6508444  3
  12384  12381  12380  12394     1  180.0000771  0.8368000  1
  12384  12381  12380  12394     1  180.0000771  1.0460000  2
  12384  12381  12380  12394     1  0.0000000  0.7531200  3
  12384  12381  12380  12402     1  0.0000000  0.6508444  3
  12384  12385  12386  12390     1  0.0000000  0.6508444  3
  12384  12385  12386  12402     1  0.0000000  0.6508444  3
  12385  12384  12381  12393     1  0.0000000  0.6508444  3
  12386  12385  12384  12392     1  0.0000000  0.6508444  3
  12386  12402  12380  12394     1  180.0000771  0.4184000  2
  12386  12402  12380  12394     1  0.0000000  1.6024720  3
  12390  12386  12385  12391     1  0.0000000  4.9162000  2
  12390  12386  12385  12391     1  0.0000000  0.6024960  3
  12391  12385  12384  12392     1  0.0000000  4.9162000  2
  12391  12385  12384  12392     1  0.0000000  0.6024960  3
  12391  12385  12386  12402     1  0.0000000  4.9162000  2
  12391  12385  12386  12402     1  0.0000000  0.6024960  3
  12392  12384  12381  12393     1  0.0000000  4.9162000  2
  12392  12384  12381  12393     1  0.0000000  0.6024960  3
  12393  12381  12380  12394     1  0.0000000  0.6508444  3
  12393  12381  12380  12402     1  0.0000000  4.9162000  2
  12393  12381  12380  12402     1  0.0000000  0.6024960  3
  12400  12394  12380  12402     1  0.0000000  4.9162000  2
  12400  12394  12380  12402     1  0.0000000  0.6024960  3
  12403  12404  12407  12408     1  180.0000771  0.8368000  1
  12403  12404  12407  12408     1  180.0000771  1.0460000  2
  12403  12404  12407  12408     1  0.0000000  0.7531200  3
  12403  12404  12407  12415     1  0.0000000  0.6508444  3
  12403  12425  12409  12413     1  180.0000771  5.6484000  1
  12403  12425  12409  12413     1  180.0000771  3.5564000  2
  12403  12425  12409  12413     1  0.0000000  0.4184000  3
  12403  12425  12409  12408     1  180.0000771  0.4184000  2
  12403  12425  12409  12408     1  0.0000000  1.6024720  3
  12404  12407  12408  12409     1  180.0000771  0.8368000  1
  12404  12407  12408  12409     1  180.0000771  1.0460000  2
  12404  12407  12408  12409     1  0.0000000  0.7531200  3
  12404  12407  12408  12414     1  0.0000000  0.6508444  3
  12404  12403  12417  12423     1  0.0000000  0.6508444  3
  12404  12403  12425  12409     1  180.0000771  0.4184000  2
  12404  12403  12425  12409     1  0.0000000  1.6024720  3
  12407  12408  12409  12413     1  0.0000000  0.6508444  3
  12407  12408  12409  12425     1  0.0000000  0.6508444  3
  12407  12404  12403  12417     1  180.0000771  0.8368000  1
  12407  12404  12403  12417     1  180.0000771  1.0460000  2
  12407  12404  12403  12417     1  0.0000000  0.7531200  3
  12407  12404  12403  12425     1  0.0000000  0.6508444  3
  12408  12407  12404  12416     1  0.0000000  0.6508444  3
  12409  12425  12403  12417     1  180.0000771  0.4184000  2
  12409  12425  12403  12417     1  0.0000000  1.6024720  3
  12409  12408  12407  12415     1  0.0000000  0.6508444  3
  12413  12409  12408  12414     1  0.0000000  4.9162000  2
  12413  12409  12408  12414     1  0.0000000  0.6024960  3
  12414  12408  12409  12425     1  0.0000000  4.9162000  2
  12414  12408  12409  12425     1  0.0000000  0.6024960  3
  12414  12408  12407  12415     1  0.0000000  4.9162000  2
  12414  12408  12407  12415     1  0.0000000  0.6024960  3
  12415  12407  12404  12416     1  0.0000000  4.9162000  2
  12415  12407  12404  12416     1  0.0000000  0.6024960  3
  12416  12404  12403  12417     1  0.0000000  0.6508444  3
  12416  12404  12403  12425     1  0.0000000  4.9162000  2
  12416  12404  12403  12425     1  0.0000000  0.6024960  3
  12423  12417  12403  12425     1  0.0000000  4.9162000  2
  12423  12417  12403  12425     1  0.0000000  0.6024960  3
  12426  12427  12430  12431     1  180.0000771  0.8368000  1
  12426  12427  12430  12431     1  180.0000771  1.0460000  2
  12426  12427  12430  12431     1  0.0000000  0.7531200  3
  12426  12427  12430  12438     1  0.0000000  0.6508444  3
  12426  12448  12432  12431     1  180.0000771  0.4184000  2
  12426  12448  12432  12431     1  0.0000000  1.6024720  3
  12426  12448  12432  12436     1  180.0000771  5.6484000  1
  12426  12448  12432  12436     1  180.0000771  3.5564000  2
  12426  12448  12432  12436     1  0.0000000  0.4184000  3
  12427  12426  12440  12446     1  0.0000000  0.6508444  3
  12427  12426  12448  12432     1  180.0000771  0.4184000  2
  12427  12426  12448  12432     1  0.0000000  1.6024720  3
  12427  12430  12431  12432     1  180.0000771  0.8368000  1
  12427  12430  12431  12432     1  180.0000771  1.0460000  2
  12427  12430  12431  12432     1  0.0000000  0.7531200  3
  12427  12430  12431  12437     1  0.0000000  0.6508444  3
  12430  12427  12426  12440     1  180.0000771  0.8368000  1
  12430  12427  12426  12440     1  180.0000771  1.0460000  2
  12430  12427  12426  12440     1  0.0000000  0.7531200  3
  12430  12427  12426  12448     1  0.0000000  0.6508444  3
  12430  12431  12432  12436     1  0.0000000  0.6508444  3
  12430  12431  12432  12448     1  0.0000000  0.6508444  3
  12431  12430  12427  12439     1  0.0000000  0.6508444  3
  12432  12431  12430  12438     1  0.0000000  0.6508444  3
  12432  12448  12426  12440     1  180.0000771  0.4184000  2
  12432  12448  12426  12440     1  0.0000000  1.6024720  3
  12436  12432  12431  12437     1  0.0000000  4.9162000  2
  12436  12432  12431  12437     1  0.0000000  0.6024960  3
  12437  12431  12430  12438     1  0.0000000  4.9162000  2
  12437  12431  12430  12438     1  0.0000000  0.6024960  3
  12437  12431  12432  12448     1  0.0000000  4.9162000  2
  12437  12431  12432  12448     1  0.0000000  0.6024960  3
  12438  12430  12427  12439     1  0.0000000  4.9162000  2
  12438  12430  12427  12439     1  0.0000000  0.6024960  3
  12439  12427  12426  12440     1  0.0000000  0.6508444  3
  12439  12427  12426  12448     1  0.0000000  4.9162000  2
  12439  12427  12426  12448     1  0.0000000  0.6024960  3
  12446  12440  12426  12448     1  0.0000000  4.9162000  2
  12446  12440  12426  12448     1  0.0000000  0.6024960  3
  12449  12450  12453  12454     1  180.0000771  0.8368000  1
  12449  12450  12453  12454     1  180.0000771  1.0460000  2
  12449  12450  12453  12454     1  0.0000000  0.7531200  3
  12449  12450  12453  12461     1  0.0000000  0.6508444  3
  12449  12471  12455  12459     1  180.0000771  5.6484000  1
  12449  12471  12455  12459     1  180.0000771  3.5564000  2
  12449  12471  12455  12459     1  0.0000000  0.4184000  3
  12449  12471  12455  12454     1  180.0000771  0.4184000  2
  12449  12471  12455  12454     1  0.0000000  1.6024720  3
  12450  12453  12454  12455     1  180.0000771  0.8368000  1
  12450  12453  12454  12455     1  180.0000771  1.0460000  2
  12450  12453  12454  12455     1  0.0000000  0.7531200  3
  12450  12453  12454  12460     1  0.0000000  0.6508444  3
  12450  12449  12463  12469     1  0.0000000  0.6508444  3
  12450  12449  12471  12455     1  180.0000771  0.4184000  2
  12450  12449  12471  12455     1  0.0000000  1.6024720  3
  12453  12454  12455  12459     1  0.0000000  0.6508444  3
  12453  12454  12455  12471     1  0.0000000  0.6508444  3
  12453  12450  12449  12463     1  180.0000771  0.8368000  1
  12453  12450  12449  12463     1  180.0000771  1.0460000  2
  12453  12450  12449  12463     1  0.0000000  0.7531200  3
  12453  12450  12449  12471     1  0.0000000  0.6508444  3
  12454  12453  12450  12462     1  0.0000000  0.6508444  3
  12455  12471  12449  12463     1  180.0000771  0.4184000  2
  12455  12471  12449  12463     1  0.0000000  1.6024720  3
  12455  12454  12453  12461     1  0.0000000  0.6508444  3
  12459  12455  12454  12460     1  0.0000000  4.9162000  2
  12459  12455  12454  12460     1  0.0000000  0.6024960  3
  12460  12454  12455  12471     1  0.0000000  4.9162000  2
  12460  12454  12455  12471     1  0.0000000  0.6024960  3
  12460  12454  12453  12461     1  0.0000000  4.9162000  2
  12460  12454  12453  12461     1  0.0000000  0.6024960  3
  12461  12453  12450  12462     1  0.0000000  4.9162000  2
  12461  12453  12450  12462     1  0.0000000  0.6024960  3
  12462  12450  12449  12463     1  0.0000000  0.6508444  3
  12462  12450  12449  12471     1  0.0000000  4.9162000  2
  12462  12450  12449  12471     1  0.0000000  0.6024960  3
  12469  12463  12449  12471     1  0.0000000  4.9162000  2
  12469  12463  12449  12471     1  0.0000000  0.6024960  3
  12472  12473  12476  12477     1  180.0000771  0.8368000  1
  12472  12473  12476  12477     1  180.0000771  1.0460000  2
  12472  12473  12476  12477     1  0.0000000  0.7531200  3
  12472  12473  12476  12484     1  0.0000000  0.6508444  3
  12472  12494  12478  12477     1  180.0000771  0.4184000  2
  12472  12494  12478  12477     1  0.0000000  1.6024720  3
  12472  12494  12478  12482     1  180.0000771  5.6484000  1
  12472  12494  12478  12482     1  180.0000771  3.5564000  2
  12472  12494  12478  12482     1  0.0000000  0.4184000  3
  12473  12472  12486  12492     1  0.0000000  0.6508444  3
  12473  12472  12494  12478     1  180.0000771  0.4184000  2
  12473  12472  12494  12478     1  0.0000000  1.6024720  3
  12473  12476  12477  12478     1  180.0000771  0.8368000  1
  12473  12476  12477  12478     1  180.0000771  1.0460000  2
  12473  12476  12477  12478     1  0.0000000  0.7531200  3
  12473  12476  12477  12483     1  0.0000000  0.6508444  3
  12476  12473  12472  12486     1  180.0000771  0.8368000  1
  12476  12473  12472  12486     1  180.0000771  1.0460000  2
  12476  12473  12472  12486     1  0.0000000  0.7531200  3
  12476  12473  12472  12494     1  0.0000000  0.6508444  3
  12476  12477  12478  12482     1  0.0000000  0.6508444  3
  12476  12477  12478  12494     1  0.0000000  0.6508444  3
  12477  12476  12473  12485     1  0.0000000  0.6508444  3
  12478  12477  12476  12484     1  0.0000000  0.6508444  3
  12478  12494  12472  12486     1  180.0000771  0.4184000  2
  12478  12494  12472  12486     1  0.0000000  1.6024720  3
  12482  12478  12477  12483     1  0.0000000  4.9162000  2
  12482  12478  12477  12483     1  0.0000000  0.6024960  3
  12483  12477  12476  12484     1  0.0000000  4.9162000  2
  12483  12477  12476  12484     1  0.0000000  0.6024960  3
  12483  12477  12478  12494     1  0.0000000  4.9162000  2
  12483  12477  12478  12494     1  0.0000000  0.6024960  3
  12484  12476  12473  12485     1  0.0000000  4.9162000  2
  12484  12476  12473  12485     1  0.0000000  0.6024960  3
  12485  12473  12472  12486     1  0.0000000  0.6508444  3
  12485  12473  12472  12494     1  0.0000000  4.9162000  2
  12485  12473  12472  12494     1  0.0000000  0.6024960  3
  12492  12486  12472  12494     1  0.0000000  4.9162000  2
  12492  12486  12472  12494     1  0.0000000  0.6024960  3
  12495  12496  12499  12500     1  180.0000771  0.8368000  1
  12495  12496  12499  12500     1  180.0000771  1.0460000  2
  12495  12496  12499  12500     1  0.0000000  0.7531200  3
  12495  12496  12499  12507     1  0.0000000  0.6508444  3
  12495  12517  12501  12505     1  180.0000771  5.6484000  1
  12495  12517  12501  12505     1  180.0000771  3.5564000  2
  12495  12517  12501  12505     1  0.0000000  0.4184000  3
  12495  12517  12501  12500     1  180.0000771  0.4184000  2
  12495  12517  12501  12500     1  0.0000000  1.6024720  3
  12496  12499  12500  12501     1  180.0000771  0.8368000  1
  12496  12499  12500  12501     1  180.0000771  1.0460000  2
  12496  12499  12500  12501     1  0.0000000  0.7531200  3
  12496  12499  12500  12506     1  0.0000000  0.6508444  3
  12496  12495  12509  12515     1  0.0000000  0.6508444  3
  12496  12495  12517  12501     1  180.0000771  0.4184000  2
  12496  12495  12517  12501     1  0.0000000  1.6024720  3
  12499  12500  12501  12505     1  0.0000000  0.6508444  3
  12499  12500  12501  12517     1  0.0000000  0.6508444  3
  12499  12496  12495  12509     1  180.0000771  0.8368000  1
  12499  12496  12495  12509     1  180.0000771  1.0460000  2
  12499  12496  12495  12509     1  0.0000000  0.7531200  3
  12499  12496  12495  12517     1  0.0000000  0.6508444  3
  12500  12499  12496  12508     1  0.0000000  0.6508444  3
  12501  12517  12495  12509     1  180.0000771  0.4184000  2
  12501  12517  12495  12509     1  0.0000000  1.6024720  3
  12501  12500  12499  12507     1  0.0000000  0.6508444  3
  12505  12501  12500  12506     1  0.0000000  4.9162000  2
  12505  12501  12500  12506     1  0.0000000  0.6024960  3
  12506  12500  12501  12517     1  0.0000000  4.9162000  2
  12506  12500  12501  12517     1  0.0000000  0.6024960  3
  12506  12500  12499  12507     1  0.0000000  4.9162000  2
  12506  12500  12499  12507     1  0.0000000  0.6024960  3
  12507  12499  12496  12508     1  0.0000000  4.9162000  2
  12507  12499  12496  12508     1  0.0000000  0.6024960  3
  12508  12496  12495  12509     1  0.0000000  0.6508444  3
  12508  12496  12495  12517     1  0.0000000  4.9162000  2
  12508  12496  12495  12517     1  0.0000000  0.6024960  3
  12515  12509  12495  12517     1  0.0000000  4.9162000  2
  12515  12509  12495  12517     1  0.0000000  0.6024960  3
  12518  12519  12522  12523     1  180.0000771  0.8368000  1
  12518  12519  12522  12523     1  180.0000771  1.0460000  2
  12518  12519  12522  12523     1  0.0000000  0.7531200  3
  12518  12519  12522  12530     1  0.0000000  0.6508444  3
  12518  12540  12524  12523     1  180.0000771  0.4184000  2
  12518  12540  12524  12523     1  0.0000000  1.6024720  3
  12518  12540  12524  12528     1  180.0000771  5.6484000  1
  12518  12540  12524  12528     1  180.0000771  3.5564000  2
  12518  12540  12524  12528     1  0.0000000  0.4184000  3
  12519  12518  12532  12538     1  0.0000000  0.6508444  3
  12519  12518  12540  12524     1  180.0000771  0.4184000  2
  12519  12518  12540  12524     1  0.0000000  1.6024720  3
  12519  12522  12523  12524     1  180.0000771  0.8368000  1
  12519  12522  12523  12524     1  180.0000771  1.0460000  2
  12519  12522  12523  12524     1  0.0000000  0.7531200  3
  12519  12522  12523  12529     1  0.0000000  0.6508444  3
  12522  12519  12518  12532     1  180.0000771  0.8368000  1
  12522  12519  12518  12532     1  180.0000771  1.0460000  2
  12522  12519  12518  12532     1  0.0000000  0.7531200  3
  12522  12519  12518  12540     1  0.0000000  0.6508444  3
  12522  12523  12524  12528     1  0.0000000  0.6508444  3
  12522  12523  12524  12540     1  0.0000000  0.6508444  3
  12523  12522  12519  12531     1  0.0000000  0.6508444  3
  12524  12523  12522  12530     1  0.0000000  0.6508444  3
  12524  12540  12518  12532     1  180.0000771  0.4184000  2
  12524  12540  12518  12532     1  0.0000000  1.6024720  3
  12528  12524  12523  12529     1  0.0000000  4.9162000  2
  12528  12524  12523  12529     1  0.0000000  0.6024960  3
  12529  12523  12522  12530     1  0.0000000  4.9162000  2
  12529  12523  12522  12530     1  0.0000000  0.6024960  3
  12529  12523  12524  12540     1  0.0000000  4.9162000  2
  12529  12523  12524  12540     1  0.0000000  0.6024960  3
  12530  12522  12519  12531     1  0.0000000  4.9162000  2
  12530  12522  12519  12531     1  0.0000000  0.6024960  3
  12531  12519  12518  12532     1  0.0000000  0.6508444  3
  12531  12519  12518  12540     1  0.0000000  4.9162000  2
  12531  12519  12518  12540     1  0.0000000  0.6024960  3
  12538  12532  12518  12540     1  0.0000000  4.9162000  2
  12538  12532  12518  12540     1  0.0000000  0.6024960  3
  12541  12542  12545  12546     1  180.0000771  0.8368000  1
  12541  12542  12545  12546     1  180.0000771  1.0460000  2
  12541  12542  12545  12546     1  0.0000000  0.7531200  3
  12541  12542  12545  12553     1  0.0000000  0.6508444  3
  12541  12563  12547  12551     1  180.0000771  5.6484000  1
  12541  12563  12547  12551     1  180.0000771  3.5564000  2
  12541  12563  12547  12551     1  0.0000000  0.4184000  3
  12541  12563  12547  12546     1  180.0000771  0.4184000  2
  12541  12563  12547  12546     1  0.0000000  1.6024720  3
  12542  12545  12546  12547     1  180.0000771  0.8368000  1
  12542  12545  12546  12547     1  180.0000771  1.0460000  2
  12542  12545  12546  12547     1  0.0000000  0.7531200  3
  12542  12545  12546  12552     1  0.0000000  0.6508444  3
  12542  12541  12555  12561     1  0.0000000  0.6508444  3
  12542  12541  12563  12547     1  180.0000771  0.4184000  2
  12542  12541  12563  12547     1  0.0000000  1.6024720  3
  12545  12546  12547  12551     1  0.0000000  0.6508444  3
  12545  12546  12547  12563     1  0.0000000  0.6508444  3
  12545  12542  12541  12555     1  180.0000771  0.8368000  1
  12545  12542  12541  12555     1  180.0000771  1.0460000  2
  12545  12542  12541  12555     1  0.0000000  0.7531200  3
  12545  12542  12541  12563     1  0.0000000  0.6508444  3
  12546  12545  12542  12554     1  0.0000000  0.6508444  3
  12547  12563  12541  12555     1  180.0000771  0.4184000  2
  12547  12563  12541  12555     1  0.0000000  1.6024720  3
  12547  12546  12545  12553     1  0.0000000  0.6508444  3
  12551  12547  12546  12552     1  0.0000000  4.9162000  2
  12551  12547  12546  12552     1  0.0000000  0.6024960  3
  12552  12546  12547  12563     1  0.0000000  4.9162000  2
  12552  12546  12547  12563     1  0.0000000  0.6024960  3
  12552  12546  12545  12553     1  0.0000000  4.9162000  2
  12552  12546  12545  12553     1  0.0000000  0.6024960  3
  12553  12545  12542  12554     1  0.0000000  4.9162000  2
  12553  12545  12542  12554     1  0.0000000  0.6024960  3
  12554  12542  12541  12555     1  0.0000000  0.6508444  3
  12554  12542  12541  12563     1  0.0000000  4.9162000  2
  12554  12542  12541  12563     1  0.0000000  0.6024960  3
  12561  12555  12541  12563     1  0.0000000  4.9162000  2
  12561  12555  12541  12563     1  0.0000000  0.6024960  3
  12564  12565  12568  12569     1  180.0000771  0.8368000  1
  12564  12565  12568  12569     1  180.0000771  1.0460000  2
  12564  12565  12568  12569     1  0.0000000  0.7531200  3
  12564  12565  12568  12576     1  0.0000000  0.6508444  3
  12564  12586  12570  12569     1  180.0000771  0.4184000  2
  12564  12586  12570  12569     1  0.0000000  1.6024720  3
  12564  12586  12570  12574     1  180.0000771  5.6484000  1
  12564  12586  12570  12574     1  180.0000771  3.5564000  2
  12564  12586  12570  12574     1  0.0000000  0.4184000  3
  12565  12564  12578  12584     1  0.0000000  0.6508444  3
  12565  12564  12586  12570     1  180.0000771  0.4184000  2
  12565  12564  12586  12570     1  0.0000000  1.6024720  3
  12565  12568  12569  12570     1  180.0000771  0.8368000  1
  12565  12568  12569  12570     1  180.0000771  1.0460000  2
  12565  12568  12569  12570     1  0.0000000  0.7531200  3
  12565  12568  12569  12575     1  0.0000000  0.6508444  3
  12568  12565  12564  12578     1  180.0000771  0.8368000  1
  12568  12565  12564  12578     1  180.0000771  1.0460000  2
  12568  12565  12564  12578     1  0.0000000  0.7531200  3
  12568  12565  12564  12586     1  0.0000000  0.6508444  3
  12568  12569  12570  12574     1  0.0000000  0.6508444  3
  12568  12569  12570  12586     1  0.0000000  0.6508444  3
  12569  12568  12565  12577     1  0.0000000  0.6508444  3
  12570  12569  12568  12576     1  0.0000000  0.6508444  3
  12570  12586  12564  12578     1  180.0000771  0.4184000  2
  12570  12586  12564  12578     1  0.0000000  1.6024720  3
  12574  12570  12569  12575     1  0.0000000  4.9162000  2
  12574  12570  12569  12575     1  0.0000000  0.6024960  3
  12575  12569  12568  12576     1  0.0000000  4.9162000  2
  12575  12569  12568  12576     1  0.0000000  0.6024960  3
  12575  12569  12570  12586     1  0.0000000  4.9162000  2
  12575  12569  12570  12586     1  0.0000000  0.6024960  3
  12576  12568  12565  12577     1  0.0000000  4.9162000  2
  12576  12568  12565  12577     1  0.0000000  0.6024960  3
  12577  12565  12564  12578     1  0.0000000  0.6508444  3
  12577  12565  12564  12586     1  0.0000000  4.9162000  2
  12577  12565  12564  12586     1  0.0000000  0.6024960  3
  12584  12578  12564  12586     1  0.0000000  4.9162000  2
  12584  12578  12564  12586     1  0.0000000  0.6024960  3
  12587  12588  12591  12592     1  180.0000771  0.8368000  1
  12587  12588  12591  12592     1  180.0000771  1.0460000  2
  12587  12588  12591  12592     1  0.0000000  0.7531200  3
  12587  12588  12591  12599     1  0.0000000  0.6508444  3
  12587  12609  12593  12597     1  180.0000771  5.6484000  1
  12587  12609  12593  12597     1  180.0000771  3.5564000  2
  12587  12609  12593  12597     1  0.0000000  0.4184000  3
  12587  12609  12593  12592     1  180.0000771  0.4184000  2
  12587  12609  12593  12592     1  0.0000000  1.6024720  3
  12588  12591  12592  12593     1  180.0000771  0.8368000  1
  12588  12591  12592  12593     1  180.0000771  1.0460000  2
  12588  12591  12592  12593     1  0.0000000  0.7531200  3
  12588  12591  12592  12598     1  0.0000000  0.6508444  3
  12588  12587  12601  12607     1  0.0000000  0.6508444  3
  12588  12587  12609  12593     1  180.0000771  0.4184000  2
  12588  12587  12609  12593     1  0.0000000  1.6024720  3
  12591  12592  12593  12597     1  0.0000000  0.6508444  3
  12591  12592  12593  12609     1  0.0000000  0.6508444  3
  12591  12588  12587  12601     1  180.0000771  0.8368000  1
  12591  12588  12587  12601     1  180.0000771  1.0460000  2
  12591  12588  12587  12601     1  0.0000000  0.7531200  3
  12591  12588  12587  12609     1  0.0000000  0.6508444  3
  12592  12591  12588  12600     1  0.0000000  0.6508444  3
  12593  12609  12587  12601     1  180.0000771  0.4184000  2
  12593  12609  12587  12601     1  0.0000000  1.6024720  3
  12593  12592  12591  12599     1  0.0000000  0.6508444  3
  12597  12593  12592  12598     1  0.0000000  4.9162000  2
  12597  12593  12592  12598     1  0.0000000  0.6024960  3
  12598  12592  12593  12609     1  0.0000000  4.9162000  2
  12598  12592  12593  12609     1  0.0000000  0.6024960  3
  12598  12592  12591  12599     1  0.0000000  4.9162000  2
  12598  12592  12591  12599     1  0.0000000  0.6024960  3
  12599  12591  12588  12600     1  0.0000000  4.9162000  2
  12599  12591  12588  12600     1  0.0000000  0.6024960  3
  12600  12588  12587  12601     1  0.0000000  0.6508444  3
  12600  12588  12587  12609     1  0.0000000  4.9162000  2
  12600  12588  12587  12609     1  0.0000000  0.6024960  3
  12607  12601  12587  12609     1  0.0000000  4.9162000  2
  12607  12601  12587  12609     1  0.0000000  0.6024960  3
  12610  12611  12614  12615     1  180.0000771  0.8368000  1
  12610  12611  12614  12615     1  180.0000771  1.0460000  2
  12610  12611  12614  12615     1  0.0000000  0.7531200  3
  12610  12611  12614  12622     1  0.0000000  0.6508444  3
  12610  12632  12616  12615     1  180.0000771  0.4184000  2
  12610  12632  12616  12615     1  0.0000000  1.6024720  3
  12610  12632  12616  12620     1  180.0000771  5.6484000  1
  12610  12632  12616  12620     1  180.0000771  3.5564000  2
  12610  12632  12616  12620     1  0.0000000  0.4184000  3
  12611  12610  12624  12630     1  0.0000000  0.6508444  3
  12611  12610  12632  12616     1  180.0000771  0.4184000  2
  12611  12610  12632  12616     1  0.0000000  1.6024720  3
  12611  12614  12615  12616     1  180.0000771  0.8368000  1
  12611  12614  12615  12616     1  180.0000771  1.0460000  2
  12611  12614  12615  12616     1  0.0000000  0.7531200  3
  12611  12614  12615  12621     1  0.0000000  0.6508444  3
  12614  12611  12610  12624     1  180.0000771  0.8368000  1
  12614  12611  12610  12624     1  180.0000771  1.0460000  2
  12614  12611  12610  12624     1  0.0000000  0.7531200  3
  12614  12611  12610  12632     1  0.0000000  0.6508444  3
  12614  12615  12616  12620     1  0.0000000  0.6508444  3
  12614  12615  12616  12632     1  0.0000000  0.6508444  3
  12615  12614  12611  12623     1  0.0000000  0.6508444  3
  12616  12615  12614  12622     1  0.0000000  0.6508444  3
  12616  12632  12610  12624     1  180.0000771  0.4184000  2
  12616  12632  12610  12624     1  0.0000000  1.6024720  3
  12620  12616  12615  12621     1  0.0000000  4.9162000  2
  12620  12616  12615  12621     1  0.0000000  0.6024960  3
  12621  12615  12614  12622     1  0.0000000  4.9162000  2
  12621  12615  12614  12622     1  0.0000000  0.6024960  3
  12621  12615  12616  12632     1  0.0000000  4.9162000  2
  12621  12615  12616  12632     1  0.0000000  0.6024960  3
  12622  12614  12611  12623     1  0.0000000  4.9162000  2
  12622  12614  12611  12623     1  0.0000000  0.6024960  3
  12623  12611  12610  12624     1  0.0000000  0.6508444  3
  12623  12611  12610  12632     1  0.0000000  4.9162000  2
  12623  12611  12610  12632     1  0.0000000  0.6024960  3
  12630  12624  12610  12632     1  0.0000000  4.9162000  2
  12630  12624  12610  12632     1  0.0000000  0.6024960  3
  12633  12634  12637  12638     1  180.0000771  0.8368000  1
  12633  12634  12637  12638     1  180.0000771  1.0460000  2
  12633  12634  12637  12638     1  0.0000000  0.7531200  3
  12633  12634  12637  12645     1  0.0000000  0.6508444  3
  12633  12655  12639  12643     1  180.0000771  5.6484000  1
  12633  12655  12639  12643     1  180.0000771  3.5564000  2
  12633  12655  12639  12643     1  0.0000000  0.4184000  3
  12633  12655  12639  12638     1  180.0000771  0.4184000  2
  12633  12655  12639  12638     1  0.0000000  1.6024720  3
  12634  12637  12638  12639     1  180.0000771  0.8368000  1
  12634  12637  12638  12639     1  180.0000771  1.0460000  2
  12634  12637  12638  12639     1  0.0000000  0.7531200  3
  12634  12637  12638  12644     1  0.0000000  0.6508444  3
  12634  12633  12647  12653     1  0.0000000  0.6508444  3
  12634  12633  12655  12639     1  180.0000771  0.4184000  2
  12634  12633  12655  12639     1  0.0000000  1.6024720  3
  12637  12638  12639  12643     1  0.0000000  0.6508444  3
  12637  12638  12639  12655     1  0.0000000  0.6508444  3
  12637  12634  12633  12647     1  180.0000771  0.8368000  1
  12637  12634  12633  12647     1  180.0000771  1.0460000  2
  12637  12634  12633  12647     1  0.0000000  0.7531200  3
  12637  12634  12633  12655     1  0.0000000  0.6508444  3
  12638  12637  12634  12646     1  0.0000000  0.6508444  3
  12639  12655  12633  12647     1  180.0000771  0.4184000  2
  12639  12655  12633  12647     1  0.0000000  1.6024720  3
  12639  12638  12637  12645     1  0.0000000  0.6508444  3
  12643  12639  12638  12644     1  0.0000000  4.9162000  2
  12643  12639  12638  12644     1  0.0000000  0.6024960  3
  12644  12638  12639  12655     1  0.0000000  4.9162000  2
  12644  12638  12639  12655     1  0.0000000  0.6024960  3
  12644  12638  12637  12645     1  0.0000000  4.9162000  2
  12644  12638  12637  12645     1  0.0000000  0.6024960  3
  12645  12637  12634  12646     1  0.0000000  4.9162000  2
  12645  12637  12634  12646     1  0.0000000  0.6024960  3
  12646  12634  12633  12647     1  0.0000000  0.6508444  3
  12646  12634  12633  12655     1  0.0000000  4.9162000  2
  12646  12634  12633  12655     1  0.0000000  0.6024960  3
  12653  12647  12633  12655     1  0.0000000  4.9162000  2
  12653  12647  12633  12655     1  0.0000000  0.6024960  3
  12656  12657  12660  12661     1  180.0000771  0.8368000  1
  12656  12657  12660  12661     1  180.0000771  1.0460000  2
  12656  12657  12660  12661     1  0.0000000  0.7531200  3
  12656  12657  12660  12668     1  0.0000000  0.6508444  3
  12656  12678  12662  12661     1  180.0000771  0.4184000  2
  12656  12678  12662  12661     1  0.0000000  1.6024720  3
  12656  12678  12662  12666     1  180.0000771  5.6484000  1
  12656  12678  12662  12666     1  180.0000771  3.5564000  2
  12656  12678  12662  12666     1  0.0000000  0.4184000  3
  12657  12656  12670  12676     1  0.0000000  0.6508444  3
  12657  12656  12678  12662     1  180.0000771  0.4184000  2
  12657  12656  12678  12662     1  0.0000000  1.6024720  3
  12657  12660  12661  12662     1  180.0000771  0.8368000  1
  12657  12660  12661  12662     1  180.0000771  1.0460000  2
  12657  12660  12661  12662     1  0.0000000  0.7531200  3
  12657  12660  12661  12667     1  0.0000000  0.6508444  3
  12660  12657  12656  12670     1  180.0000771  0.8368000  1
  12660  12657  12656  12670     1  180.0000771  1.0460000  2
  12660  12657  12656  12670     1  0.0000000  0.7531200  3
  12660  12657  12656  12678     1  0.0000000  0.6508444  3
  12660  12661  12662  12666     1  0.0000000  0.6508444  3
  12660  12661  12662  12678     1  0.0000000  0.6508444  3
  12661  12660  12657  12669     1  0.0000000  0.6508444  3
  12662  12661  12660  12668     1  0.0000000  0.6508444  3
  12662  12678  12656  12670     1  180.0000771  0.4184000  2
  12662  12678  12656  12670     1  0.0000000  1.6024720  3
  12666  12662  12661  12667     1  0.0000000  4.9162000  2
  12666  12662  12661  12667     1  0.0000000  0.6024960  3
  12667  12661  12660  12668     1  0.0000000  4.9162000  2
  12667  12661  12660  12668     1  0.0000000  0.6024960  3
  12667  12661  12662  12678     1  0.0000000  4.9162000  2
  12667  12661  12662  12678     1  0.0000000  0.6024960  3
  12668  12660  12657  12669     1  0.0000000  4.9162000  2
  12668  12660  12657  12669     1  0.0000000  0.6024960  3
  12669  12657  12656  12670     1  0.0000000  0.6508444  3
  12669  12657  12656  12678     1  0.0000000  4.9162000  2
  12669  12657  12656  12678     1  0.0000000  0.6024960  3
  12676  12670  12656  12678     1  0.0000000  4.9162000  2
  12676  12670  12656  12678     1  0.0000000  0.6024960  3
  12679  12680  12683  12684     1  180.0000771  0.8368000  1
  12679  12680  12683  12684     1  180.0000771  1.0460000  2
  12679  12680  12683  12684     1  0.0000000  0.7531200  3
  12679  12680  12683  12691     1  0.0000000  0.6508444  3
  12679  12701  12685  12689     1  180.0000771  5.6484000  1
  12679  12701  12685  12689     1  180.0000771  3.5564000  2
  12679  12701  12685  12689     1  0.0000000  0.4184000  3
  12679  12701  12685  12684     1  180.0000771  0.4184000  2
  12679  12701  12685  12684     1  0.0000000  1.6024720  3
  12680  12683  12684  12685     1  180.0000771  0.8368000  1
  12680  12683  12684  12685     1  180.0000771  1.0460000  2
  12680  12683  12684  12685     1  0.0000000  0.7531200  3
  12680  12683  12684  12690     1  0.0000000  0.6508444  3
  12680  12679  12693  12699     1  0.0000000  0.6508444  3
  12680  12679  12701  12685     1  180.0000771  0.4184000  2
  12680  12679  12701  12685     1  0.0000000  1.6024720  3
  12683  12684  12685  12689     1  0.0000000  0.6508444  3
  12683  12684  12685  12701     1  0.0000000  0.6508444  3
  12683  12680  12679  12693     1  180.0000771  0.8368000  1
  12683  12680  12679  12693     1  180.0000771  1.0460000  2
  12683  12680  12679  12693     1  0.0000000  0.7531200  3
  12683  12680  12679  12701     1  0.0000000  0.6508444  3
  12684  12683  12680  12692     1  0.0000000  0.6508444  3
  12685  12701  12679  12693     1  180.0000771  0.4184000  2
  12685  12701  12679  12693     1  0.0000000  1.6024720  3
  12685  12684  12683  12691     1  0.0000000  0.6508444  3
  12689  12685  12684  12690     1  0.0000000  4.9162000  2
  12689  12685  12684  12690     1  0.0000000  0.6024960  3
  12690  12684  12685  12701     1  0.0000000  4.9162000  2
  12690  12684  12685  12701     1  0.0000000  0.6024960  3
  12690  12684  12683  12691     1  0.0000000  4.9162000  2
  12690  12684  12683  12691     1  0.0000000  0.6024960  3
  12691  12683  12680  12692     1  0.0000000  4.9162000  2
  12691  12683  12680  12692     1  0.0000000  0.6024960  3
  12692  12680  12679  12693     1  0.0000000  0.6508444  3
  12692  12680  12679  12701     1  0.0000000  4.9162000  2
  12692  12680  12679  12701     1  0.0000000  0.6024960  3
  12699  12693  12679  12701     1  0.0000000  4.9162000  2
  12699  12693  12679  12701     1  0.0000000  0.6024960  3
  12702  12703  12706  12707     1  180.0000771  0.8368000  1
  12702  12703  12706  12707     1  180.0000771  1.0460000  2
  12702  12703  12706  12707     1  0.0000000  0.7531200  3
  12702  12703  12706  12714     1  0.0000000  0.6508444  3
  12702  12724  12708  12707     1  180.0000771  0.4184000  2
  12702  12724  12708  12707     1  0.0000000  1.6024720  3
  12702  12724  12708  12712     1  180.0000771  5.6484000  1
  12702  12724  12708  12712     1  180.0000771  3.5564000  2
  12702  12724  12708  12712     1  0.0000000  0.4184000  3
  12703  12702  12716  12722     1  0.0000000  0.6508444  3
  12703  12702  12724  12708     1  180.0000771  0.4184000  2
  12703  12702  12724  12708     1  0.0000000  1.6024720  3
  12703  12706  12707  12708     1  180.0000771  0.8368000  1
  12703  12706  12707  12708     1  180.0000771  1.0460000  2
  12703  12706  12707  12708     1  0.0000000  0.7531200  3
  12703  12706  12707  12713     1  0.0000000  0.6508444  3
  12706  12703  12702  12716     1  180.0000771  0.8368000  1
  12706  12703  12702  12716     1  180.0000771  1.0460000  2
  12706  12703  12702  12716     1  0.0000000  0.7531200  3
  12706  12703  12702  12724     1  0.0000000  0.6508444  3
  12706  12707  12708  12712     1  0.0000000  0.6508444  3
  12706  12707  12708  12724     1  0.0000000  0.6508444  3
  12707  12706  12703  12715     1  0.0000000  0.6508444  3
  12708  12707  12706  12714     1  0.0000000  0.6508444  3
  12708  12724  12702  12716     1  180.0000771  0.4184000  2
  12708  12724  12702  12716     1  0.0000000  1.6024720  3
  12712  12708  12707  12713     1  0.0000000  4.9162000  2
  12712  12708  12707  12713     1  0.0000000  0.6024960  3
  12713  12707  12706  12714     1  0.0000000  4.9162000  2
  12713  12707  12706  12714     1  0.0000000  0.6024960  3
  12713  12707  12708  12724     1  0.0000000  4.9162000  2
  12713  12707  12708  12724     1  0.0000000  0.6024960  3
  12714  12706  12703  12715     1  0.0000000  4.9162000  2
  12714  12706  12703  12715     1  0.0000000  0.6024960  3
  12715  12703  12702  12716     1  0.0000000  0.6508444  3
  12715  12703  12702  12724     1  0.0000000  4.9162000  2
  12715  12703  12702  12724     1  0.0000000  0.6024960  3
  12722  12716  12702  12724     1  0.0000000  4.9162000  2
  12722  12716  12702  12724     1  0.0000000  0.6024960  3
  12725  12726  12729  12730     1  180.0000771  0.8368000  1
  12725  12726  12729  12730     1  180.0000771  1.0460000  2
  12725  12726  12729  12730     1  0.0000000  0.7531200  3
  12725  12726  12729  12737     1  0.0000000  0.6508444  3
  12725  12747  12731  12735     1  180.0000771  5.6484000  1
  12725  12747  12731  12735     1  180.0000771  3.5564000  2
  12725  12747  12731  12735     1  0.0000000  0.4184000  3
  12725  12747  12731  12730     1  180.0000771  0.4184000  2
  12725  12747  12731  12730     1  0.0000000  1.6024720  3
  12726  12729  12730  12731     1  180.0000771  0.8368000  1
  12726  12729  12730  12731     1  180.0000771  1.0460000  2
  12726  12729  12730  12731     1  0.0000000  0.7531200  3
  12726  12729  12730  12736     1  0.0000000  0.6508444  3
  12726  12725  12739  12745     1  0.0000000  0.6508444  3
  12726  12725  12747  12731     1  180.0000771  0.4184000  2
  12726  12725  12747  12731     1  0.0000000  1.6024720  3
  12729  12730  12731  12735     1  0.0000000  0.6508444  3
  12729  12730  12731  12747     1  0.0000000  0.6508444  3
  12729  12726  12725  12739     1  180.0000771  0.8368000  1
  12729  12726  12725  12739     1  180.0000771  1.0460000  2
  12729  12726  12725  12739     1  0.0000000  0.7531200  3
  12729  12726  12725  12747     1  0.0000000  0.6508444  3
  12730  12729  12726  12738     1  0.0000000  0.6508444  3
  12731  12747  12725  12739     1  180.0000771  0.4184000  2
  12731  12747  12725  12739     1  0.0000000  1.6024720  3
  12731  12730  12729  12737     1  0.0000000  0.6508444  3
  12735  12731  12730  12736     1  0.0000000  4.9162000  2
  12735  12731  12730  12736     1  0.0000000  0.6024960  3
  12736  12730  12731  12747     1  0.0000000  4.9162000  2
  12736  12730  12731  12747     1  0.0000000  0.6024960  3
  12736  12730  12729  12737     1  0.0000000  4.9162000  2
  12736  12730  12729  12737     1  0.0000000  0.6024960  3
  12737  12729  12726  12738     1  0.0000000  4.9162000  2
  12737  12729  12726  12738     1  0.0000000  0.6024960  3
  12738  12726  12725  12739     1  0.0000000  0.6508444  3
  12738  12726  12725  12747     1  0.0000000  4.9162000  2
  12738  12726  12725  12747     1  0.0000000  0.6024960  3
  12745  12739  12725  12747     1  0.0000000  4.9162000  2
  12745  12739  12725  12747     1  0.0000000  0.6024960  3
  12748  12749  12752  12753     1  180.0000771  0.8368000  1
  12748  12749  12752  12753     1  180.0000771  1.0460000  2
  12748  12749  12752  12753     1  0.0000000  0.7531200  3
  12748  12749  12752  12760     1  0.0000000  0.6508444  3
  12748  12770  12754  12753     1  180.0000771  0.4184000  2
  12748  12770  12754  12753     1  0.0000000  1.6024720  3
  12748  12770  12754  12758     1  180.0000771  5.6484000  1
  12748  12770  12754  12758     1  180.0000771  3.5564000  2
  12748  12770  12754  12758     1  0.0000000  0.4184000  3
  12749  12748  12762  12768     1  0.0000000  0.6508444  3
  12749  12748  12770  12754     1  180.0000771  0.4184000  2
  12749  12748  12770  12754     1  0.0000000  1.6024720  3
  12749  12752  12753  12754     1  180.0000771  0.8368000  1
  12749  12752  12753  12754     1  180.0000771  1.0460000  2
  12749  12752  12753  12754     1  0.0000000  0.7531200  3
  12749  12752  12753  12759     1  0.0000000  0.6508444  3
  12752  12749  12748  12762     1  180.0000771  0.8368000  1
  12752  12749  12748  12762     1  180.0000771  1.0460000  2
  12752  12749  12748  12762     1  0.0000000  0.7531200  3
  12752  12749  12748  12770     1  0.0000000  0.6508444  3
  12752  12753  12754  12758     1  0.0000000  0.6508444  3
  12752  12753  12754  12770     1  0.0000000  0.6508444  3
  12753  12752  12749  12761     1  0.0000000  0.6508444  3
  12754  12753  12752  12760     1  0.0000000  0.6508444  3
  12754  12770  12748  12762     1  180.0000771  0.4184000  2
  12754  12770  12748  12762     1  0.0000000  1.6024720  3
  12758  12754  12753  12759     1  0.0000000  4.9162000  2
  12758  12754  12753  12759     1  0.0000000  0.6024960  3
  12759  12753  12752  12760     1  0.0000000  4.9162000  2
  12759  12753  12752  12760     1  0.0000000  0.6024960  3
  12759  12753  12754  12770     1  0.0000000  4.9162000  2
  12759  12753  12754  12770     1  0.0000000  0.6024960  3
  12760  12752  12749  12761     1  0.0000000  4.9162000  2
  12760  12752  12749  12761     1  0.0000000  0.6024960  3
  12761  12749  12748  12762     1  0.0000000  0.6508444  3
  12761  12749  12748  12770     1  0.0000000  4.9162000  2
  12761  12749  12748  12770     1  0.0000000  0.6024960  3
  12768  12762  12748  12770     1  0.0000000  4.9162000  2
  12768  12762  12748  12770     1  0.0000000  0.6024960  3
  12771  12772  12775  12776     1  180.0000771  0.8368000  1
  12771  12772  12775  12776     1  180.0000771  1.0460000  2
  12771  12772  12775  12776     1  0.0000000  0.7531200  3
  12771  12772  12775  12783     1  0.0000000  0.6508444  3
  12771  12793  12777  12781     1  180.0000771  5.6484000  1
  12771  12793  12777  12781     1  180.0000771  3.5564000  2
  12771  12793  12777  12781     1  0.0000000  0.4184000  3
  12771  12793  12777  12776     1  180.0000771  0.4184000  2
  12771  12793  12777  12776     1  0.0000000  1.6024720  3
  12772  12775  12776  12777     1  180.0000771  0.8368000  1
  12772  12775  12776  12777     1  180.0000771  1.0460000  2
  12772  12775  12776  12777     1  0.0000000  0.7531200  3
  12772  12775  12776  12782     1  0.0000000  0.6508444  3
  12772  12771  12785  12791     1  0.0000000  0.6508444  3
  12772  12771  12793  12777     1  180.0000771  0.4184000  2
  12772  12771  12793  12777     1  0.0000000  1.6024720  3
  12775  12776  12777  12781     1  0.0000000  0.6508444  3
  12775  12776  12777  12793     1  0.0000000  0.6508444  3
  12775  12772  12771  12785     1  180.0000771  0.8368000  1
  12775  12772  12771  12785     1  180.0000771  1.0460000  2
  12775  12772  12771  12785     1  0.0000000  0.7531200  3
  12775  12772  12771  12793     1  0.0000000  0.6508444  3
  12776  12775  12772  12784     1  0.0000000  0.6508444  3
  12777  12793  12771  12785     1  180.0000771  0.4184000  2
  12777  12793  12771  12785     1  0.0000000  1.6024720  3
  12777  12776  12775  12783     1  0.0000000  0.6508444  3
  12781  12777  12776  12782     1  0.0000000  4.9162000  2
  12781  12777  12776  12782     1  0.0000000  0.6024960  3
  12782  12776  12777  12793     1  0.0000000  4.9162000  2
  12782  12776  12777  12793     1  0.0000000  0.6024960  3
  12782  12776  12775  12783     1  0.0000000  4.9162000  2
  12782  12776  12775  12783     1  0.0000000  0.6024960  3
  12783  12775  12772  12784     1  0.0000000  4.9162000  2
  12783  12775  12772  12784     1  0.0000000  0.6024960  3
  12784  12772  12771  12785     1  0.0000000  0.6508444  3
  12784  12772  12771  12793     1  0.0000000  4.9162000  2
  12784  12772  12771  12793     1  0.0000000  0.6024960  3
  12791  12785  12771  12793     1  0.0000000  4.9162000  2
  12791  12785  12771  12793     1  0.0000000  0.6024960  3
  12794  12795  12798  12799     1  180.0000771  0.8368000  1
  12794  12795  12798  12799     1  180.0000771  1.0460000  2
  12794  12795  12798  12799     1  0.0000000  0.7531200  3
  12794  12795  12798  12806     1  0.0000000  0.6508444  3
  12794  12816  12800  12799     1  180.0000771  0.4184000  2
  12794  12816  12800  12799     1  0.0000000  1.6024720  3
  12794  12816  12800  12804     1  180.0000771  5.6484000  1
  12794  12816  12800  12804     1  180.0000771  3.5564000  2
  12794  12816  12800  12804     1  0.0000000  0.4184000  3
  12795  12794  12808  12814     1  0.0000000  0.6508444  3
  12795  12794  12816  12800     1  180.0000771  0.4184000  2
  12795  12794  12816  12800     1  0.0000000  1.6024720  3
  12795  12798  12799  12800     1  180.0000771  0.8368000  1
  12795  12798  12799  12800     1  180.0000771  1.0460000  2
  12795  12798  12799  12800     1  0.0000000  0.7531200  3
  12795  12798  12799  12805     1  0.0000000  0.6508444  3
  12798  12795  12794  12808     1  180.0000771  0.8368000  1
  12798  12795  12794  12808     1  180.0000771  1.0460000  2
  12798  12795  12794  12808     1  0.0000000  0.7531200  3
  12798  12795  12794  12816     1  0.0000000  0.6508444  3
  12798  12799  12800  12804     1  0.0000000  0.6508444  3
  12798  12799  12800  12816     1  0.0000000  0.6508444  3
  12799  12798  12795  12807     1  0.0000000  0.6508444  3
  12800  12799  12798  12806     1  0.0000000  0.6508444  3
  12800  12816  12794  12808     1  180.0000771  0.4184000  2
  12800  12816  12794  12808     1  0.0000000  1.6024720  3
  12804  12800  12799  12805     1  0.0000000  4.9162000  2
  12804  12800  12799  12805     1  0.0000000  0.6024960  3
  12805  12799  12798  12806     1  0.0000000  4.9162000  2
  12805  12799  12798  12806     1  0.0000000  0.6024960  3
  12805  12799  12800  12816     1  0.0000000  4.9162000  2
  12805  12799  12800  12816     1  0.0000000  0.6024960  3
  12806  12798  12795  12807     1  0.0000000  4.9162000  2
  12806  12798  12795  12807     1  0.0000000  0.6024960  3
  12807  12795  12794  12808     1  0.0000000  0.6508444  3
  12807  12795  12794  12816     1  0.0000000  4.9162000  2
  12807  12795  12794  12816     1  0.0000000  0.6024960  3
  12814  12808  12794  12816     1  0.0000000  4.9162000  2
  12814  12808  12794  12816     1  0.0000000  0.6024960  3
  12817  12818  12821  12822     1  180.0000771  0.8368000  1
  12817  12818  12821  12822     1  180.0000771  1.0460000  2
  12817  12818  12821  12822     1  0.0000000  0.7531200  3
  12817  12818  12821  12829     1  0.0000000  0.6508444  3
  12817  12839  12823  12827     1  180.0000771  5.6484000  1
  12817  12839  12823  12827     1  180.0000771  3.5564000  2
  12817  12839  12823  12827     1  0.0000000  0.4184000  3
  12817  12839  12823  12822     1  180.0000771  0.4184000  2
  12817  12839  12823  12822     1  0.0000000  1.6024720  3
  12818  12821  12822  12823     1  180.0000771  0.8368000  1
  12818  12821  12822  12823     1  180.0000771  1.0460000  2
  12818  12821  12822  12823     1  0.0000000  0.7531200  3
  12818  12821  12822  12828     1  0.0000000  0.6508444  3
  12818  12817  12831  12837     1  0.0000000  0.6508444  3
  12818  12817  12839  12823     1  180.0000771  0.4184000  2
  12818  12817  12839  12823     1  0.0000000  1.6024720  3
  12821  12822  12823  12827     1  0.0000000  0.6508444  3
  12821  12822  12823  12839     1  0.0000000  0.6508444  3
  12821  12818  12817  12831     1  180.0000771  0.8368000  1
  12821  12818  12817  12831     1  180.0000771  1.0460000  2
  12821  12818  12817  12831     1  0.0000000  0.7531200  3
  12821  12818  12817  12839     1  0.0000000  0.6508444  3
  12822  12821  12818  12830     1  0.0000000  0.6508444  3
  12823  12839  12817  12831     1  180.0000771  0.4184000  2
  12823  12839  12817  12831     1  0.0000000  1.6024720  3
  12823  12822  12821  12829     1  0.0000000  0.6508444  3
  12827  12823  12822  12828     1  0.0000000  4.9162000  2
  12827  12823  12822  12828     1  0.0000000  0.6024960  3
  12828  12822  12823  12839     1  0.0000000  4.9162000  2
  12828  12822  12823  12839     1  0.0000000  0.6024960  3
  12828  12822  12821  12829     1  0.0000000  4.9162000  2
  12828  12822  12821  12829     1  0.0000000  0.6024960  3
  12829  12821  12818  12830     1  0.0000000  4.9162000  2
  12829  12821  12818  12830     1  0.0000000  0.6024960  3
  12830  12818  12817  12831     1  0.0000000  0.6508444  3
  12830  12818  12817  12839     1  0.0000000  4.9162000  2
  12830  12818  12817  12839     1  0.0000000  0.6024960  3
  12837  12831  12817  12839     1  0.0000000  4.9162000  2
  12837  12831  12817  12839     1  0.0000000  0.6024960  3
  12840  12841  12844  12845     1  180.0000771  0.8368000  1
  12840  12841  12844  12845     1  180.0000771  1.0460000  2
  12840  12841  12844  12845     1  0.0000000  0.7531200  3
  12840  12841  12844  12852     1  0.0000000  0.6508444  3
  12840  12862  12846  12845     1  180.0000771  0.4184000  2
  12840  12862  12846  12845     1  0.0000000  1.6024720  3
  12840  12862  12846  12850     1  180.0000771  5.6484000  1
  12840  12862  12846  12850     1  180.0000771  3.5564000  2
  12840  12862  12846  12850     1  0.0000000  0.4184000  3
  12841  12840  12854  12860     1  0.0000000  0.6508444  3
  12841  12840  12862  12846     1  180.0000771  0.4184000  2
  12841  12840  12862  12846     1  0.0000000  1.6024720  3
  12841  12844  12845  12846     1  180.0000771  0.8368000  1
  12841  12844  12845  12846     1  180.0000771  1.0460000  2
  12841  12844  12845  12846     1  0.0000000  0.7531200  3
  12841  12844  12845  12851     1  0.0000000  0.6508444  3
  12844  12841  12840  12854     1  180.0000771  0.8368000  1
  12844  12841  12840  12854     1  180.0000771  1.0460000  2
  12844  12841  12840  12854     1  0.0000000  0.7531200  3
  12844  12841  12840  12862     1  0.0000000  0.6508444  3
  12844  12845  12846  12850     1  0.0000000  0.6508444  3
  12844  12845  12846  12862     1  0.0000000  0.6508444  3
  12845  12844  12841  12853     1  0.0000000  0.6508444  3
  12846  12845  12844  12852     1  0.0000000  0.6508444  3
  12846  12862  12840  12854     1  180.0000771  0.4184000  2
  12846  12862  12840  12854     1  0.0000000  1.6024720  3
  12850  12846  12845  12851     1  0.0000000  4.9162000  2
  12850  12846  12845  12851     1  0.0000000  0.6024960  3
  12851  12845  12844  12852     1  0.0000000  4.9162000  2
  12851  12845  12844  12852     1  0.0000000  0.6024960  3
  12851  12845  12846  12862     1  0.0000000  4.9162000  2
  12851  12845  12846  12862     1  0.0000000  0.6024960  3
  12852  12844  12841  12853     1  0.0000000  4.9162000  2
  12852  12844  12841  12853     1  0.0000000  0.6024960  3
  12853  12841  12840  12854     1  0.0000000  0.6508444  3
  12853  12841  12840  12862     1  0.0000000  4.9162000  2
  12853  12841  12840  12862     1  0.0000000  0.6024960  3
  12860  12854  12840  12862     1  0.0000000  4.9162000  2
  12860  12854  12840  12862     1  0.0000000  0.6024960  3
  12863  12864  12867  12868     1  180.0000771  0.8368000  1
  12863  12864  12867  12868     1  180.0000771  1.0460000  2
  12863  12864  12867  12868     1  0.0000000  0.7531200  3
  12863  12864  12867  12875     1  0.0000000  0.6508444  3
  12863  12885  12869  12873     1  180.0000771  5.6484000  1
  12863  12885  12869  12873     1  180.0000771  3.5564000  2
  12863  12885  12869  12873     1  0.0000000  0.4184000  3
  12863  12885  12869  12868     1  180.0000771  0.4184000  2
  12863  12885  12869  12868     1  0.0000000  1.6024720  3
  12864  12867  12868  12869     1  180.0000771  0.8368000  1
  12864  12867  12868  12869     1  180.0000771  1.0460000  2
  12864  12867  12868  12869     1  0.0000000  0.7531200  3
  12864  12867  12868  12874     1  0.0000000  0.6508444  3
  12864  12863  12877  12883     1  0.0000000  0.6508444  3
  12864  12863  12885  12869     1  180.0000771  0.4184000  2
  12864  12863  12885  12869     1  0.0000000  1.6024720  3
  12867  12868  12869  12873     1  0.0000000  0.6508444  3
  12867  12868  12869  12885     1  0.0000000  0.6508444  3
  12867  12864  12863  12877     1  180.0000771  0.8368000  1
  12867  12864  12863  12877     1  180.0000771  1.0460000  2
  12867  12864  12863  12877     1  0.0000000  0.7531200  3
  12867  12864  12863  12885     1  0.0000000  0.6508444  3
  12868  12867  12864  12876     1  0.0000000  0.6508444  3
  12869  12885  12863  12877     1  180.0000771  0.4184000  2
  12869  12885  12863  12877     1  0.0000000  1.6024720  3
  12869  12868  12867  12875     1  0.0000000  0.6508444  3
  12873  12869  12868  12874     1  0.0000000  4.9162000  2
  12873  12869  12868  12874     1  0.0000000  0.6024960  3
  12874  12868  12869  12885     1  0.0000000  4.9162000  2
  12874  12868  12869  12885     1  0.0000000  0.6024960  3
  12874  12868  12867  12875     1  0.0000000  4.9162000  2
  12874  12868  12867  12875     1  0.0000000  0.6024960  3
  12875  12867  12864  12876     1  0.0000000  4.9162000  2
  12875  12867  12864  12876     1  0.0000000  0.6024960  3
  12876  12864  12863  12877     1  0.0000000  0.6508444  3
  12876  12864  12863  12885     1  0.0000000  4.9162000  2
  12876  12864  12863  12885     1  0.0000000  0.6024960  3
  12883  12877  12863  12885     1  0.0000000  4.9162000  2
  12883  12877  12863  12885     1  0.0000000  0.6024960  3
  12886  12887  12890  12891     1  180.0000771  0.8368000  1
  12886  12887  12890  12891     1  180.0000771  1.0460000  2
  12886  12887  12890  12891     1  0.0000000  0.7531200  3
  12886  12887  12890  12898     1  0.0000000  0.6508444  3
  12886  12908  12892  12891     1  180.0000771  0.4184000  2
  12886  12908  12892  12891     1  0.0000000  1.6024720  3
  12886  12908  12892  12896     1  180.0000771  5.6484000  1
  12886  12908  12892  12896     1  180.0000771  3.5564000  2
  12886  12908  12892  12896     1  0.0000000  0.4184000  3
  12887  12886  12900  12906     1  0.0000000  0.6508444  3
  12887  12886  12908  12892     1  180.0000771  0.4184000  2
  12887  12886  12908  12892     1  0.0000000  1.6024720  3
  12887  12890  12891  12892     1  180.0000771  0.8368000  1
  12887  12890  12891  12892     1  180.0000771  1.0460000  2
  12887  12890  12891  12892     1  0.0000000  0.7531200  3
  12887  12890  12891  12897     1  0.0000000  0.6508444  3
  12890  12887  12886  12900     1  180.0000771  0.8368000  1
  12890  12887  12886  12900     1  180.0000771  1.0460000  2
  12890  12887  12886  12900     1  0.0000000  0.7531200  3
  12890  12887  12886  12908     1  0.0000000  0.6508444  3
  12890  12891  12892  12896     1  0.0000000  0.6508444  3
  12890  12891  12892  12908     1  0.0000000  0.6508444  3
  12891  12890  12887  12899     1  0.0000000  0.6508444  3
  12892  12891  12890  12898     1  0.0000000  0.6508444  3
  12892  12908  12886  12900     1  180.0000771  0.4184000  2
  12892  12908  12886  12900     1  0.0000000  1.6024720  3
  12896  12892  12891  12897     1  0.0000000  4.9162000  2
  12896  12892  12891  12897     1  0.0000000  0.6024960  3
  12897  12891  12890  12898     1  0.0000000  4.9162000  2
  12897  12891  12890  12898     1  0.0000000  0.6024960  3
  12897  12891  12892  12908     1  0.0000000  4.9162000  2
  12897  12891  12892  12908     1  0.0000000  0.6024960  3
  12898  12890  12887  12899     1  0.0000000  4.9162000  2
  12898  12890  12887  12899     1  0.0000000  0.6024960  3
  12899  12887  12886  12900     1  0.0000000  0.6508444  3
  12899  12887  12886  12908     1  0.0000000  4.9162000  2
  12899  12887  12886  12908     1  0.0000000  0.6024960  3
  12906  12900  12886  12908     1  0.0000000  4.9162000  2
  12906  12900  12886  12908     1  0.0000000  0.6024960  3
  12909  12910  12913  12914     1  180.0000771  0.8368000  1
  12909  12910  12913  12914     1  180.0000771  1.0460000  2
  12909  12910  12913  12914     1  0.0000000  0.7531200  3
  12909  12910  12913  12921     1  0.0000000  0.6508444  3
  12909  12931  12915  12919     1  180.0000771  5.6484000  1
  12909  12931  12915  12919     1  180.0000771  3.5564000  2
  12909  12931  12915  12919     1  0.0000000  0.4184000  3
  12909  12931  12915  12914     1  180.0000771  0.4184000  2
  12909  12931  12915  12914     1  0.0000000  1.6024720  3
  12910  12913  12914  12915     1  180.0000771  0.8368000  1
  12910  12913  12914  12915     1  180.0000771  1.0460000  2
  12910  12913  12914  12915     1  0.0000000  0.7531200  3
  12910  12913  12914  12920     1  0.0000000  0.6508444  3
  12910  12909  12923  12929     1  0.0000000  0.6508444  3
  12910  12909  12931  12915     1  180.0000771  0.4184000  2
  12910  12909  12931  12915     1  0.0000000  1.6024720  3
  12913  12914  12915  12919     1  0.0000000  0.6508444  3
  12913  12914  12915  12931     1  0.0000000  0.6508444  3
  12913  12910  12909  12923     1  180.0000771  0.8368000  1
  12913  12910  12909  12923     1  180.0000771  1.0460000  2
  12913  12910  12909  12923     1  0.0000000  0.7531200  3
  12913  12910  12909  12931     1  0.0000000  0.6508444  3
  12914  12913  12910  12922     1  0.0000000  0.6508444  3
  12915  12931  12909  12923     1  180.0000771  0.4184000  2
  12915  12931  12909  12923     1  0.0000000  1.6024720  3
  12915  12914  12913  12921     1  0.0000000  0.6508444  3
  12919  12915  12914  12920     1  0.0000000  4.9162000  2
  12919  12915  12914  12920     1  0.0000000  0.6024960  3
  12920  12914  12915  12931     1  0.0000000  4.9162000  2
  12920  12914  12915  12931     1  0.0000000  0.6024960  3
  12920  12914  12913  12921     1  0.0000000  4.9162000  2
  12920  12914  12913  12921     1  0.0000000  0.6024960  3
  12921  12913  12910  12922     1  0.0000000  4.9162000  2
  12921  12913  12910  12922     1  0.0000000  0.6024960  3
  12922  12910  12909  12923     1  0.0000000  0.6508444  3
  12922  12910  12909  12931     1  0.0000000  4.9162000  2
  12922  12910  12909  12931     1  0.0000000  0.6024960  3
  12929  12923  12909  12931     1  0.0000000  4.9162000  2
  12929  12923  12909  12931     1  0.0000000  0.6024960  3
  12932  12933  12936  12937     1  180.0000771  0.8368000  1
  12932  12933  12936  12937     1  180.0000771  1.0460000  2
  12932  12933  12936  12937     1  0.0000000  0.7531200  3
  12932  12933  12936  12944     1  0.0000000  0.6508444  3
  12932  12954  12938  12937     1  180.0000771  0.4184000  2
  12932  12954  12938  12937     1  0.0000000  1.6024720  3
  12932  12954  12938  12942     1  180.0000771  5.6484000  1
  12932  12954  12938  12942     1  180.0000771  3.5564000  2
  12932  12954  12938  12942     1  0.0000000  0.4184000  3
  12933  12932  12946  12952     1  0.0000000  0.6508444  3
  12933  12932  12954  12938     1  180.0000771  0.4184000  2
  12933  12932  12954  12938     1  0.0000000  1.6024720  3
  12933  12936  12937  12938     1  180.0000771  0.8368000  1
  12933  12936  12937  12938     1  180.0000771  1.0460000  2
  12933  12936  12937  12938     1  0.0000000  0.7531200  3
  12933  12936  12937  12943     1  0.0000000  0.6508444  3
  12936  12933  12932  12946     1  180.0000771  0.8368000  1
  12936  12933  12932  12946     1  180.0000771  1.0460000  2
  12936  12933  12932  12946     1  0.0000000  0.7531200  3
  12936  12933  12932  12954     1  0.0000000  0.6508444  3
  12936  12937  12938  12942     1  0.0000000  0.6508444  3
  12936  12937  12938  12954     1  0.0000000  0.6508444  3
  12937  12936  12933  12945     1  0.0000000  0.6508444  3
  12938  12937  12936  12944     1  0.0000000  0.6508444  3
  12938  12954  12932  12946     1  180.0000771  0.4184000  2
  12938  12954  12932  12946     1  0.0000000  1.6024720  3
  12942  12938  12937  12943     1  0.0000000  4.9162000  2
  12942  12938  12937  12943     1  0.0000000  0.6024960  3
  12943  12937  12936  12944     1  0.0000000  4.9162000  2
  12943  12937  12936  12944     1  0.0000000  0.6024960  3
  12943  12937  12938  12954     1  0.0000000  4.9162000  2
  12943  12937  12938  12954     1  0.0000000  0.6024960  3
  12944  12936  12933  12945     1  0.0000000  4.9162000  2
  12944  12936  12933  12945     1  0.0000000  0.6024960  3
  12945  12933  12932  12946     1  0.0000000  0.6508444  3
  12945  12933  12932  12954     1  0.0000000  4.9162000  2
  12945  12933  12932  12954     1  0.0000000  0.6024960  3
  12952  12946  12932  12954     1  0.0000000  4.9162000  2
  12952  12946  12932  12954     1  0.0000000  0.6024960  3
  12955  12956  12959  12960     1  180.0000771  0.8368000  1
  12955  12956  12959  12960     1  180.0000771  1.0460000  2
  12955  12956  12959  12960     1  0.0000000  0.7531200  3
  12955  12956  12959  12967     1  0.0000000  0.6508444  3
  12955  12977  12961  12965     1  180.0000771  5.6484000  1
  12955  12977  12961  12965     1  180.0000771  3.5564000  2
  12955  12977  12961  12965     1  0.0000000  0.4184000  3
  12955  12977  12961  12960     1  180.0000771  0.4184000  2
  12955  12977  12961  12960     1  0.0000000  1.6024720  3
  12956  12959  12960  12961     1  180.0000771  0.8368000  1
  12956  12959  12960  12961     1  180.0000771  1.0460000  2
  12956  12959  12960  12961     1  0.0000000  0.7531200  3
  12956  12959  12960  12966     1  0.0000000  0.6508444  3
  12956  12955  12969  12975     1  0.0000000  0.6508444  3
  12956  12955  12977  12961     1  180.0000771  0.4184000  2
  12956  12955  12977  12961     1  0.0000000  1.6024720  3
  12959  12960  12961  12965     1  0.0000000  0.6508444  3
  12959  12960  12961  12977     1  0.0000000  0.6508444  3
  12959  12956  12955  12969     1  180.0000771  0.8368000  1
  12959  12956  12955  12969     1  180.0000771  1.0460000  2
  12959  12956  12955  12969     1  0.0000000  0.7531200  3
  12959  12956  12955  12977     1  0.0000000  0.6508444  3
  12960  12959  12956  12968     1  0.0000000  0.6508444  3
  12961  12977  12955  12969     1  180.0000771  0.4184000  2
  12961  12977  12955  12969     1  0.0000000  1.6024720  3
  12961  12960  12959  12967     1  0.0000000  0.6508444  3
  12965  12961  12960  12966     1  0.0000000  4.9162000  2
  12965  12961  12960  12966     1  0.0000000  0.6024960  3
  12966  12960  12961  12977     1  0.0000000  4.9162000  2
  12966  12960  12961  12977     1  0.0000000  0.6024960  3
  12966  12960  12959  12967     1  0.0000000  4.9162000  2
  12966  12960  12959  12967     1  0.0000000  0.6024960  3
  12967  12959  12956  12968     1  0.0000000  4.9162000  2
  12967  12959  12956  12968     1  0.0000000  0.6024960  3
  12968  12956  12955  12969     1  0.0000000  0.6508444  3
  12968  12956  12955  12977     1  0.0000000  4.9162000  2
  12968  12956  12955  12977     1  0.0000000  0.6024960  3
  12975  12969  12955  12977     1  0.0000000  4.9162000  2
  12975  12969  12955  12977     1  0.0000000  0.6024960  3
  12978  12979  12982  12983     1  180.0000771  0.8368000  1
  12978  12979  12982  12983     1  180.0000771  1.0460000  2
  12978  12979  12982  12983     1  0.0000000  0.7531200  3
  12978  12979  12982  12990     1  0.0000000  0.6508444  3
  12978  13000  12984  12983     1  180.0000771  0.4184000  2
  12978  13000  12984  12983     1  0.0000000  1.6024720  3
  12978  13000  12984  12988     1  180.0000771  5.6484000  1
  12978  13000  12984  12988     1  180.0000771  3.5564000  2
  12978  13000  12984  12988     1  0.0000000  0.4184000  3
  12979  12978  12992  12998     1  0.0000000  0.6508444  3
  12979  12978  13000  12984     1  180.0000771  0.4184000  2
  12979  12978  13000  12984     1  0.0000000  1.6024720  3
  12979  12982  12983  12984     1  180.0000771  0.8368000  1
  12979  12982  12983  12984     1  180.0000771  1.0460000  2
  12979  12982  12983  12984     1  0.0000000  0.7531200  3
  12979  12982  12983  12989     1  0.0000000  0.6508444  3
  12982  12979  12978  12992     1  180.0000771  0.8368000  1
  12982  12979  12978  12992     1  180.0000771  1.0460000  2
  12982  12979  12978  12992     1  0.0000000  0.7531200  3
  12982  12979  12978  13000     1  0.0000000  0.6508444  3
  12982  12983  12984  12988     1  0.0000000  0.6508444  3
  12982  12983  12984  13000     1  0.0000000  0.6508444  3
  12983  12982  12979  12991     1  0.0000000  0.6508444  3
  12984  12983  12982  12990     1  0.0000000  0.6508444  3
  12984  13000  12978  12992     1  180.0000771  0.4184000  2
  12984  13000  12978  12992     1  0.0000000  1.6024720  3
  12988  12984  12983  12989     1  0.0000000  4.9162000  2
  12988  12984  12983  12989     1  0.0000000  0.6024960  3
  12989  12983  12982  12990     1  0.0000000  4.9162000  2
  12989  12983  12982  12990     1  0.0000000  0.6024960  3
  12989  12983  12984  13000     1  0.0000000  4.9162000  2
  12989  12983  12984  13000     1  0.0000000  0.6024960  3
  12990  12982  12979  12991     1  0.0000000  4.9162000  2
  12990  12982  12979  12991     1  0.0000000  0.6024960  3
  12991  12979  12978  12992     1  0.0000000  0.6508444  3
  12991  12979  12978  13000     1  0.0000000  4.9162000  2
  12991  12979  12978  13000     1  0.0000000  0.6024960  3
  12998  12992  12978  13000     1  0.0000000  4.9162000  2
  12998  12992  12978  13000     1  0.0000000  0.6024960  3
  13001  13002  13005  13006     1  180.0000771  0.8368000  1
  13001  13002  13005  13006     1  180.0000771  1.0460000  2
  13001  13002  13005  13006     1  0.0000000  0.7531200  3
  13001  13002  13005  13013     1  0.0000000  0.6508444  3
  13001  13023  13007  13011     1  180.0000771  5.6484000  1
  13001  13023  13007  13011     1  180.0000771  3.5564000  2
  13001  13023  13007  13011     1  0.0000000  0.4184000  3
  13001  13023  13007  13006     1  180.0000771  0.4184000  2
  13001  13023  13007  13006     1  0.0000000  1.6024720  3
  13002  13005  13006  13007     1  180.0000771  0.8368000  1
  13002  13005  13006  13007     1  180.0000771  1.0460000  2
  13002  13005  13006  13007     1  0.0000000  0.7531200  3
  13002  13005  13006  13012     1  0.0000000  0.6508444  3
  13002  13001  13015  13021     1  0.0000000  0.6508444  3
  13002  13001  13023  13007     1  180.0000771  0.4184000  2
  13002  13001  13023  13007     1  0.0000000  1.6024720  3
  13005  13006  13007  13011     1  0.0000000  0.6508444  3
  13005  13006  13007  13023     1  0.0000000  0.6508444  3
  13005  13002  13001  13015     1  180.0000771  0.8368000  1
  13005  13002  13001  13015     1  180.0000771  1.0460000  2
  13005  13002  13001  13015     1  0.0000000  0.7531200  3
  13005  13002  13001  13023     1  0.0000000  0.6508444  3
  13006  13005  13002  13014     1  0.0000000  0.6508444  3
  13007  13023  13001  13015     1  180.0000771  0.4184000  2
  13007  13023  13001  13015     1  0.0000000  1.6024720  3
  13007  13006  13005  13013     1  0.0000000  0.6508444  3
  13011  13007  13006  13012     1  0.0000000  4.9162000  2
  13011  13007  13006  13012     1  0.0000000  0.6024960  3
  13012  13006  13007  13023     1  0.0000000  4.9162000  2
  13012  13006  13007  13023     1  0.0000000  0.6024960  3
  13012  13006  13005  13013     1  0.0000000  4.9162000  2
  13012  13006  13005  13013     1  0.0000000  0.6024960  3
  13013  13005  13002  13014     1  0.0000000  4.9162000  2
  13013  13005  13002  13014     1  0.0000000  0.6024960  3
  13014  13002  13001  13015     1  0.0000000  0.6508444  3
  13014  13002  13001  13023     1  0.0000000  4.9162000  2
  13014  13002  13001  13023     1  0.0000000  0.6024960  3
  13021  13015  13001  13023     1  0.0000000  4.9162000  2
  13021  13015  13001  13023     1  0.0000000  0.6024960  3
  13024  13025  13028  13029     1  180.0000771  0.8368000  1
  13024  13025  13028  13029     1  180.0000771  1.0460000  2
  13024  13025  13028  13029     1  0.0000000  0.7531200  3
  13024  13025  13028  13036     1  0.0000000  0.6508444  3
  13024  13046  13030  13029     1  180.0000771  0.4184000  2
  13024  13046  13030  13029     1  0.0000000  1.6024720  3
  13024  13046  13030  13034     1  180.0000771  5.6484000  1
  13024  13046  13030  13034     1  180.0000771  3.5564000  2
  13024  13046  13030  13034     1  0.0000000  0.4184000  3
  13025  13024  13038  13044     1  0.0000000  0.6508444  3
  13025  13024  13046  13030     1  180.0000771  0.4184000  2
  13025  13024  13046  13030     1  0.0000000  1.6024720  3
  13025  13028  13029  13030     1  180.0000771  0.8368000  1
  13025  13028  13029  13030     1  180.0000771  1.0460000  2
  13025  13028  13029  13030     1  0.0000000  0.7531200  3
  13025  13028  13029  13035     1  0.0000000  0.6508444  3
  13028  13025  13024  13038     1  180.0000771  0.8368000  1
  13028  13025  13024  13038     1  180.0000771  1.0460000  2
  13028  13025  13024  13038     1  0.0000000  0.7531200  3
  13028  13025  13024  13046     1  0.0000000  0.6508444  3
  13028  13029  13030  13034     1  0.0000000  0.6508444  3
  13028  13029  13030  13046     1  0.0000000  0.6508444  3
  13029  13028  13025  13037     1  0.0000000  0.6508444  3
  13030  13029  13028  13036     1  0.0000000  0.6508444  3
  13030  13046  13024  13038     1  180.0000771  0.4184000  2
  13030  13046  13024  13038     1  0.0000000  1.6024720  3
  13034  13030  13029  13035     1  0.0000000  4.9162000  2
  13034  13030  13029  13035     1  0.0000000  0.6024960  3
  13035  13029  13028  13036     1  0.0000000  4.9162000  2
  13035  13029  13028  13036     1  0.0000000  0.6024960  3
  13035  13029  13030  13046     1  0.0000000  4.9162000  2
  13035  13029  13030  13046     1  0.0000000  0.6024960  3
  13036  13028  13025  13037     1  0.0000000  4.9162000  2
  13036  13028  13025  13037     1  0.0000000  0.6024960  3
  13037  13025  13024  13038     1  0.0000000  0.6508444  3
  13037  13025  13024  13046     1  0.0000000  4.9162000  2
  13037  13025  13024  13046     1  0.0000000  0.6024960  3
  13044  13038  13024  13046     1  0.0000000  4.9162000  2
  13044  13038  13024  13046     1  0.0000000  0.6024960  3
  13047  13048  13051  13052     1  180.0000771  0.8368000  1
  13047  13048  13051  13052     1  180.0000771  1.0460000  2
  13047  13048  13051  13052     1  0.0000000  0.7531200  3
  13047  13048  13051  13059     1  0.0000000  0.6508444  3
  13047  13069  13053  13057     1  180.0000771  5.6484000  1
  13047  13069  13053  13057     1  180.0000771  3.5564000  2
  13047  13069  13053  13057     1  0.0000000  0.4184000  3
  13047  13069  13053  13052     1  180.0000771  0.4184000  2
  13047  13069  13053  13052     1  0.0000000  1.6024720  3
  13048  13051  13052  13053     1  180.0000771  0.8368000  1
  13048  13051  13052  13053     1  180.0000771  1.0460000  2
  13048  13051  13052  13053     1  0.0000000  0.7531200  3
  13048  13051  13052  13058     1  0.0000000  0.6508444  3
  13048  13047  13061  13067     1  0.0000000  0.6508444  3
  13048  13047  13069  13053     1  180.0000771  0.4184000  2
  13048  13047  13069  13053     1  0.0000000  1.6024720  3
  13051  13052  13053  13057     1  0.0000000  0.6508444  3
  13051  13052  13053  13069     1  0.0000000  0.6508444  3
  13051  13048  13047  13061     1  180.0000771  0.8368000  1
  13051  13048  13047  13061     1  180.0000771  1.0460000  2
  13051  13048  13047  13061     1  0.0000000  0.7531200  3
  13051  13048  13047  13069     1  0.0000000  0.6508444  3
  13052  13051  13048  13060     1  0.0000000  0.6508444  3
  13053  13069  13047  13061     1  180.0000771  0.4184000  2
  13053  13069  13047  13061     1  0.0000000  1.6024720  3
  13053  13052  13051  13059     1  0.0000000  0.6508444  3
  13057  13053  13052  13058     1  0.0000000  4.9162000  2
  13057  13053  13052  13058     1  0.0000000  0.6024960  3
  13058  13052  13053  13069     1  0.0000000  4.9162000  2
  13058  13052  13053  13069     1  0.0000000  0.6024960  3
  13058  13052  13051  13059     1  0.0000000  4.9162000  2
  13058  13052  13051  13059     1  0.0000000  0.6024960  3
  13059  13051  13048  13060     1  0.0000000  4.9162000  2
  13059  13051  13048  13060     1  0.0000000  0.6024960  3
  13060  13048  13047  13061     1  0.0000000  0.6508444  3
  13060  13048  13047  13069     1  0.0000000  4.9162000  2
  13060  13048  13047  13069     1  0.0000000  0.6024960  3
  13067  13061  13047  13069     1  0.0000000  4.9162000  2
  13067  13061  13047  13069     1  0.0000000  0.6024960  3
  13070  13071  13074  13075     1  180.0000771  0.8368000  1
  13070  13071  13074  13075     1  180.0000771  1.0460000  2
  13070  13071  13074  13075     1  0.0000000  0.7531200  3
  13070  13071  13074  13082     1  0.0000000  0.6508444  3
  13070  13092  13076  13075     1  180.0000771  0.4184000  2
  13070  13092  13076  13075     1  0.0000000  1.6024720  3
  13070  13092  13076  13080     1  180.0000771  5.6484000  1
  13070  13092  13076  13080     1  180.0000771  3.5564000  2
  13070  13092  13076  13080     1  0.0000000  0.4184000  3
  13071  13070  13084  13090     1  0.0000000  0.6508444  3
  13071  13070  13092  13076     1  180.0000771  0.4184000  2
  13071  13070  13092  13076     1  0.0000000  1.6024720  3
  13071  13074  13075  13076     1  180.0000771  0.8368000  1
  13071  13074  13075  13076     1  180.0000771  1.0460000  2
  13071  13074  13075  13076     1  0.0000000  0.7531200  3
  13071  13074  13075  13081     1  0.0000000  0.6508444  3
  13074  13071  13070  13084     1  180.0000771  0.8368000  1
  13074  13071  13070  13084     1  180.0000771  1.0460000  2
  13074  13071  13070  13084     1  0.0000000  0.7531200  3
  13074  13071  13070  13092     1  0.0000000  0.6508444  3
  13074  13075  13076  13080     1  0.0000000  0.6508444  3
  13074  13075  13076  13092     1  0.0000000  0.6508444  3
  13075  13074  13071  13083     1  0.0000000  0.6508444  3
  13076  13075  13074  13082     1  0.0000000  0.6508444  3
  13076  13092  13070  13084     1  180.0000771  0.4184000  2
  13076  13092  13070  13084     1  0.0000000  1.6024720  3
  13080  13076  13075  13081     1  0.0000000  4.9162000  2
  13080  13076  13075  13081     1  0.0000000  0.6024960  3
  13081  13075  13074  13082     1  0.0000000  4.9162000  2
  13081  13075  13074  13082     1  0.0000000  0.6024960  3
  13081  13075  13076  13092     1  0.0000000  4.9162000  2
  13081  13075  13076  13092     1  0.0000000  0.6024960  3
  13082  13074  13071  13083     1  0.0000000  4.9162000  2
  13082  13074  13071  13083     1  0.0000000  0.6024960  3
  13083  13071  13070  13084     1  0.0000000  0.6508444  3
  13083  13071  13070  13092     1  0.0000000  4.9162000  2
  13083  13071  13070  13092     1  0.0000000  0.6024960  3
  13090  13084  13070  13092     1  0.0000000  4.9162000  2
  13090  13084  13070  13092     1  0.0000000  0.6024960  3
  13093  13094  13097  13098     1  180.0000771  0.8368000  1
  13093  13094  13097  13098     1  180.0000771  1.0460000  2
  13093  13094  13097  13098     1  0.0000000  0.7531200  3
  13093  13094  13097  13105     1  0.0000000  0.6508444  3
  13093  13115  13099  13103     1  180.0000771  5.6484000  1
  13093  13115  13099  13103     1  180.0000771  3.5564000  2
  13093  13115  13099  13103     1  0.0000000  0.4184000  3
  13093  13115  13099  13098     1  180.0000771  0.4184000  2
  13093  13115  13099  13098     1  0.0000000  1.6024720  3
  13094  13097  13098  13099     1  180.0000771  0.8368000  1
  13094  13097  13098  13099     1  180.0000771  1.0460000  2
  13094  13097  13098  13099     1  0.0000000  0.7531200  3
  13094  13097  13098  13104     1  0.0000000  0.6508444  3
  13094  13093  13107  13113     1  0.0000000  0.6508444  3
  13094  13093  13115  13099     1  180.0000771  0.4184000  2
  13094  13093  13115  13099     1  0.0000000  1.6024720  3
  13097  13098  13099  13103     1  0.0000000  0.6508444  3
  13097  13098  13099  13115     1  0.0000000  0.6508444  3
  13097  13094  13093  13107     1  180.0000771  0.8368000  1
  13097  13094  13093  13107     1  180.0000771  1.0460000  2
  13097  13094  13093  13107     1  0.0000000  0.7531200  3
  13097  13094  13093  13115     1  0.0000000  0.6508444  3
  13098  13097  13094  13106     1  0.0000000  0.6508444  3
  13099  13115  13093  13107     1  180.0000771  0.4184000  2
  13099  13115  13093  13107     1  0.0000000  1.6024720  3
  13099  13098  13097  13105     1  0.0000000  0.6508444  3
  13103  13099  13098  13104     1  0.0000000  4.9162000  2
  13103  13099  13098  13104     1  0.0000000  0.6024960  3
  13104  13098  13099  13115     1  0.0000000  4.9162000  2
  13104  13098  13099  13115     1  0.0000000  0.6024960  3
  13104  13098  13097  13105     1  0.0000000  4.9162000  2
  13104  13098  13097  13105     1  0.0000000  0.6024960  3
  13105  13097  13094  13106     1  0.0000000  4.9162000  2
  13105  13097  13094  13106     1  0.0000000  0.6024960  3
  13106  13094  13093  13107     1  0.0000000  0.6508444  3
  13106  13094  13093  13115     1  0.0000000  4.9162000  2
  13106  13094  13093  13115     1  0.0000000  0.6024960  3
  13113  13107  13093  13115     1  0.0000000  4.9162000  2
  13113  13107  13093  13115     1  0.0000000  0.6024960  3
  13116  13117  13120  13121     1  180.0000771  0.8368000  1
  13116  13117  13120  13121     1  180.0000771  1.0460000  2
  13116  13117  13120  13121     1  0.0000000  0.7531200  3
  13116  13117  13120  13128     1  0.0000000  0.6508444  3
  13116  13138  13122  13121     1  180.0000771  0.4184000  2
  13116  13138  13122  13121     1  0.0000000  1.6024720  3
  13116  13138  13122  13126     1  180.0000771  5.6484000  1
  13116  13138  13122  13126     1  180.0000771  3.5564000  2
  13116  13138  13122  13126     1  0.0000000  0.4184000  3
  13117  13116  13130  13136     1  0.0000000  0.6508444  3
  13117  13116  13138  13122     1  180.0000771  0.4184000  2
  13117  13116  13138  13122     1  0.0000000  1.6024720  3
  13117  13120  13121  13122     1  180.0000771  0.8368000  1
  13117  13120  13121  13122     1  180.0000771  1.0460000  2
  13117  13120  13121  13122     1  0.0000000  0.7531200  3
  13117  13120  13121  13127     1  0.0000000  0.6508444  3
  13120  13117  13116  13130     1  180.0000771  0.8368000  1
  13120  13117  13116  13130     1  180.0000771  1.0460000  2
  13120  13117  13116  13130     1  0.0000000  0.7531200  3
  13120  13117  13116  13138     1  0.0000000  0.6508444  3
  13120  13121  13122  13126     1  0.0000000  0.6508444  3
  13120  13121  13122  13138     1  0.0000000  0.6508444  3
  13121  13120  13117  13129     1  0.0000000  0.6508444  3
  13122  13121  13120  13128     1  0.0000000  0.6508444  3
  13122  13138  13116  13130     1  180.0000771  0.4184000  2
  13122  13138  13116  13130     1  0.0000000  1.6024720  3
  13126  13122  13121  13127     1  0.0000000  4.9162000  2
  13126  13122  13121  13127     1  0.0000000  0.6024960  3
  13127  13121  13120  13128     1  0.0000000  4.9162000  2
  13127  13121  13120  13128     1  0.0000000  0.6024960  3
  13127  13121  13122  13138     1  0.0000000  4.9162000  2
  13127  13121  13122  13138     1  0.0000000  0.6024960  3
  13128  13120  13117  13129     1  0.0000000  4.9162000  2
  13128  13120  13117  13129     1  0.0000000  0.6024960  3
  13129  13117  13116  13130     1  0.0000000  0.6508444  3
  13129  13117  13116  13138     1  0.0000000  4.9162000  2
  13129  13117  13116  13138     1  0.0000000  0.6024960  3
  13136  13130  13116  13138     1  0.0000000  4.9162000  2
  13136  13130  13116  13138     1  0.0000000  0.6024960  3
  13139  13140  13143  13144     1  180.0000771  0.8368000  1
  13139  13140  13143  13144     1  180.0000771  1.0460000  2
  13139  13140  13143  13144     1  0.0000000  0.7531200  3
  13139  13140  13143  13151     1  0.0000000  0.6508444  3
  13139  13161  13145  13149     1  180.0000771  5.6484000  1
  13139  13161  13145  13149     1  180.0000771  3.5564000  2
  13139  13161  13145  13149     1  0.0000000  0.4184000  3
  13139  13161  13145  13144     1  180.0000771  0.4184000  2
  13139  13161  13145  13144     1  0.0000000  1.6024720  3
  13140  13143  13144  13145     1  180.0000771  0.8368000  1
  13140  13143  13144  13145     1  180.0000771  1.0460000  2
  13140  13143  13144  13145     1  0.0000000  0.7531200  3
  13140  13143  13144  13150     1  0.0000000  0.6508444  3
  13140  13139  13153  13159     1  0.0000000  0.6508444  3
  13140  13139  13161  13145     1  180.0000771  0.4184000  2
  13140  13139  13161  13145     1  0.0000000  1.6024720  3
  13143  13144  13145  13149     1  0.0000000  0.6508444  3
  13143  13144  13145  13161     1  0.0000000  0.6508444  3
  13143  13140  13139  13153     1  180.0000771  0.8368000  1
  13143  13140  13139  13153     1  180.0000771  1.0460000  2
  13143  13140  13139  13153     1  0.0000000  0.7531200  3
  13143  13140  13139  13161     1  0.0000000  0.6508444  3
  13144  13143  13140  13152     1  0.0000000  0.6508444  3
  13145  13161  13139  13153     1  180.0000771  0.4184000  2
  13145  13161  13139  13153     1  0.0000000  1.6024720  3
  13145  13144  13143  13151     1  0.0000000  0.6508444  3
  13149  13145  13144  13150     1  0.0000000  4.9162000  2
  13149  13145  13144  13150     1  0.0000000  0.6024960  3
  13150  13144  13145  13161     1  0.0000000  4.9162000  2
  13150  13144  13145  13161     1  0.0000000  0.6024960  3
  13150  13144  13143  13151     1  0.0000000  4.9162000  2
  13150  13144  13143  13151     1  0.0000000  0.6024960  3
  13151  13143  13140  13152     1  0.0000000  4.9162000  2
  13151  13143  13140  13152     1  0.0000000  0.6024960  3
  13152  13140  13139  13153     1  0.0000000  0.6508444  3
  13152  13140  13139  13161     1  0.0000000  4.9162000  2
  13152  13140  13139  13161     1  0.0000000  0.6024960  3
  13159  13153  13139  13161     1  0.0000000  4.9162000  2
  13159  13153  13139  13161     1  0.0000000  0.6024960  3
  13162  13163  13166  13167     1  180.0000771  0.8368000  1
  13162  13163  13166  13167     1  180.0000771  1.0460000  2
  13162  13163  13166  13167     1  0.0000000  0.7531200  3
  13162  13163  13166  13174     1  0.0000000  0.6508444  3
  13162  13184  13168  13167     1  180.0000771  0.4184000  2
  13162  13184  13168  13167     1  0.0000000  1.6024720  3
  13162  13184  13168  13172     1  180.0000771  5.6484000  1
  13162  13184  13168  13172     1  180.0000771  3.5564000  2
  13162  13184  13168  13172     1  0.0000000  0.4184000  3
  13163  13162  13176  13182     1  0.0000000  0.6508444  3
  13163  13162  13184  13168     1  180.0000771  0.4184000  2
  13163  13162  13184  13168     1  0.0000000  1.6024720  3
  13163  13166  13167  13168     1  180.0000771  0.8368000  1
  13163  13166  13167  13168     1  180.0000771  1.0460000  2
  13163  13166  13167  13168     1  0.0000000  0.7531200  3
  13163  13166  13167  13173     1  0.0000000  0.6508444  3
  13166  13163  13162  13176     1  180.0000771  0.8368000  1
  13166  13163  13162  13176     1  180.0000771  1.0460000  2
  13166  13163  13162  13176     1  0.0000000  0.7531200  3
  13166  13163  13162  13184     1  0.0000000  0.6508444  3
  13166  13167  13168  13172     1  0.0000000  0.6508444  3
  13166  13167  13168  13184     1  0.0000000  0.6508444  3
  13167  13166  13163  13175     1  0.0000000  0.6508444  3
  13168  13167  13166  13174     1  0.0000000  0.6508444  3
  13168  13184  13162  13176     1  180.0000771  0.4184000  2
  13168  13184  13162  13176     1  0.0000000  1.6024720  3
  13172  13168  13167  13173     1  0.0000000  4.9162000  2
  13172  13168  13167  13173     1  0.0000000  0.6024960  3
  13173  13167  13166  13174     1  0.0000000  4.9162000  2
  13173  13167  13166  13174     1  0.0000000  0.6024960  3
  13173  13167  13168  13184     1  0.0000000  4.9162000  2
  13173  13167  13168  13184     1  0.0000000  0.6024960  3
  13174  13166  13163  13175     1  0.0000000  4.9162000  2
  13174  13166  13163  13175     1  0.0000000  0.6024960  3
  13175  13163  13162  13176     1  0.0000000  0.6508444  3
  13175  13163  13162  13184     1  0.0000000  4.9162000  2
  13175  13163  13162  13184     1  0.0000000  0.6024960  3
  13182  13176  13162  13184     1  0.0000000  4.9162000  2
  13182  13176  13162  13184     1  0.0000000  0.6024960  3
  13185  13186  13189  13190     1  180.0000771  0.8368000  1
  13185  13186  13189  13190     1  180.0000771  1.0460000  2
  13185  13186  13189  13190     1  0.0000000  0.7531200  3
  13185  13186  13189  13197     1  0.0000000  0.6508444  3
  13185  13207  13191  13195     1  180.0000771  5.6484000  1
  13185  13207  13191  13195     1  180.0000771  3.5564000  2
  13185  13207  13191  13195     1  0.0000000  0.4184000  3
  13185  13207  13191  13190     1  180.0000771  0.4184000  2
  13185  13207  13191  13190     1  0.0000000  1.6024720  3
  13186  13189  13190  13191     1  180.0000771  0.8368000  1
  13186  13189  13190  13191     1  180.0000771  1.0460000  2
  13186  13189  13190  13191     1  0.0000000  0.7531200  3
  13186  13189  13190  13196     1  0.0000000  0.6508444  3
  13186  13185  13199  13205     1  0.0000000  0.6508444  3
  13186  13185  13207  13191     1  180.0000771  0.4184000  2
  13186  13185  13207  13191     1  0.0000000  1.6024720  3
  13189  13190  13191  13195     1  0.0000000  0.6508444  3
  13189  13190  13191  13207     1  0.0000000  0.6508444  3
  13189  13186  13185  13199     1  180.0000771  0.8368000  1
  13189  13186  13185  13199     1  180.0000771  1.0460000  2
  13189  13186  13185  13199     1  0.0000000  0.7531200  3
  13189  13186  13185  13207     1  0.0000000  0.6508444  3
  13190  13189  13186  13198     1  0.0000000  0.6508444  3
  13191  13207  13185  13199     1  180.0000771  0.4184000  2
  13191  13207  13185  13199     1  0.0000000  1.6024720  3
  13191  13190  13189  13197     1  0.0000000  0.6508444  3
  13195  13191  13190  13196     1  0.0000000  4.9162000  2
  13195  13191  13190  13196     1  0.0000000  0.6024960  3
  13196  13190  13191  13207     1  0.0000000  4.9162000  2
  13196  13190  13191  13207     1  0.0000000  0.6024960  3
  13196  13190  13189  13197     1  0.0000000  4.9162000  2
  13196  13190  13189  13197     1  0.0000000  0.6024960  3
  13197  13189  13186  13198     1  0.0000000  4.9162000  2
  13197  13189  13186  13198     1  0.0000000  0.6024960  3
  13198  13186  13185  13199     1  0.0000000  0.6508444  3
  13198  13186  13185  13207     1  0.0000000  4.9162000  2
  13198  13186  13185  13207     1  0.0000000  0.6024960  3
  13205  13199  13185  13207     1  0.0000000  4.9162000  2
  13205  13199  13185  13207     1  0.0000000  0.6024960  3
  13208  13209  13212  13213     1  180.0000771  0.8368000  1
  13208  13209  13212  13213     1  180.0000771  1.0460000  2
  13208  13209  13212  13213     1  0.0000000  0.7531200  3
  13208  13209  13212  13220     1  0.0000000  0.6508444  3
  13208  13230  13214  13213     1  180.0000771  0.4184000  2
  13208  13230  13214  13213     1  0.0000000  1.6024720  3
  13208  13230  13214  13218     1  180.0000771  5.6484000  1
  13208  13230  13214  13218     1  180.0000771  3.5564000  2
  13208  13230  13214  13218     1  0.0000000  0.4184000  3
  13209  13208  13222  13228     1  0.0000000  0.6508444  3
  13209  13208  13230  13214     1  180.0000771  0.4184000  2
  13209  13208  13230  13214     1  0.0000000  1.6024720  3
  13209  13212  13213  13214     1  180.0000771  0.8368000  1
  13209  13212  13213  13214     1  180.0000771  1.0460000  2
  13209  13212  13213  13214     1  0.0000000  0.7531200  3
  13209  13212  13213  13219     1  0.0000000  0.6508444  3
  13212  13209  13208  13222     1  180.0000771  0.8368000  1
  13212  13209  13208  13222     1  180.0000771  1.0460000  2
  13212  13209  13208  13222     1  0.0000000  0.7531200  3
  13212  13209  13208  13230     1  0.0000000  0.6508444  3
  13212  13213  13214  13218     1  0.0000000  0.6508444  3
  13212  13213  13214  13230     1  0.0000000  0.6508444  3
  13213  13212  13209  13221     1  0.0000000  0.6508444  3
  13214  13213  13212  13220     1  0.0000000  0.6508444  3
  13214  13230  13208  13222     1  180.0000771  0.4184000  2
  13214  13230  13208  13222     1  0.0000000  1.6024720  3
  13218  13214  13213  13219     1  0.0000000  4.9162000  2
  13218  13214  13213  13219     1  0.0000000  0.6024960  3
  13219  13213  13212  13220     1  0.0000000  4.9162000  2
  13219  13213  13212  13220     1  0.0000000  0.6024960  3
  13219  13213  13214  13230     1  0.0000000  4.9162000  2
  13219  13213  13214  13230     1  0.0000000  0.6024960  3
  13220  13212  13209  13221     1  0.0000000  4.9162000  2
  13220  13212  13209  13221     1  0.0000000  0.6024960  3
  13221  13209  13208  13222     1  0.0000000  0.6508444  3
  13221  13209  13208  13230     1  0.0000000  4.9162000  2
  13221  13209  13208  13230     1  0.0000000  0.6024960  3
  13228  13222  13208  13230     1  0.0000000  4.9162000  2
  13228  13222  13208  13230     1  0.0000000  0.6024960  3
  13231  13232  13235  13236     1  180.0000771  0.8368000  1
  13231  13232  13235  13236     1  180.0000771  1.0460000  2
  13231  13232  13235  13236     1  0.0000000  0.7531200  3
  13231  13232  13235  13243     1  0.0000000  0.6508444  3
  13231  13253  13237  13241     1  180.0000771  5.6484000  1
  13231  13253  13237  13241     1  180.0000771  3.5564000  2
  13231  13253  13237  13241     1  0.0000000  0.4184000  3
  13231  13253  13237  13236     1  180.0000771  0.4184000  2
  13231  13253  13237  13236     1  0.0000000  1.6024720  3
  13232  13235  13236  13237     1  180.0000771  0.8368000  1
  13232  13235  13236  13237     1  180.0000771  1.0460000  2
  13232  13235  13236  13237     1  0.0000000  0.7531200  3
  13232  13235  13236  13242     1  0.0000000  0.6508444  3
  13232  13231  13245  13251     1  0.0000000  0.6508444  3
  13232  13231  13253  13237     1  180.0000771  0.4184000  2
  13232  13231  13253  13237     1  0.0000000  1.6024720  3
  13235  13236  13237  13241     1  0.0000000  0.6508444  3
  13235  13236  13237  13253     1  0.0000000  0.6508444  3
  13235  13232  13231  13245     1  180.0000771  0.8368000  1
  13235  13232  13231  13245     1  180.0000771  1.0460000  2
  13235  13232  13231  13245     1  0.0000000  0.7531200  3
  13235  13232  13231  13253     1  0.0000000  0.6508444  3
  13236  13235  13232  13244     1  0.0000000  0.6508444  3
  13237  13253  13231  13245     1  180.0000771  0.4184000  2
  13237  13253  13231  13245     1  0.0000000  1.6024720  3
  13237  13236  13235  13243     1  0.0000000  0.6508444  3
  13241  13237  13236  13242     1  0.0000000  4.9162000  2
  13241  13237  13236  13242     1  0.0000000  0.6024960  3
  13242  13236  13237  13253     1  0.0000000  4.9162000  2
  13242  13236  13237  13253     1  0.0000000  0.6024960  3
  13242  13236  13235  13243     1  0.0000000  4.9162000  2
  13242  13236  13235  13243     1  0.0000000  0.6024960  3
  13243  13235  13232  13244     1  0.0000000  4.9162000  2
  13243  13235  13232  13244     1  0.0000000  0.6024960  3
  13244  13232  13231  13245     1  0.0000000  0.6508444  3
  13244  13232  13231  13253     1  0.0000000  4.9162000  2
  13244  13232  13231  13253     1  0.0000000  0.6024960  3
  13251  13245  13231  13253     1  0.0000000  4.9162000  2
  13251  13245  13231  13253     1  0.0000000  0.6024960  3
      1      2      8      9     1  0.0000000  1.0460000  1
      1      2      8      9     1  0.0000000  0.0000000  3
      1      2      8     10     1  0.0000000  1.0460000  1
      1      2      8     10     1  0.0000000  0.0000000  3
      1      5     11     12     1  0.0000000  1.0460000  1
      1      5     11     12     1  0.0000000  0.0000000  3
      1      5     11     13     1  0.0000000  1.0460000  1
      1      5     11     13     1  0.0000000  0.0000000  3
      2      1      5      6     1  0.0000000  1.6038667  3
      2      1      5      7     1  0.0000000  1.6038667  3
      2      8     14     15     1  0.0000000  0.6508444  3
      2      8     14     16     1  0.0000000  0.6508444  3
      5      1      2      3     1  0.0000000  1.6038667  3
      3      2      8     14     1  0.0000000  0.6508444  3
      3      2      8      9     1  0.0000000  0.6508444  3
      3      2      8     10     1  0.0000000  0.6508444  3
      5      1      2      4     1  0.0000000  1.6038667  3
      4      2      8     14     1  0.0000000  0.6508444  3
      4      2      8      9     1  0.0000000  0.6508444  3
      4      2      8     10     1  0.0000000  0.6508444  3
      5     11     17     18     1  0.0000000  0.6508444  3
      5     11     17     19     1  0.0000000  0.6508444  3
      6      5     11     17     1  0.0000000  0.6508444  3
      6      5     11     12     1  0.0000000  0.6508444  3
      6      5     11     13     1  0.0000000  0.6508444  3
      7      5     11     17     1  0.0000000  0.6508444  3
      7      5     11     12     1  0.0000000  0.6508444  3
      7      5     11     13     1  0.0000000  0.6508444  3
      9      8     14     20     1  0.0000000  0.6508444  3
      9      8     14     15     1  0.0000000  0.6508444  3
      9      8     14     16     1  0.0000000  0.6508444  3
     10      8     14     20     1  0.0000000  0.6508444  3
     10      8     14     15     1  0.0000000  0.6508444  3
     10      8     14     16     1  0.0000000  0.6508444  3
     12     11     17     21     1  0.0000000  0.6508444  3
     12     11     17     18     1  0.0000000  0.6508444  3
     12     11     17     19     1  0.0000000  0.6508444  3
     13     11     17     21     1  0.0000000  0.6508444  3
     13     11     17     18     1  0.0000000  0.6508444  3
     13     11     17     19     1  0.0000000  0.6508444  3
     14     20     28     29     1  0.0000000  1.2552000  3
     14     20     28     30     1  0.0000000  1.2552000  3
     14     20     31     32     1  0.0000000  1.2552000  3
     14     20     31     33     1  0.0000000  1.2552000  3
     15     14     20     28     1  0.0000000  1.2552000  3
     15     14     20     31     1  0.0000000  1.2552000  3
     16     14     20     28     1  0.0000000  1.2552000  3
     16     14     20     31     1  0.0000000  1.2552000  3
     17     21     22     23     1  0.0000000  1.2552000  3
     17     21     22     24     1  0.0000000  1.2552000  3
     17     21     25     26     1  0.0000000  1.2552000  3
     17     21     25     27     1  0.0000000  1.2552000  3
     18     17     21     22     1  0.0000000  1.2552000  3
     18     17     21     25     1  0.0000000  1.2552000  3
     19     17     21     22     1  0.0000000  1.2552000  3
     19     17     21     25     1  0.0000000  1.2552000  3
     20     28     40     41     1  0.0000000  0.6508444  3
     20     28     40     42     1  0.0000000  0.6508444  3
     20     31     43     44     1  0.0000000  0.6508444  3
     20     31     43     45     1  0.0000000  0.6508444  3
     21     22     34     35     1  0.0000000  0.6508444  3
     21     22     34     36     1  0.0000000  0.6508444  3
     21     25     37     38     1  0.0000000  0.6508444  3
     21     25     37     39     1  0.0000000  0.6508444  3
     22     21     25     26     1  0.0000000  1.2552000  3
     22     21     25     27     1  0.0000000  1.2552000  3
     22     34     55     56     1  0.0000000  0.6508444  3
     22     34     55     57     1  0.0000000  0.6508444  3
     23     22     21     25     1  0.0000000  1.2552000  3
     23     22     34     55     1  0.0000000  0.6508444  3
     23     22     34     35     1  0.0000000  0.6508444  3
     23     22     34     36     1  0.0000000  0.6508444  3
     24     22     21     25     1  0.0000000  1.2552000  3
     24     22     34     55     1  0.0000000  0.6508444  3
     24     22     34     35     1  0.0000000  0.6508444  3
     24     22     34     36     1  0.0000000  0.6508444  3
     25     37     52     53     1  0.0000000  0.6508444  3
     25     37     52     54     1  0.0000000  0.6508444  3
     26     25     37     52     1  0.0000000  0.6508444  3
     26     25     37     38     1  0.0000000  0.6508444  3
     26     25     37     39     1  0.0000000  0.6508444  3
     27     25     37     52     1  0.0000000  0.6508444  3
     27     25     37     38     1  0.0000000  0.6508444  3
     27     25     37     39     1  0.0000000  0.6508444  3
     28     20     31     32     1  0.0000000  1.2552000  3
     28     20     31     33     1  0.0000000  1.2552000  3
     28     40     49     50     1  0.0000000  0.6508444  3
     28     40     49     51     1  0.0000000  0.6508444  3
     29     28     20     31     1  0.0000000  1.2552000  3
     29     28     40     49     1  0.0000000  0.6508444  3
     29     28     40     41     1  0.0000000  0.6508444  3
     29     28     40     42     1  0.0000000  0.6508444  3
     30     28     20     31     1  0.0000000  1.2552000  3
     30     28     40     49     1  0.0000000  0.6508444  3
     30     28     40     41     1  0.0000000  0.6508444  3
     30     28     40     42     1  0.0000000  0.6508444  3
     31     43     46     47     1  0.0000000  0.6508444  3
     31     43     46     48     1  0.0000000  0.6508444  3
     32     31     43     46     1  0.0000000  0.6508444  3
     32     31     43     44     1  0.0000000  0.6508444  3
     32     31     43     45     1  0.0000000  0.6508444  3
     33     31     43     46     1  0.0000000  0.6508444  3
     33     31     43     44     1  0.0000000  0.6508444  3
     33     31     43     45     1  0.0000000  0.6508444  3
     35     34     55    173     1  0.0000000  1.0460000  1
     35     34     55    173     1  0.0000000  0.0000000  3
     35     34     55     56     1  0.0000000  0.6508444  3
     35     34     55     57     1  0.0000000  0.6508444  3
     36     34     55    173     1  0.0000000  1.0460000  1
     36     34     55    173     1  0.0000000  0.0000000  3
     36     34     55     56     1  0.0000000  0.6508444  3
     36     34     55     57     1  0.0000000  0.6508444  3
     38     37     52    144     1  0.0000000  1.0460000  1
     38     37     52    144     1  0.0000000  0.0000000  3
     38     37     52     53     1  0.0000000  0.6508444  3
     38     37     52     54     1  0.0000000  0.6508444  3
     39     37     52    144     1  0.0000000  1.0460000  1
     39     37     52    144     1  0.0000000  0.0000000  3
     39     37     52     53     1  0.0000000  0.6508444  3
     39     37     52     54     1  0.0000000  0.6508444  3
     41     40     49    115     1  0.0000000  1.0460000  1
     41     40     49    115     1  0.0000000  0.0000000  3
     41     40     49     50     1  0.0000000  0.6508444  3
     41     40     49     51     1  0.0000000  0.6508444  3
     42     40     49    115     1  0.0000000  1.0460000  1
     42     40     49    115     1  0.0000000  0.0000000  3
     42     40     49     50     1  0.0000000  0.6508444  3
     42     40     49     51     1  0.0000000  0.6508444  3
     44     43     46     86     1  0.0000000  1.0460000  1
     44     43     46     86     1  0.0000000  0.0000000  3
     44     43     46     47     1  0.0000000  0.6508444  3
     44     43     46     48     1  0.0000000  0.6508444  3
     45     43     46     86     1  0.0000000  1.0460000  1
     45     43     46     86     1  0.0000000  0.0000000  3
     45     43     46     47     1  0.0000000  0.6508444  3
     45     43     46     48     1  0.0000000  0.6508444  3
     46     86     77     78     1  0.0000000  1.6038667  3
     46     86     77     79     1  0.0000000  1.6038667  3
     47     46     86     77     1  0.0000000  1.6038667  3
     48     46     86     77     1  0.0000000  1.6038667  3
     49    115    106    107     1  0.0000000  1.6038667  3
     49    115    106    108     1  0.0000000  1.6038667  3
     50     49    115    106     1  0.0000000  1.6038667  3
     51     49    115    106     1  0.0000000  1.6038667  3
     52    144    135    136     1  0.0000000  1.6038667  3
     52    144    135    137     1  0.0000000  1.6038667  3
     53     52    144    135     1  0.0000000  1.6038667  3
     54     52    144    135     1  0.0000000  1.6038667  3
     55    173    164    165     1  0.0000000  1.6038667  3
     55    173    164    166     1  0.0000000  1.6038667  3
     56     55    173    164     1  0.0000000  1.6038667  3
     57     55    173    164     1  0.0000000  1.6038667  3
     58     59     71     72     1  0.0000000  0.6508444  3
     58     59     71     73     1  0.0000000  0.6508444  3
     58     62     74     75     1  0.0000000  0.6508444  3
     58     62     74     76     1  0.0000000  0.6508444  3
     58     65     68     69     1  0.0000000  0.6508444  3
     58     65     68     70     1  0.0000000  0.6508444  3
     59     58     62     63     1  0.0000000  1.2552000  3
     59     58     62     64     1  0.0000000  1.2552000  3
     59     58     65     66     1  0.0000000  1.2552000  3
     59     58     65     67     1  0.0000000  1.2552000  3
     59     71     83     84     1  0.0000000  0.6508444  3
     59     71     83     85     1  0.0000000  0.6508444  3
     60     59     58     62     1  0.0000000  1.2552000  3
     60     59     58     65     1  0.0000000  1.2552000  3
     60     59     71     83     1  0.0000000  0.6508444  3
     60     59     71     72     1  0.0000000  0.6508444  3
     60     59     71     73     1  0.0000000  0.6508444  3
     61     59     58     62     1  0.0000000  1.2552000  3
     61     59     58     65     1  0.0000000  1.2552000  3
     61     59     71     83     1  0.0000000  0.6508444  3
     61     59     71     72     1  0.0000000  0.6508444  3
     61     59     71     73     1  0.0000000  0.6508444  3
     62     58     65     66     1  0.0000000  1.2552000  3
     62     58     65     67     1  0.0000000  1.2552000  3
     62     74     80     81     1  0.0000000  0.6508444  3
     62     74     80     82     1  0.0000000  0.6508444  3
     63     62     58     65     1  0.0000000  1.2552000  3
     63     62     74     80     1  0.0000000  0.6508444  3
     63     62     74     75     1  0.0000000  0.6508444  3
     63     62     74     76     1  0.0000000  0.6508444  3
     64     62     58     65     1  0.0000000  1.2552000  3
     64     62     74     80     1  0.0000000  0.6508444  3
     64     62     74     75     1  0.0000000  0.6508444  3
     64     62     74     76     1  0.0000000  0.6508444  3
     65     68     77     78     1  0.0000000  0.6508444  3
     65     68     77     79     1  0.0000000  0.6508444  3
     66     65     68     77     1  0.0000000  0.6508444  3
     66     65     68     69     1  0.0000000  0.6508444  3
     66     65     68     70     1  0.0000000  0.6508444  3
     67     65     68     77     1  0.0000000  0.6508444  3
     67     65     68     69     1  0.0000000  0.6508444  3
     67     65     68     70     1  0.0000000  0.6508444  3
     69     68     77     86     1  0.0000000  1.0460000  1
     69     68     77     86     1  0.0000000  0.0000000  3
     69     68     77     78     1  0.0000000  0.6508444  3
     69     68     77     79     1  0.0000000  0.6508444  3
     70     68     77     86     1  0.0000000  1.0460000  1
     70     68     77     86     1  0.0000000  0.0000000  3
     70     68     77     78     1  0.0000000  0.6508444  3
     70     68     77     79     1  0.0000000  0.6508444  3
     72     71     83    231     1  0.0000000  1.0460000  1
     72     71     83    231     1  0.0000000  0.0000000  3
     72     71     83     84     1  0.0000000  0.6508444  3
     72     71     83     85     1  0.0000000  0.6508444  3
     73     71     83    231     1  0.0000000  1.0460000  1
     73     71     83    231     1  0.0000000  0.0000000  3
     73     71     83     84     1  0.0000000  0.6508444  3
     73     71     83     85     1  0.0000000  0.6508444  3
     75     74     80    202     1  0.0000000  1.0460000  1
     75     74     80    202     1  0.0000000  0.0000000  3
     75     74     80     81     1  0.0000000  0.6508444  3
     75     74     80     82     1  0.0000000  0.6508444  3
     76     74     80    202     1  0.0000000  1.0460000  1
     76     74     80    202     1  0.0000000  0.0000000  3
     76     74     80     81     1  0.0000000  0.6508444  3
     76     74     80     82     1  0.0000000  0.6508444  3
     80    202    193    194     1  0.0000000  1.6038667  3
     80    202    193    195     1  0.0000000  1.6038667  3
     81     80    202    193     1  0.0000000  1.6038667  3
     82     80    202    193     1  0.0000000  1.6038667  3
     83    231    222    223     1  0.0000000  1.6038667  3
     83    231    222    224     1  0.0000000  1.6038667  3
     84     83    231    222     1  0.0000000  1.6038667  3
     85     83    231    222     1  0.0000000  1.6038667  3
     87     88    100    101     1  0.0000000  0.6508444  3
     87     88    100    102     1  0.0000000  0.6508444  3
     87     91    103    104     1  0.0000000  0.6508444  3
     87     91    103    105     1  0.0000000  0.6508444  3
     87     94     97     98     1  0.0000000  0.6508444  3
     87     94     97     99     1  0.0000000  0.6508444  3
     88     87     91     92     1  0.0000000  1.2552000  3
     88     87     91     93     1  0.0000000  1.2552000  3
     88     87     94     95     1  0.0000000  1.2552000  3
     88     87     94     96     1  0.0000000  1.2552000  3
     88    100    112    113     1  0.0000000  0.6508444  3
     88    100    112    114     1  0.0000000  0.6508444  3
     89     88     87     91     1  0.0000000  1.2552000  3
     89     88     87     94     1  0.0000000  1.2552000  3
     89     88    100    112     1  0.0000000  0.6508444  3
     89     88    100    101     1  0.0000000  0.6508444  3
     89     88    100    102     1  0.0000000  0.6508444  3
     90     88     87     91     1  0.0000000  1.2552000  3
     90     88     87     94     1  0.0000000  1.2552000  3
     90     88    100    112     1  0.0000000  0.6508444  3
     90     88    100    101     1  0.0000000  0.6508444  3
     90     88    100    102     1  0.0000000  0.6508444  3
     91     87     94     95     1  0.0000000  1.2552000  3
     91     87     94     96     1  0.0000000  1.2552000  3
     91    103    109    110     1  0.0000000  0.6508444  3
     91    103    109    111     1  0.0000000  0.6508444  3
     92     91     87     94     1  0.0000000  1.2552000  3
     92     91    103    109     1  0.0000000  0.6508444  3
     92     91    103    104     1  0.0000000  0.6508444  3
     92     91    103    105     1  0.0000000  0.6508444  3
     93     91     87     94     1  0.0000000  1.2552000  3
     93     91    103    109     1  0.0000000  0.6508444  3
     93     91    103    104     1  0.0000000  0.6508444  3
     93     91    103    105     1  0.0000000  0.6508444  3
     94     97    106    107     1  0.0000000  0.6508444  3
     94     97    106    108     1  0.0000000  0.6508444  3
     95     94     97    106     1  0.0000000  0.6508444  3
     95     94     97     98     1  0.0000000  0.6508444  3
     95     94     97     99     1  0.0000000  0.6508444  3
     96     94     97    106     1  0.0000000  0.6508444  3
     96     94     97     98     1  0.0000000  0.6508444  3
     96     94     97     99     1  0.0000000  0.6508444  3
     98     97    106    115     1  0.0000000  1.0460000  1
     98     97    106    115     1  0.0000000  0.0000000  3
     98     97    106    107     1  0.0000000  0.6508444  3
     98     97    106    108     1  0.0000000  0.6508444  3
     99     97    106    115     1  0.0000000  1.0460000  1
     99     97    106    115     1  0.0000000  0.0000000  3
     99     97    106    107     1  0.0000000  0.6508444  3
     99     97    106    108     1  0.0000000  0.6508444  3
    101    100    112    289     1  0.0000000  1.0460000  1
    101    100    112    289     1  0.0000000  0.0000000  3
    101    100    112    113     1  0.0000000  0.6508444  3
    101    100    112    114     1  0.0000000  0.6508444  3
    102    100    112    289     1  0.0000000  1.0460000  1
    102    100    112    289     1  0.0000000  0.0000000  3
    102    100    112    113     1  0.0000000  0.6508444  3
    102    100    112    114     1  0.0000000  0.6508444  3
    104    103    109    260     1  0.0000000  1.0460000  1
    104    103    109    260     1  0.0000000  0.0000000  3
    104    103    109    110     1  0.0000000  0.6508444  3
    104    103    109    111     1  0.0000000  0.6508444  3
    105    103    109    260     1  0.0000000  1.0460000  1
    105    103    109    260     1  0.0000000  0.0000000  3
    105    103    109    110     1  0.0000000  0.6508444  3
    105    103    109    111     1  0.0000000  0.6508444  3
    109    260    251    252     1  0.0000000  1.6038667  3
    109    260    251    253     1  0.0000000  1.6038667  3
    110    109    260    251     1  0.0000000  1.6038667  3
    111    109    260    251     1  0.0000000  1.6038667  3
    112    289    280    281     1  0.0000000  1.6038667  3
    112    289    280    282     1  0.0000000  1.6038667  3
    113    112    289    280     1  0.0000000  1.6038667  3
    114    112    289    280     1  0.0000000  1.6038667  3
    116    117    129    130     1  0.0000000  0.6508444  3
    116    117    129    131     1  0.0000000  0.6508444  3
    116    120    132    133     1  0.0000000  0.6508444  3
    116    120    132    134     1  0.0000000  0.6508444  3
    116    123    126    127     1  0.0000000  0.6508444  3
    116    123    126    128     1  0.0000000  0.6508444  3
    117    116    120    121     1  0.0000000  1.2552000  3
    117    116    120    122     1  0.0000000  1.2552000  3
    117    116    123    124     1  0.0000000  1.2552000  3
    117    116    123    125     1  0.0000000  1.2552000  3
    117    129    141    142     1  0.0000000  0.6508444  3
    117    129    141    143     1  0.0000000  0.6508444  3
    118    117    116    120     1  0.0000000  1.2552000  3
    118    117    116    123     1  0.0000000  1.2552000  3
    118    117    129    141     1  0.0000000  0.6508444  3
    118    117    129    130     1  0.0000000  0.6508444  3
    118    117    129    131     1  0.0000000  0.6508444  3
    119    117    116    120     1  0.0000000  1.2552000  3
    119    117    116    123     1  0.0000000  1.2552000  3
    119    117    129    141     1  0.0000000  0.6508444  3
    119    117    129    130     1  0.0000000  0.6508444  3
    119    117    129    131     1  0.0000000  0.6508444  3
    120    116    123    124     1  0.0000000  1.2552000  3
    120    116    123    125     1  0.0000000  1.2552000  3
    120    132    138    139     1  0.0000000  0.6508444  3
    120    132    138    140     1  0.0000000  0.6508444  3
    121    120    116    123     1  0.0000000  1.2552000  3
    121    120    132    138     1  0.0000000  0.6508444  3
    121    120    132    133     1  0.0000000  0.6508444  3
    121    120    132    134     1  0.0000000  0.6508444  3
    122    120    116    123     1  0.0000000  1.2552000  3
    122    120    132    138     1  0.0000000  0.6508444  3
    122    120    132    133     1  0.0000000  0.6508444  3
    122    120    132    134     1  0.0000000  0.6508444  3
    123    126    135    136     1  0.0000000  0.6508444  3
    123    126    135    137     1  0.0000000  0.6508444  3
    124    123    126    135     1  0.0000000  0.6508444  3
    124    123    126    127     1  0.0000000  0.6508444  3
    124    123    126    128     1  0.0000000  0.6508444  3
    125    123    126    135     1  0.0000000  0.6508444  3
    125    123    126    127     1  0.0000000  0.6508444  3
    125    123    126    128     1  0.0000000  0.6508444  3
    127    126    135    144     1  0.0000000  1.0460000  1
    127    126    135    144     1  0.0000000  0.0000000  3
    127    126    135    136     1  0.0000000  0.6508444  3
    127    126    135    137     1  0.0000000  0.6508444  3
    128    126    135    144     1  0.0000000  1.0460000  1
    128    126    135    144     1  0.0000000  0.0000000  3
    128    126    135    136     1  0.0000000  0.6508444  3
    128    126    135    137     1  0.0000000  0.6508444  3
    130    129    141    347     1  0.0000000  1.0460000  1
    130    129    141    347     1  0.0000000  0.0000000  3
    130    129    141    142     1  0.0000000  0.6508444  3
    130    129    141    143     1  0.0000000  0.6508444  3
    131    129    141    347     1  0.0000000  1.0460000  1
    131    129    141    347     1  0.0000000  0.0000000  3
    131    129    141    142     1  0.0000000  0.6508444  3
    131    129    141    143     1  0.0000000  0.6508444  3
    133    132    138    318     1  0.0000000  1.0460000  1
    133    132    138    318     1  0.0000000  0.0000000  3
    133    132    138    139     1  0.0000000  0.6508444  3
    133    132    138    140     1  0.0000000  0.6508444  3
    134    132    138    318     1  0.0000000  1.0460000  1
    134    132    138    318     1  0.0000000  0.0000000  3
    134    132    138    139     1  0.0000000  0.6508444  3
    134    132    138    140     1  0.0000000  0.6508444  3
    138    318    309    310     1  0.0000000  1.6038667  3
    138    318    309    311     1  0.0000000  1.6038667  3
    139    138    318    309     1  0.0000000  1.6038667  3
    140    138    318    309     1  0.0000000  1.6038667  3
    141    347    338    339     1  0.0000000  1.6038667  3
    141    347    338    340     1  0.0000000  1.6038667  3
    142    141    347    338     1  0.0000000  1.6038667  3
    143    141    347    338     1  0.0000000  1.6038667  3
    145    146    158    159     1  0.0000000  0.6508444  3
    145    146    158    160     1  0.0000000  0.6508444  3
    145    149    161    162     1  0.0000000  0.6508444  3
    145    149    161    163     1  0.0000000  0.6508444  3
    145    152    155    156     1  0.0000000  0.6508444  3
    145    152    155    157     1  0.0000000  0.6508444  3
    146    145    149    150     1  0.0000000  1.2552000  3
    146    145    149    151     1  0.0000000  1.2552000  3
    146    145    152    153     1  0.0000000  1.2552000  3
    146    145    152    154     1  0.0000000  1.2552000  3
    146    158    170    171     1  0.0000000  0.6508444  3
    146    158    170    172     1  0.0000000  0.6508444  3
    147    146    145    149     1  0.0000000  1.2552000  3
    147    146    145    152     1  0.0000000  1.2552000  3
    147    146    158    170     1  0.0000000  0.6508444  3
    147    146    158    159     1  0.0000000  0.6508444  3
    147    146    158    160     1  0.0000000  0.6508444  3
    148    146    145    149     1  0.0000000  1.2552000  3
    148    146    145    152     1  0.0000000  1.2552000  3
    148    146    158    170     1  0.0000000  0.6508444  3
    148    146    158    159     1  0.0000000  0.6508444  3
    148    146    158    160     1  0.0000000  0.6508444  3
    149    145    152    153     1  0.0000000  1.2552000  3
    149    145    152    154     1  0.0000000  1.2552000  3
    149    161    167    168     1  0.0000000  0.6508444  3
    149    161    167    169     1  0.0000000  0.6508444  3
    150    149    145    152     1  0.0000000  1.2552000  3
    150    149    161    167     1  0.0000000  0.6508444  3
    150    149    161    162     1  0.0000000  0.6508444  3
    150    149    161    163     1  0.0000000  0.6508444  3
    151    149    145    152     1  0.0000000  1.2552000  3
    151    149    161    167     1  0.0000000  0.6508444  3
    151    149    161    162     1  0.0000000  0.6508444  3
    151    149    161    163     1  0.0000000  0.6508444  3
    152    155    164    165     1  0.0000000  0.6508444  3
    152    155    164    166     1  0.0000000  0.6508444  3
    153    152    155    164     1  0.0000000  0.6508444  3
    153    152    155    156     1  0.0000000  0.6508444  3
    153    152    155    157     1  0.0000000  0.6508444  3
    154    152    155    164     1  0.0000000  0.6508444  3
    154    152    155    156     1  0.0000000  0.6508444  3
    154    152    155    157     1  0.0000000  0.6508444  3
    156    155    164    173     1  0.0000000  1.0460000  1
    156    155    164    173     1  0.0000000  0.0000000  3
    156    155    164    165     1  0.0000000  0.6508444  3
    156    155    164    166     1  0.0000000  0.6508444  3
    157    155    164    173     1  0.0000000  1.0460000  1
    157    155    164    173     1  0.0000000  0.0000000  3
    157    155    164    165     1  0.0000000  0.6508444  3
    157    155    164    166     1  0.0000000  0.6508444  3
    159    158    170    405     1  0.0000000  1.0460000  1
    159    158    170    405     1  0.0000000  0.0000000  3
    159    158    170    171     1  0.0000000  0.6508444  3
    159    158    170    172     1  0.0000000  0.6508444  3
    160    158    170    405     1  0.0000000  1.0460000  1
    160    158    170    405     1  0.0000000  0.0000000  3
    160    158    170    171     1  0.0000000  0.6508444  3
    160    158    170    172     1  0.0000000  0.6508444  3
    162    161    167    376     1  0.0000000  1.0460000  1
    162    161    167    376     1  0.0000000  0.0000000  3
    162    161    167    168     1  0.0000000  0.6508444  3
    162    161    167    169     1  0.0000000  0.6508444  3
    163    161    167    376     1  0.0000000  1.0460000  1
    163    161    167    376     1  0.0000000  0.0000000  3
    163    161    167    168     1  0.0000000  0.6508444  3
    163    161    167    169     1  0.0000000  0.6508444  3
    167    376    367    368     1  0.0000000  1.6038667  3
    167    376    367    369     1  0.0000000  1.6038667  3
    168    167    376    367     1  0.0000000  1.6038667  3
    169    167    376    367     1  0.0000000  1.6038667  3
    170    405    396    397     1  0.0000000  1.6038667  3
    170    405    396    398     1  0.0000000  1.6038667  3
    171    170    405    396     1  0.0000000  1.6038667  3
    172    170    405    396     1  0.0000000  1.6038667  3
    174    175    187    188     1  0.0000000  0.6508444  3
    174    175    187    189     1  0.0000000  0.6508444  3
    174    178    190    191     1  0.0000000  0.6508444  3
    174    178    190    192     1  0.0000000  0.6508444  3
    174    181    184    185     1  0.0000000  0.6508444  3
    174    181    184    186     1  0.0000000  0.6508444  3
    175    174    178    179     1  0.0000000  1.2552000  3
    175    174    178    180     1  0.0000000  1.2552000  3
    175    174    181    182     1  0.0000000  1.2552000  3
    175    174    181    183     1  0.0000000  1.2552000  3
    175    187    199    200     1  0.0000000  0.6508444  3
    175    187    199    201     1  0.0000000  0.6508444  3
    176    175    174    178     1  0.0000000  1.2552000  3
    176    175    174    181     1  0.0000000  1.2552000  3
    176    175    187    199     1  0.0000000  0.6508444  3
    176    175    187    188     1  0.0000000  0.6508444  3
    176    175    187    189     1  0.0000000  0.6508444  3
    177    175    174    178     1  0.0000000  1.2552000  3
    177    175    174    181     1  0.0000000  1.2552000  3
    177    175    187    199     1  0.0000000  0.6508444  3
    177    175    187    188     1  0.0000000  0.6508444  3
    177    175    187    189     1  0.0000000  0.6508444  3
    178    174    181    182     1  0.0000000  1.2552000  3
    178    174    181    183     1  0.0000000  1.2552000  3
    178    190    196    197     1  0.0000000  0.6508444  3
    178    190    196    198     1  0.0000000  0.6508444  3
    179    178    174    181     1  0.0000000  1.2552000  3
    179    178    190    196     1  0.0000000  0.6508444  3
    179    178    190    191     1  0.0000000  0.6508444  3
    179    178    190    192     1  0.0000000  0.6508444  3
    180    178    174    181     1  0.0000000  1.2552000  3
    180    178    190    196     1  0.0000000  0.6508444  3
    180    178    190    191     1  0.0000000  0.6508444  3
    180    178    190    192     1  0.0000000  0.6508444  3
    181    184    193    194     1  0.0000000  0.6508444  3
    181    184    193    195     1  0.0000000  0.6508444  3
    182    181    184    193     1  0.0000000  0.6508444  3
    182    181    184    185     1  0.0000000  0.6508444  3
    182    181    184    186     1  0.0000000  0.6508444  3
    183    181    184    193     1  0.0000000  0.6508444  3
    183    181    184    185     1  0.0000000  0.6508444  3
    183    181    184    186     1  0.0000000  0.6508444  3
    185    184    193    202     1  0.0000000  1.0460000  1
    185    184    193    202     1  0.0000000  0.0000000  3
    185    184    193    194     1  0.0000000  0.6508444  3
    185    184    193    195     1  0.0000000  0.6508444  3
    186    184    193    202     1  0.0000000  1.0460000  1
    186    184    193    202     1  0.0000000  0.0000000  3
    186    184    193    194     1  0.0000000  0.6508444  3
    186    184    193    195     1  0.0000000  0.6508444  3
    188    187    199    463     1  0.0000000  1.0460000  1
    188    187    199    463     1  0.0000000  0.0000000  3
    188    187    199    200     1  0.0000000  0.6508444  3
    188    187    199    201     1  0.0000000  0.6508444  3
    189    187    199    463     1  0.0000000  1.0460000  1
    189    187    199    463     1  0.0000000  0.0000000  3
    189    187    199    200     1  0.0000000  0.6508444  3
    189    187    199    201     1  0.0000000  0.6508444  3
    191    190    196    434     1  0.0000000  1.0460000  1
    191    190    196    434     1  0.0000000  0.0000000  3
    191    190    196    197     1  0.0000000  0.6508444  3
    191    190    196    198     1  0.0000000  0.6508444  3
    192    190    196    434     1  0.0000000  1.0460000  1
    192    190    196    434     1  0.0000000  0.0000000  3
    192    190    196    197     1  0.0000000  0.6508444  3
    192    190    196    198     1  0.0000000  0.6508444  3
    196    434    425    426     1  0.0000000  1.6038667  3
    196    434    425    427     1  0.0000000  1.6038667  3
    197    196    434    425     1  0.0000000  1.6038667  3
    198    196    434    425     1  0.0000000  1.6038667  3
    199    463    454    455     1  0.0000000  1.6038667  3
    199    463    454    456     1  0.0000000  1.6038667  3
    200    199    463    454     1  0.0000000  1.6038667  3
    201    199    463    454     1  0.0000000  1.6038667  3
    203    204    216    217     1  0.0000000  0.6508444  3
    203    204    216    218     1  0.0000000  0.6508444  3
    203    207    219    220     1  0.0000000  0.6508444  3
    203    207    219    221     1  0.0000000  0.6508444  3
    203    210    213    214     1  0.0000000  0.6508444  3
    203    210    213    215     1  0.0000000  0.6508444  3
    204    203    207    208     1  0.0000000  1.2552000  3
    204    203    207    209     1  0.0000000  1.2552000  3
    204    203    210    211     1  0.0000000  1.2552000  3
    204    203    210    212     1  0.0000000  1.2552000  3
    204    216    228    229     1  0.0000000  0.6508444  3
    204    216    228    230     1  0.0000000  0.6508444  3
    205    204    203    207     1  0.0000000  1.2552000  3
    205    204    203    210     1  0.0000000  1.2552000  3
    205    204    216    228     1  0.0000000  0.6508444  3
    205    204    216    217     1  0.0000000  0.6508444  3
    205    204    216    218     1  0.0000000  0.6508444  3
    206    204    203    207     1  0.0000000  1.2552000  3
    206    204    203    210     1  0.0000000  1.2552000  3
    206    204    216    228     1  0.0000000  0.6508444  3
    206    204    216    217     1  0.0000000  0.6508444  3
    206    204    216    218     1  0.0000000  0.6508444  3
    207    203    210    211     1  0.0000000  1.2552000  3
    207    203    210    212     1  0.0000000  1.2552000  3
    207    219    225    226     1  0.0000000  0.6508444  3
    207    219    225    227     1  0.0000000  0.6508444  3
    208    207    203    210     1  0.0000000  1.2552000  3
    208    207    219    225     1  0.0000000  0.6508444  3
    208    207    219    220     1  0.0000000  0.6508444  3
    208    207    219    221     1  0.0000000  0.6508444  3
    209    207    203    210     1  0.0000000  1.2552000  3
    209    207    219    225     1  0.0000000  0.6508444  3
    209    207    219    220     1  0.0000000  0.6508444  3
    209    207    219    221     1  0.0000000  0.6508444  3
    210    213    222    223     1  0.0000000  0.6508444  3
    210    213    222    224     1  0.0000000  0.6508444  3
    211    210    213    222     1  0.0000000  0.6508444  3
    211    210    213    214     1  0.0000000  0.6508444  3
    211    210    213    215     1  0.0000000  0.6508444  3
    212    210    213    222     1  0.0000000  0.6508444  3
    212    210    213    214     1  0.0000000  0.6508444  3
    212    210    213    215     1  0.0000000  0.6508444  3
    214    213    222    231     1  0.0000000  1.0460000  1
    214    213    222    231     1  0.0000000  0.0000000  3
    214    213    222    223     1  0.0000000  0.6508444  3
    214    213    222    224     1  0.0000000  0.6508444  3
    215    213    222    231     1  0.0000000  1.0460000  1
    215    213    222    231     1  0.0000000  0.0000000  3
    215    213    222    223     1  0.0000000  0.6508444  3
    215    213    222    224     1  0.0000000  0.6508444  3
    217    216    228    521     1  0.0000000  1.0460000  1
    217    216    228    521     1  0.0000000  0.0000000  3
    217    216    228    229     1  0.0000000  0.6508444  3
    217    216    228    230     1  0.0000000  0.6508444  3
    218    216    228    521     1  0.0000000  1.0460000  1
    218    216    228    521     1  0.0000000  0.0000000  3
    218    216    228    229     1  0.0000000  0.6508444  3
    218    216    228    230     1  0.0000000  0.6508444  3
    220    219    225    492     1  0.0000000  1.0460000  1
    220    219    225    492     1  0.0000000  0.0000000  3
    220    219    225    226     1  0.0000000  0.6508444  3
    220    219    225    227     1  0.0000000  0.6508444  3
    221    219    225    492     1  0.0000000  1.0460000  1
    221    219    225    492     1  0.0000000  0.0000000  3
    221    219    225    226     1  0.0000000  0.6508444  3
    221    219    225    227     1  0.0000000  0.6508444  3
    225    492    483    484     1  0.0000000  1.6038667  3
    225    492    483    485     1  0.0000000  1.6038667  3
    226    225    492    483     1  0.0000000  1.6038667  3
    227    225    492    483     1  0.0000000  1.6038667  3
    228    521    512    513     1  0.0000000  1.6038667  3
    228    521    512    514     1  0.0000000  1.6038667  3
    229    228    521    512     1  0.0000000  1.6038667  3
    230    228    521    512     1  0.0000000  1.6038667  3
    232    233    245    246     1  0.0000000  0.6508444  3
    232    233    245    247     1  0.0000000  0.6508444  3
    232    236    248    249     1  0.0000000  0.6508444  3
    232    236    248    250     1  0.0000000  0.6508444  3
    232    239    242    243     1  0.0000000  0.6508444  3
    232    239    242    244     1  0.0000000  0.6508444  3
    233    232    236    237     1  0.0000000  1.2552000  3
    233    232    236    238     1  0.0000000  1.2552000  3
    233    232    239    240     1  0.0000000  1.2552000  3
    233    232    239    241     1  0.0000000  1.2552000  3
    233    245    257    258     1  0.0000000  0.6508444  3
    233    245    257    259     1  0.0000000  0.6508444  3
    234    233    232    236     1  0.0000000  1.2552000  3
    234    233    232    239     1  0.0000000  1.2552000  3
    234    233    245    257     1  0.0000000  0.6508444  3
    234    233    245    246     1  0.0000000  0.6508444  3
    234    233    245    247     1  0.0000000  0.6508444  3
    235    233    232    236     1  0.0000000  1.2552000  3
    235    233    232    239     1  0.0000000  1.2552000  3
    235    233    245    257     1  0.0000000  0.6508444  3
    235    233    245    246     1  0.0000000  0.6508444  3
    235    233    245    247     1  0.0000000  0.6508444  3
    236    232    239    240     1  0.0000000  1.2552000  3
    236    232    239    241     1  0.0000000  1.2552000  3
    236    248    254    255     1  0.0000000  0.6508444  3
    236    248    254    256     1  0.0000000  0.6508444  3
    237    236    232    239     1  0.0000000  1.2552000  3
    237    236    248    254     1  0.0000000  0.6508444  3
    237    236    248    249     1  0.0000000  0.6508444  3
    237    236    248    250     1  0.0000000  0.6508444  3
    238    236    232    239     1  0.0000000  1.2552000  3
    238    236    248    254     1  0.0000000  0.6508444  3
    238    236    248    249     1  0.0000000  0.6508444  3
    238    236    248    250     1  0.0000000  0.6508444  3
    239    242    251    252     1  0.0000000  0.6508444  3
    239    242    251    253     1  0.0000000  0.6508444  3
    240    239    242    251     1  0.0000000  0.6508444  3
    240    239    242    243     1  0.0000000  0.6508444  3
    240    239    242    244     1  0.0000000  0.6508444  3
    241    239    242    251     1  0.0000000  0.6508444  3
    241    239    242    243     1  0.0000000  0.6508444  3
    241    239    242    244     1  0.0000000  0.6508444  3
    243    242    251    260     1  0.0000000  1.0460000  1
    243    242    251    260     1  0.0000000  0.0000000  3
    243    242    251    252     1  0.0000000  0.6508444  3
    243    242    251    253     1  0.0000000  0.6508444  3
    244    242    251    260     1  0.0000000  1.0460000  1
    244    242    251    260     1  0.0000000  0.0000000  3
    244    242    251    252     1  0.0000000  0.6508444  3
    244    242    251    253     1  0.0000000  0.6508444  3
    246    245    257    579     1  0.0000000  1.0460000  1
    246    245    257    579     1  0.0000000  0.0000000  3
    246    245    257    258     1  0.0000000  0.6508444  3
    246    245    257    259     1  0.0000000  0.6508444  3
    247    245    257    579     1  0.0000000  1.0460000  1
    247    245    257    579     1  0.0000000  0.0000000  3
    247    245    257    258     1  0.0000000  0.6508444  3
    247    245    257    259     1  0.0000000  0.6508444  3
    249    248    254    550     1  0.0000000  1.0460000  1
    249    248    254    550     1  0.0000000  0.0000000  3
    249    248    254    255     1  0.0000000  0.6508444  3
    249    248    254    256     1  0.0000000  0.6508444  3
    250    248    254    550     1  0.0000000  1.0460000  1
    250    248    254    550     1  0.0000000  0.0000000  3
    250    248    254    255     1  0.0000000  0.6508444  3
    250    248    254    256     1  0.0000000  0.6508444  3
    254    550    541    542     1  0.0000000  1.6038667  3
    254    550    541    543     1  0.0000000  1.6038667  3
    255    254    550    541     1  0.0000000  1.6038667  3
    256    254    550    541     1  0.0000000  1.6038667  3
    257    579    570    571     1  0.0000000  1.6038667  3
    257    579    570    572     1  0.0000000  1.6038667  3
    258    257    579    570     1  0.0000000  1.6038667  3
    259    257    579    570     1  0.0000000  1.6038667  3
    261    262    274    275     1  0.0000000  0.6508444  3
    261    262    274    276     1  0.0000000  0.6508444  3
    261    265    277    278     1  0.0000000  0.6508444  3
    261    265    277    279     1  0.0000000  0.6508444  3
    261    268    271    272     1  0.0000000  0.6508444  3
    261    268    271    273     1  0.0000000  0.6508444  3
    262    261    265    266     1  0.0000000  1.2552000  3
    262    261    265    267     1  0.0000000  1.2552000  3
    262    261    268    269     1  0.0000000  1.2552000  3
    262    261    268    270     1  0.0000000  1.2552000  3
    262    274    286    287     1  0.0000000  0.6508444  3
    262    274    286    288     1  0.0000000  0.6508444  3
    263    262    261    265     1  0.0000000  1.2552000  3
    263    262    261    268     1  0.0000000  1.2552000  3
    263    262    274    286     1  0.0000000  0.6508444  3
    263    262    274    275     1  0.0000000  0.6508444  3
    263    262    274    276     1  0.0000000  0.6508444  3
    264    262    261    265     1  0.0000000  1.2552000  3
    264    262    261    268     1  0.0000000  1.2552000  3
    264    262    274    286     1  0.0000000  0.6508444  3
    264    262    274    275     1  0.0000000  0.6508444  3
    264    262    274    276     1  0.0000000  0.6508444  3
    265    261    268    269     1  0.0000000  1.2552000  3
    265    261    268    270     1  0.0000000  1.2552000  3
    265    277    283    284     1  0.0000000  0.6508444  3
    265    277    283    285     1  0.0000000  0.6508444  3
    266    265    261    268     1  0.0000000  1.2552000  3
    266    265    277    283     1  0.0000000  0.6508444  3
    266    265    277    278     1  0.0000000  0.6508444  3
    266    265    277    279     1  0.0000000  0.6508444  3
    267    265    261    268     1  0.0000000  1.2552000  3
    267    265    277    283     1  0.0000000  0.6508444  3
    267    265    277    278     1  0.0000000  0.6508444  3
    267    265    277    279     1  0.0000000  0.6508444  3
    268    271    280    281     1  0.0000000  0.6508444  3
    268    271    280    282     1  0.0000000  0.6508444  3
    269    268    271    280     1  0.0000000  0.6508444  3
    269    268    271    272     1  0.0000000  0.6508444  3
    269    268    271    273     1  0.0000000  0.6508444  3
    270    268    271    280     1  0.0000000  0.6508444  3
    270    268    271    272     1  0.0000000  0.6508444  3
    270    268    271    273     1  0.0000000  0.6508444  3
    272    271    280    289     1  0.0000000  1.0460000  1
    272    271    280    289     1  0.0000000  0.0000000  3
    272    271    280    281     1  0.0000000  0.6508444  3
    272    271    280    282     1  0.0000000  0.6508444  3
    273    271    280    289     1  0.0000000  1.0460000  1
    273    271    280    289     1  0.0000000  0.0000000  3
    273    271    280    281     1  0.0000000  0.6508444  3
    273    271    280    282     1  0.0000000  0.6508444  3
    275    274    286    637     1  0.0000000  1.0460000  1
    275    274    286    637     1  0.0000000  0.0000000  3
    275    274    286    287     1  0.0000000  0.6508444  3
    275    274    286    288     1  0.0000000  0.6508444  3
    276    274    286    637     1  0.0000000  1.0460000  1
    276    274    286    637     1  0.0000000  0.0000000  3
    276    274    286    287     1  0.0000000  0.6508444  3
    276    274    286    288     1  0.0000000  0.6508444  3
    278    277    283    608     1  0.0000000  1.0460000  1
    278    277    283    608     1  0.0000000  0.0000000  3
    278    277    283    284     1  0.0000000  0.6508444  3
    278    277    283    285     1  0.0000000  0.6508444  3
    279    277    283    608     1  0.0000000  1.0460000  1
    279    277    283    608     1  0.0000000  0.0000000  3
    279    277    283    284     1  0.0000000  0.6508444  3
    279    277    283    285     1  0.0000000  0.6508444  3
    283    608    599    600     1  0.0000000  1.6038667  3
    283    608    599    601     1  0.0000000  1.6038667  3
    284    283    608    599     1  0.0000000  1.6038667  3
    285    283    608    599     1  0.0000000  1.6038667  3
    286    637    628    629     1  0.0000000  1.6038667  3
    286    637    628    630     1  0.0000000  1.6038667  3
    287    286    637    628     1  0.0000000  1.6038667  3
    288    286    637    628     1  0.0000000  1.6038667  3
    290    291    303    304     1  0.0000000  0.6508444  3
    290    291    303    305     1  0.0000000  0.6508444  3
    290    294    306    307     1  0.0000000  0.6508444  3
    290    294    306    308     1  0.0000000  0.6508444  3
    290    297    300    301     1  0.0000000  0.6508444  3
    290    297    300    302     1  0.0000000  0.6508444  3
    291    290    294    295     1  0.0000000  1.2552000  3
    291    290    294    296     1  0.0000000  1.2552000  3
    291    290    297    298     1  0.0000000  1.2552000  3
    291    290    297    299     1  0.0000000  1.2552000  3
    291    303    315    316     1  0.0000000  0.6508444  3
    291    303    315    317     1  0.0000000  0.6508444  3
    292    291    290    294     1  0.0000000  1.2552000  3
    292    291    290    297     1  0.0000000  1.2552000  3
    292    291    303    315     1  0.0000000  0.6508444  3
    292    291    303    304     1  0.0000000  0.6508444  3
    292    291    303    305     1  0.0000000  0.6508444  3
    293    291    290    294     1  0.0000000  1.2552000  3
    293    291    290    297     1  0.0000000  1.2552000  3
    293    291    303    315     1  0.0000000  0.6508444  3
    293    291    303    304     1  0.0000000  0.6508444  3
    293    291    303    305     1  0.0000000  0.6508444  3
    294    290    297    298     1  0.0000000  1.2552000  3
    294    290    297    299     1  0.0000000  1.2552000  3
    294    306    312    313     1  0.0000000  0.6508444  3
    294    306    312    314     1  0.0000000  0.6508444  3
    295    294    290    297     1  0.0000000  1.2552000  3
    295    294    306    312     1  0.0000000  0.6508444  3
    295    294    306    307     1  0.0000000  0.6508444  3
    295    294    306    308     1  0.0000000  0.6508444  3
    296    294    290    297     1  0.0000000  1.2552000  3
    296    294    306    312     1  0.0000000  0.6508444  3
    296    294    306    307     1  0.0000000  0.6508444  3
    296    294    306    308     1  0.0000000  0.6508444  3
    297    300    309    310     1  0.0000000  0.6508444  3
    297    300    309    311     1  0.0000000  0.6508444  3
    298    297    300    309     1  0.0000000  0.6508444  3
    298    297    300    301     1  0.0000000  0.6508444  3
    298    297    300    302     1  0.0000000  0.6508444  3
    299    297    300    309     1  0.0000000  0.6508444  3
    299    297    300    301     1  0.0000000  0.6508444  3
    299    297    300    302     1  0.0000000  0.6508444  3
    301    300    309    318     1  0.0000000  1.0460000  1
    301    300    309    318     1  0.0000000  0.0000000  3
    301    300    309    310     1  0.0000000  0.6508444  3
    301    300    309    311     1  0.0000000  0.6508444  3
    302    300    309    318     1  0.0000000  1.0460000  1
    302    300    309    318     1  0.0000000  0.0000000  3
    302    300    309    310     1  0.0000000  0.6508444  3
    302    300    309    311     1  0.0000000  0.6508444  3
    304    303    315    695     1  0.0000000  1.0460000  1
    304    303    315    695     1  0.0000000  0.0000000  3
    304    303    315    316     1  0.0000000  0.6508444  3
    304    303    315    317     1  0.0000000  0.6508444  3
    305    303    315    695     1  0.0000000  1.0460000  1
    305    303    315    695     1  0.0000000  0.0000000  3
    305    303    315    316     1  0.0000000  0.6508444  3
    305    303    315    317     1  0.0000000  0.6508444  3
    307    306    312    666     1  0.0000000  1.0460000  1
    307    306    312    666     1  0.0000000  0.0000000  3
    307    306    312    313     1  0.0000000  0.6508444  3
    307    306    312    314     1  0.0000000  0.6508444  3
    308    306    312    666     1  0.0000000  1.0460000  1
    308    306    312    666     1  0.0000000  0.0000000  3
    308    306    312    313     1  0.0000000  0.6508444  3
    308    306    312    314     1  0.0000000  0.6508444  3
    312    666    657    658     1  0.0000000  1.6038667  3
    312    666    657    659     1  0.0000000  1.6038667  3
    313    312    666    657     1  0.0000000  1.6038667  3
    314    312    666    657     1  0.0000000  1.6038667  3
    315    695    686    687     1  0.0000000  1.6038667  3
    315    695    686    688     1  0.0000000  1.6038667  3
    316    315    695    686     1  0.0000000  1.6038667  3
    317    315    695    686     1  0.0000000  1.6038667  3
    319    320    332    333     1  0.0000000  0.6508444  3
    319    320    332    334     1  0.0000000  0.6508444  3
    319    323    335    336     1  0.0000000  0.6508444  3
    319    323    335    337     1  0.0000000  0.6508444  3
    319    326    329    330     1  0.0000000  0.6508444  3
    319    326    329    331     1  0.0000000  0.6508444  3
    320    319    323    324     1  0.0000000  1.2552000  3
    320    319    323    325     1  0.0000000  1.2552000  3
    320    319    326    327     1  0.0000000  1.2552000  3
    320    319    326    328     1  0.0000000  1.2552000  3
    320    332    344    345     1  0.0000000  0.6508444  3
    320    332    344    346     1  0.0000000  0.6508444  3
    321    320    319    323     1  0.0000000  1.2552000  3
    321    320    319    326     1  0.0000000  1.2552000  3
    321    320    332    344     1  0.0000000  0.6508444  3
    321    320    332    333     1  0.0000000  0.6508444  3
    321    320    332    334     1  0.0000000  0.6508444  3
    322    320    319    323     1  0.0000000  1.2552000  3
    322    320    319    326     1  0.0000000  1.2552000  3
    322    320    332    344     1  0.0000000  0.6508444  3
    322    320    332    333     1  0.0000000  0.6508444  3
    322    320    332    334     1  0.0000000  0.6508444  3
    323    319    326    327     1  0.0000000  1.2552000  3
    323    319    326    328     1  0.0000000  1.2552000  3
    323    335    341    342     1  0.0000000  0.6508444  3
    323    335    341    343     1  0.0000000  0.6508444  3
    324    323    319    326     1  0.0000000  1.2552000  3
    324    323    335    341     1  0.0000000  0.6508444  3
    324    323    335    336     1  0.0000000  0.6508444  3
    324    323    335    337     1  0.0000000  0.6508444  3
    325    323    319    326     1  0.0000000  1.2552000  3
    325    323    335    341     1  0.0000000  0.6508444  3
    325    323    335    336     1  0.0000000  0.6508444  3
    325    323    335    337     1  0.0000000  0.6508444  3
    326    329    338    339     1  0.0000000  0.6508444  3
    326    329    338    340     1  0.0000000  0.6508444  3
    327    326    329    338     1  0.0000000  0.6508444  3
    327    326    329    330     1  0.0000000  0.6508444  3
    327    326    329    331     1  0.0000000  0.6508444  3
    328    326    329    338     1  0.0000000  0.6508444  3
    328    326    329    330     1  0.0000000  0.6508444  3
    328    326    329    331     1  0.0000000  0.6508444  3
    330    329    338    347     1  0.0000000  1.0460000  1
    330    329    338    347     1  0.0000000  0.0000000  3
    330    329    338    339     1  0.0000000  0.6508444  3
    330    329    338    340     1  0.0000000  0.6508444  3
    331    329    338    347     1  0.0000000  1.0460000  1
    331    329    338    347     1  0.0000000  0.0000000  3
    331    329    338    339     1  0.0000000  0.6508444  3
    331    329    338    340     1  0.0000000  0.6508444  3
    333    332    344    753     1  0.0000000  1.0460000  1
    333    332    344    753     1  0.0000000  0.0000000  3
    333    332    344    345     1  0.0000000  0.6508444  3
    333    332    344    346     1  0.0000000  0.6508444  3
    334    332    344    753     1  0.0000000  1.0460000  1
    334    332    344    753     1  0.0000000  0.0000000  3
    334    332    344    345     1  0.0000000  0.6508444  3
    334    332    344    346     1  0.0000000  0.6508444  3
    336    335    341    724     1  0.0000000  1.0460000  1
    336    335    341    724     1  0.0000000  0.0000000  3
    336    335    341    342     1  0.0000000  0.6508444  3
    336    335    341    343     1  0.0000000  0.6508444  3
    337    335    341    724     1  0.0000000  1.0460000  1
    337    335    341    724     1  0.0000000  0.0000000  3
    337    335    341    342     1  0.0000000  0.6508444  3
    337    335    341    343     1  0.0000000  0.6508444  3
    341    724    715    716     1  0.0000000  1.6038667  3
    341    724    715    717     1  0.0000000  1.6038667  3
    342    341    724    715     1  0.0000000  1.6038667  3
    343    341    724    715     1  0.0000000  1.6038667  3
    344    753    744    745     1  0.0000000  1.6038667  3
    344    753    744    746     1  0.0000000  1.6038667  3
    345    344    753    744     1  0.0000000  1.6038667  3
    346    344    753    744     1  0.0000000  1.6038667  3
    348    349    361    362     1  0.0000000  0.6508444  3
    348    349    361    363     1  0.0000000  0.6508444  3
    348    352    364    365     1  0.0000000  0.6508444  3
    348    352    364    366     1  0.0000000  0.6508444  3
    348    355    358    359     1  0.0000000  0.6508444  3
    348    355    358    360     1  0.0000000  0.6508444  3
    349    348    352    353     1  0.0000000  1.2552000  3
    349    348    352    354     1  0.0000000  1.2552000  3
    349    348    355    356     1  0.0000000  1.2552000  3
    349    348    355    357     1  0.0000000  1.2552000  3
    349    361    373    374     1  0.0000000  0.6508444  3
    349    361    373    375     1  0.0000000  0.6508444  3
    350    349    348    352     1  0.0000000  1.2552000  3
    350    349    348    355     1  0.0000000  1.2552000  3
    350    349    361    373     1  0.0000000  0.6508444  3
    350    349    361    362     1  0.0000000  0.6508444  3
    350    349    361    363     1  0.0000000  0.6508444  3
    351    349    348    352     1  0.0000000  1.2552000  3
    351    349    348    355     1  0.0000000  1.2552000  3
    351    349    361    373     1  0.0000000  0.6508444  3
    351    349    361    362     1  0.0000000  0.6508444  3
    351    349    361    363     1  0.0000000  0.6508444  3
    352    348    355    356     1  0.0000000  1.2552000  3
    352    348    355    357     1  0.0000000  1.2552000  3
    352    364    370    371     1  0.0000000  0.6508444  3
    352    364    370    372     1  0.0000000  0.6508444  3
    353    352    348    355     1  0.0000000  1.2552000  3
    353    352    364    370     1  0.0000000  0.6508444  3
    353    352    364    365     1  0.0000000  0.6508444  3
    353    352    364    366     1  0.0000000  0.6508444  3
    354    352    348    355     1  0.0000000  1.2552000  3
    354    352    364    370     1  0.0000000  0.6508444  3
    354    352    364    365     1  0.0000000  0.6508444  3
    354    352    364    366     1  0.0000000  0.6508444  3
    355    358    367    368     1  0.0000000  0.6508444  3
    355    358    367    369     1  0.0000000  0.6508444  3
    356    355    358    367     1  0.0000000  0.6508444  3
    356    355    358    359     1  0.0000000  0.6508444  3
    356    355    358    360     1  0.0000000  0.6508444  3
    357    355    358    367     1  0.0000000  0.6508444  3
    357    355    358    359     1  0.0000000  0.6508444  3
    357    355    358    360     1  0.0000000  0.6508444  3
    359    358    367    376     1  0.0000000  1.0460000  1
    359    358    367    376     1  0.0000000  0.0000000  3
    359    358    367    368     1  0.0000000  0.6508444  3
    359    358    367    369     1  0.0000000  0.6508444  3
    360    358    367    376     1  0.0000000  1.0460000  1
    360    358    367    376     1  0.0000000  0.0000000  3
    360    358    367    368     1  0.0000000  0.6508444  3
    360    358    367    369     1  0.0000000  0.6508444  3
    362    361    373    811     1  0.0000000  1.0460000  1
    362    361    373    811     1  0.0000000  0.0000000  3
    362    361    373    374     1  0.0000000  0.6508444  3
    362    361    373    375     1  0.0000000  0.6508444  3
    363    361    373    811     1  0.0000000  1.0460000  1
    363    361    373    811     1  0.0000000  0.0000000  3
    363    361    373    374     1  0.0000000  0.6508444  3
    363    361    373    375     1  0.0000000  0.6508444  3
    365    364    370    782     1  0.0000000  1.0460000  1
    365    364    370    782     1  0.0000000  0.0000000  3
    365    364    370    371     1  0.0000000  0.6508444  3
    365    364    370    372     1  0.0000000  0.6508444  3
    366    364    370    782     1  0.0000000  1.0460000  1
    366    364    370    782     1  0.0000000  0.0000000  3
    366    364    370    371     1  0.0000000  0.6508444  3
    366    364    370    372     1  0.0000000  0.6508444  3
    370    782    773    774     1  0.0000000  1.6038667  3
    370    782    773    775     1  0.0000000  1.6038667  3
    371    370    782    773     1  0.0000000  1.6038667  3
    372    370    782    773     1  0.0000000  1.6038667  3
    373    811    802    803     1  0.0000000  1.6038667  3
    373    811    802    804     1  0.0000000  1.6038667  3
    374    373    811    802     1  0.0000000  1.6038667  3
    375    373    811    802     1  0.0000000  1.6038667  3
    377    378    390    391     1  0.0000000  0.6508444  3
    377    378    390    392     1  0.0000000  0.6508444  3
    377    381    393    394     1  0.0000000  0.6508444  3
    377    381    393    395     1  0.0000000  0.6508444  3
    377    384    387    388     1  0.0000000  0.6508444  3
    377    384    387    389     1  0.0000000  0.6508444  3
    378    377    381    382     1  0.0000000  1.2552000  3
    378    377    381    383     1  0.0000000  1.2552000  3
    378    377    384    385     1  0.0000000  1.2552000  3
    378    377    384    386     1  0.0000000  1.2552000  3
    378    390    402    403     1  0.0000000  0.6508444  3
    378    390    402    404     1  0.0000000  0.6508444  3
    379    378    377    381     1  0.0000000  1.2552000  3
    379    378    377    384     1  0.0000000  1.2552000  3
    379    378    390    402     1  0.0000000  0.6508444  3
    379    378    390    391     1  0.0000000  0.6508444  3
    379    378    390    392     1  0.0000000  0.6508444  3
    380    378    377    381     1  0.0000000  1.2552000  3
    380    378    377    384     1  0.0000000  1.2552000  3
    380    378    390    402     1  0.0000000  0.6508444  3
    380    378    390    391     1  0.0000000  0.6508444  3
    380    378    390    392     1  0.0000000  0.6508444  3
    381    377    384    385     1  0.0000000  1.2552000  3
    381    377    384    386     1  0.0000000  1.2552000  3
    381    393    399    400     1  0.0000000  0.6508444  3
    381    393    399    401     1  0.0000000  0.6508444  3
    382    381    377    384     1  0.0000000  1.2552000  3
    382    381    393    399     1  0.0000000  0.6508444  3
    382    381    393    394     1  0.0000000  0.6508444  3
    382    381    393    395     1  0.0000000  0.6508444  3
    383    381    377    384     1  0.0000000  1.2552000  3
    383    381    393    399     1  0.0000000  0.6508444  3
    383    381    393    394     1  0.0000000  0.6508444  3
    383    381    393    395     1  0.0000000  0.6508444  3
    384    387    396    397     1  0.0000000  0.6508444  3
    384    387    396    398     1  0.0000000  0.6508444  3
    385    384    387    396     1  0.0000000  0.6508444  3
    385    384    387    388     1  0.0000000  0.6508444  3
    385    384    387    389     1  0.0000000  0.6508444  3
    386    384    387    396     1  0.0000000  0.6508444  3
    386    384    387    388     1  0.0000000  0.6508444  3
    386    384    387    389     1  0.0000000  0.6508444  3
    388    387    396    405     1  0.0000000  1.0460000  1
    388    387    396    405     1  0.0000000  0.0000000  3
    388    387    396    397     1  0.0000000  0.6508444  3
    388    387    396    398     1  0.0000000  0.6508444  3
    389    387    396    405     1  0.0000000  1.0460000  1
    389    387    396    405     1  0.0000000  0.0000000  3
    389    387    396    397     1  0.0000000  0.6508444  3
    389    387    396    398     1  0.0000000  0.6508444  3
    391    390    402    869     1  0.0000000  1.0460000  1
    391    390    402    869     1  0.0000000  0.0000000  3
    391    390    402    403     1  0.0000000  0.6508444  3
    391    390    402    404     1  0.0000000  0.6508444  3
    392    390    402    869     1  0.0000000  1.0460000  1
    392    390    402    869     1  0.0000000  0.0000000  3
    392    390    402    403     1  0.0000000  0.6508444  3
    392    390    402    404     1  0.0000000  0.6508444  3
    394    393    399    840     1  0.0000000  1.0460000  1
    394    393    399    840     1  0.0000000  0.0000000  3
    394    393    399    400     1  0.0000000  0.6508444  3
    394    393    399    401     1  0.0000000  0.6508444  3
    395    393    399    840     1  0.0000000  1.0460000  1
    395    393    399    840     1  0.0000000  0.0000000  3
    395    393    399    400     1  0.0000000  0.6508444  3
    395    393    399    401     1  0.0000000  0.6508444  3
    399    840    831    832     1  0.0000000  1.6038667  3
    399    840    831    833     1  0.0000000  1.6038667  3
    400    399    840    831     1  0.0000000  1.6038667  3
    401    399    840    831     1  0.0000000  1.6038667  3
    402    869    860    861     1  0.0000000  1.6038667  3
    402    869    860    862     1  0.0000000  1.6038667  3
    403    402    869    860     1  0.0000000  1.6038667  3
    404    402    869    860     1  0.0000000  1.6038667  3
    406    407    419    420     1  0.0000000  0.6508444  3
    406    407    419    421     1  0.0000000  0.6508444  3
    406    410    422    423     1  0.0000000  0.6508444  3
    406    410    422    424     1  0.0000000  0.6508444  3
    406    413    416    417     1  0.0000000  0.6508444  3
    406    413    416    418     1  0.0000000  0.6508444  3
    407    406    410    411     1  0.0000000  1.2552000  3
    407    406    410    412     1  0.0000000  1.2552000  3
    407    406    413    414     1  0.0000000  1.2552000  3
    407    406    413    415     1  0.0000000  1.2552000  3
    407    419    431    432     1  0.0000000  0.6508444  3
    407    419    431    433     1  0.0000000  0.6508444  3
    408    407    406    410     1  0.0000000  1.2552000  3
    408    407    406    413     1  0.0000000  1.2552000  3
    408    407    419    431     1  0.0000000  0.6508444  3
    408    407    419    420     1  0.0000000  0.6508444  3
    408    407    419    421     1  0.0000000  0.6508444  3
    409    407    406    410     1  0.0000000  1.2552000  3
    409    407    406    413     1  0.0000000  1.2552000  3
    409    407    419    431     1  0.0000000  0.6508444  3
    409    407    419    420     1  0.0000000  0.6508444  3
    409    407    419    421     1  0.0000000  0.6508444  3
    410    406    413    414     1  0.0000000  1.2552000  3
    410    406    413    415     1  0.0000000  1.2552000  3
    410    422    428    429     1  0.0000000  0.6508444  3
    410    422    428    430     1  0.0000000  0.6508444  3
    411    410    406    413     1  0.0000000  1.2552000  3
    411    410    422    428     1  0.0000000  0.6508444  3
    411    410    422    423     1  0.0000000  0.6508444  3
    411    410    422    424     1  0.0000000  0.6508444  3
    412    410    406    413     1  0.0000000  1.2552000  3
    412    410    422    428     1  0.0000000  0.6508444  3
    412    410    422    423     1  0.0000000  0.6508444  3
    412    410    422    424     1  0.0000000  0.6508444  3
    413    416    425    426     1  0.0000000  0.6508444  3
    413    416    425    427     1  0.0000000  0.6508444  3
    414    413    416    425     1  0.0000000  0.6508444  3
    414    413    416    417     1  0.0000000  0.6508444  3
    414    413    416    418     1  0.0000000  0.6508444  3
    415    413    416    425     1  0.0000000  0.6508444  3
    415    413    416    417     1  0.0000000  0.6508444  3
    415    413    416    418     1  0.0000000  0.6508444  3
    417    416    425    434     1  0.0000000  1.0460000  1
    417    416    425    434     1  0.0000000  0.0000000  3
    417    416    425    426     1  0.0000000  0.6508444  3
    417    416    425    427     1  0.0000000  0.6508444  3
    418    416    425    434     1  0.0000000  1.0460000  1
    418    416    425    434     1  0.0000000  0.0000000  3
    418    416    425    426     1  0.0000000  0.6508444  3
    418    416    425    427     1  0.0000000  0.6508444  3
    420    419    431    927     1  0.0000000  1.0460000  1
    420    419    431    927     1  0.0000000  0.0000000  3
    420    419    431    432     1  0.0000000  0.6508444  3
    420    419    431    433     1  0.0000000  0.6508444  3
    421    419    431    927     1  0.0000000  1.0460000  1
    421    419    431    927     1  0.0000000  0.0000000  3
    421    419    431    432     1  0.0000000  0.6508444  3
    421    419    431    433     1  0.0000000  0.6508444  3
    423    422    428    898     1  0.0000000  1.0460000  1
    423    422    428    898     1  0.0000000  0.0000000  3
    423    422    428    429     1  0.0000000  0.6508444  3
    423    422    428    430     1  0.0000000  0.6508444  3
    424    422    428    898     1  0.0000000  1.0460000  1
    424    422    428    898     1  0.0000000  0.0000000  3
    424    422    428    429     1  0.0000000  0.6508444  3
    424    422    428    430     1  0.0000000  0.6508444  3
    428    898    889    890     1  0.0000000  1.6038667  3
    428    898    889    891     1  0.0000000  1.6038667  3
    429    428    898    889     1  0.0000000  1.6038667  3
    430    428    898    889     1  0.0000000  1.6038667  3
    431    927    918    919     1  0.0000000  1.6038667  3
    431    927    918    920     1  0.0000000  1.6038667  3
    432    431    927    918     1  0.0000000  1.6038667  3
    433    431    927    918     1  0.0000000  1.6038667  3
    435    436    448    449     1  0.0000000  0.6508444  3
    435    436    448    450     1  0.0000000  0.6508444  3
    435    439    451    452     1  0.0000000  0.6508444  3
    435    439    451    453     1  0.0000000  0.6508444  3
    435    442    445    446     1  0.0000000  0.6508444  3
    435    442    445    447     1  0.0000000  0.6508444  3
    436    435    439    440     1  0.0000000  1.2552000  3
    436    435    439    441     1  0.0000000  1.2552000  3
    436    435    442    443     1  0.0000000  1.2552000  3
    436    435    442    444     1  0.0000000  1.2552000  3
    436    448    460    461     1  0.0000000  0.6508444  3
    436    448    460    462     1  0.0000000  0.6508444  3
    437    436    435    439     1  0.0000000  1.2552000  3
    437    436    435    442     1  0.0000000  1.2552000  3
    437    436    448    460     1  0.0000000  0.6508444  3
    437    436    448    449     1  0.0000000  0.6508444  3
    437    436    448    450     1  0.0000000  0.6508444  3
    438    436    435    439     1  0.0000000  1.2552000  3
    438    436    435    442     1  0.0000000  1.2552000  3
    438    436    448    460     1  0.0000000  0.6508444  3
    438    436    448    449     1  0.0000000  0.6508444  3
    438    436    448    450     1  0.0000000  0.6508444  3
    439    435    442    443     1  0.0000000  1.2552000  3
    439    435    442    444     1  0.0000000  1.2552000  3
    439    451    457    458     1  0.0000000  0.6508444  3
    439    451    457    459     1  0.0000000  0.6508444  3
    440    439    435    442     1  0.0000000  1.2552000  3
    440    439    451    457     1  0.0000000  0.6508444  3
    440    439    451    452     1  0.0000000  0.6508444  3
    440    439    451    453     1  0.0000000  0.6508444  3
    441    439    435    442     1  0.0000000  1.2552000  3
    441    439    451    457     1  0.0000000  0.6508444  3
    441    439    451    452     1  0.0000000  0.6508444  3
    441    439    451    453     1  0.0000000  0.6508444  3
    442    445    454    455     1  0.0000000  0.6508444  3
    442    445    454    456     1  0.0000000  0.6508444  3
    443    442    445    454     1  0.0000000  0.6508444  3
    443    442    445    446     1  0.0000000  0.6508444  3
    443    442    445    447     1  0.0000000  0.6508444  3
    444    442    445    454     1  0.0000000  0.6508444  3
    444    442    445    446     1  0.0000000  0.6508444  3
    444    442    445    447     1  0.0000000  0.6508444  3
    446    445    454    463     1  0.0000000  1.0460000  1
    446    445    454    463     1  0.0000000  0.0000000  3
    446    445    454    455     1  0.0000000  0.6508444  3
    446    445    454    456     1  0.0000000  0.6508444  3
    447    445    454    463     1  0.0000000  1.0460000  1
    447    445    454    463     1  0.0000000  0.0000000  3
    447    445    454    455     1  0.0000000  0.6508444  3
    447    445    454    456     1  0.0000000  0.6508444  3
    449    448    460    985     1  0.0000000  1.0460000  1
    449    448    460    985     1  0.0000000  0.0000000  3
    449    448    460    461     1  0.0000000  0.6508444  3
    449    448    460    462     1  0.0000000  0.6508444  3
    450    448    460    985     1  0.0000000  1.0460000  1
    450    448    460    985     1  0.0000000  0.0000000  3
    450    448    460    461     1  0.0000000  0.6508444  3
    450    448    460    462     1  0.0000000  0.6508444  3
    452    451    457    956     1  0.0000000  1.0460000  1
    452    451    457    956     1  0.0000000  0.0000000  3
    452    451    457    458     1  0.0000000  0.6508444  3
    452    451    457    459     1  0.0000000  0.6508444  3
    453    451    457    956     1  0.0000000  1.0460000  1
    453    451    457    956     1  0.0000000  0.0000000  3
    453    451    457    458     1  0.0000000  0.6508444  3
    453    451    457    459     1  0.0000000  0.6508444  3
    457    956    947    948     1  0.0000000  1.6038667  3
    457    956    947    949     1  0.0000000  1.6038667  3
    458    457    956    947     1  0.0000000  1.6038667  3
    459    457    956    947     1  0.0000000  1.6038667  3
    460    985    976    977     1  0.0000000  1.6038667  3
    460    985    976    978     1  0.0000000  1.6038667  3
    461    460    985    976     1  0.0000000  1.6038667  3
    462    460    985    976     1  0.0000000  1.6038667  3
    464    465    477    478     1  0.0000000  0.6508444  3
    464    465    477    479     1  0.0000000  0.6508444  3
    464    468    480    481     1  0.0000000  0.6508444  3
    464    468    480    482     1  0.0000000  0.6508444  3
    464    471    474    475     1  0.0000000  0.6508444  3
    464    471    474    476     1  0.0000000  0.6508444  3
    465    464    468    469     1  0.0000000  1.2552000  3
    465    464    468    470     1  0.0000000  1.2552000  3
    465    464    471    472     1  0.0000000  1.2552000  3
    465    464    471    473     1  0.0000000  1.2552000  3
    465    477    489    490     1  0.0000000  0.6508444  3
    465    477    489    491     1  0.0000000  0.6508444  3
    466    465    464    468     1  0.0000000  1.2552000  3
    466    465    464    471     1  0.0000000  1.2552000  3
    466    465    477    489     1  0.0000000  0.6508444  3
    466    465    477    478     1  0.0000000  0.6508444  3
    466    465    477    479     1  0.0000000  0.6508444  3
    467    465    464    468     1  0.0000000  1.2552000  3
    467    465    464    471     1  0.0000000  1.2552000  3
    467    465    477    489     1  0.0000000  0.6508444  3
    467    465    477    478     1  0.0000000  0.6508444  3
    467    465    477    479     1  0.0000000  0.6508444  3
    468    464    471    472     1  0.0000000  1.2552000  3
    468    464    471    473     1  0.0000000  1.2552000  3
    468    480    486    487     1  0.0000000  0.6508444  3
    468    480    486    488     1  0.0000000  0.6508444  3
    469    468    464    471     1  0.0000000  1.2552000  3
    469    468    480    486     1  0.0000000  0.6508444  3
    469    468    480    481     1  0.0000000  0.6508444  3
    469    468    480    482     1  0.0000000  0.6508444  3
    470    468    464    471     1  0.0000000  1.2552000  3
    470    468    480    486     1  0.0000000  0.6508444  3
    470    468    480    481     1  0.0000000  0.6508444  3
    470    468    480    482     1  0.0000000  0.6508444  3
    471    474    483    484     1  0.0000000  0.6508444  3
    471    474    483    485     1  0.0000000  0.6508444  3
    472    471    474    483     1  0.0000000  0.6508444  3
    472    471    474    475     1  0.0000000  0.6508444  3
    472    471    474    476     1  0.0000000  0.6508444  3
    473    471    474    483     1  0.0000000  0.6508444  3
    473    471    474    475     1  0.0000000  0.6508444  3
    473    471    474    476     1  0.0000000  0.6508444  3
    475    474    483    492     1  0.0000000  1.0460000  1
    475    474    483    492     1  0.0000000  0.0000000  3
    475    474    483    484     1  0.0000000  0.6508444  3
    475    474    483    485     1  0.0000000  0.6508444  3
    476    474    483    492     1  0.0000000  1.0460000  1
    476    474    483    492     1  0.0000000  0.0000000  3
    476    474    483    484     1  0.0000000  0.6508444  3
    476    474    483    485     1  0.0000000  0.6508444  3
    478    477    489   1043     1  0.0000000  1.0460000  1
    478    477    489   1043     1  0.0000000  0.0000000  3
    478    477    489    490     1  0.0000000  0.6508444  3
    478    477    489    491     1  0.0000000  0.6508444  3
    479    477    489   1043     1  0.0000000  1.0460000  1
    479    477    489   1043     1  0.0000000  0.0000000  3
    479    477    489    490     1  0.0000000  0.6508444  3
    479    477    489    491     1  0.0000000  0.6508444  3
    481    480    486   1014     1  0.0000000  1.0460000  1
    481    480    486   1014     1  0.0000000  0.0000000  3
    481    480    486    487     1  0.0000000  0.6508444  3
    481    480    486    488     1  0.0000000  0.6508444  3
    482    480    486   1014     1  0.0000000  1.0460000  1
    482    480    486   1014     1  0.0000000  0.0000000  3
    482    480    486    487     1  0.0000000  0.6508444  3
    482    480    486    488     1  0.0000000  0.6508444  3
    486   1014   1005   1006     1  0.0000000  1.6038667  3
    486   1014   1005   1007     1  0.0000000  1.6038667  3
    487    486   1014   1005     1  0.0000000  1.6038667  3
    488    486   1014   1005     1  0.0000000  1.6038667  3
    489   1043   1034   1035     1  0.0000000  1.6038667  3
    489   1043   1034   1036     1  0.0000000  1.6038667  3
    490    489   1043   1034     1  0.0000000  1.6038667  3
    491    489   1043   1034     1  0.0000000  1.6038667  3
    493    494    506    507     1  0.0000000  0.6508444  3
    493    494    506    508     1  0.0000000  0.6508444  3
    493    497    509    510     1  0.0000000  0.6508444  3
    493    497    509    511     1  0.0000000  0.6508444  3
    493    500    503    504     1  0.0000000  0.6508444  3
    493    500    503    505     1  0.0000000  0.6508444  3
    494    493    497    498     1  0.0000000  1.2552000  3
    494    493    497    499     1  0.0000000  1.2552000  3
    494    493    500    501     1  0.0000000  1.2552000  3
    494    493    500    502     1  0.0000000  1.2552000  3
    494    506    518    519     1  0.0000000  0.6508444  3
    494    506    518    520     1  0.0000000  0.6508444  3
    495    494    493    497     1  0.0000000  1.2552000  3
    495    494    493    500     1  0.0000000  1.2552000  3
    495    494    506    518     1  0.0000000  0.6508444  3
    495    494    506    507     1  0.0000000  0.6508444  3
    495    494    506    508     1  0.0000000  0.6508444  3
    496    494    493    497     1  0.0000000  1.2552000  3
    496    494    493    500     1  0.0000000  1.2552000  3
    496    494    506    518     1  0.0000000  0.6508444  3
    496    494    506    507     1  0.0000000  0.6508444  3
    496    494    506    508     1  0.0000000  0.6508444  3
    497    493    500    501     1  0.0000000  1.2552000  3
    497    493    500    502     1  0.0000000  1.2552000  3
    497    509    515    516     1  0.0000000  0.6508444  3
    497    509    515    517     1  0.0000000  0.6508444  3
    498    497    493    500     1  0.0000000  1.2552000  3
    498    497    509    515     1  0.0000000  0.6508444  3
    498    497    509    510     1  0.0000000  0.6508444  3
    498    497    509    511     1  0.0000000  0.6508444  3
    499    497    493    500     1  0.0000000  1.2552000  3
    499    497    509    515     1  0.0000000  0.6508444  3
    499    497    509    510     1  0.0000000  0.6508444  3
    499    497    509    511     1  0.0000000  0.6508444  3
    500    503    512    513     1  0.0000000  0.6508444  3
    500    503    512    514     1  0.0000000  0.6508444  3
    501    500    503    512     1  0.0000000  0.6508444  3
    501    500    503    504     1  0.0000000  0.6508444  3
    501    500    503    505     1  0.0000000  0.6508444  3
    502    500    503    512     1  0.0000000  0.6508444  3
    502    500    503    504     1  0.0000000  0.6508444  3
    502    500    503    505     1  0.0000000  0.6508444  3
    504    503    512    521     1  0.0000000  1.0460000  1
    504    503    512    521     1  0.0000000  0.0000000  3
    504    503    512    513     1  0.0000000  0.6508444  3
    504    503    512    514     1  0.0000000  0.6508444  3
    505    503    512    521     1  0.0000000  1.0460000  1
    505    503    512    521     1  0.0000000  0.0000000  3
    505    503    512    513     1  0.0000000  0.6508444  3
    505    503    512    514     1  0.0000000  0.6508444  3
    507    506    518   1101     1  0.0000000  1.0460000  1
    507    506    518   1101     1  0.0000000  0.0000000  3
    507    506    518    519     1  0.0000000  0.6508444  3
    507    506    518    520     1  0.0000000  0.6508444  3
    508    506    518   1101     1  0.0000000  1.0460000  1
    508    506    518   1101     1  0.0000000  0.0000000  3
    508    506    518    519     1  0.0000000  0.6508444  3
    508    506    518    520     1  0.0000000  0.6508444  3
    510    509    515   1072     1  0.0000000  1.0460000  1
    510    509    515   1072     1  0.0000000  0.0000000  3
    510    509    515    516     1  0.0000000  0.6508444  3
    510    509    515    517     1  0.0000000  0.6508444  3
    511    509    515   1072     1  0.0000000  1.0460000  1
    511    509    515   1072     1  0.0000000  0.0000000  3
    511    509    515    516     1  0.0000000  0.6508444  3
    511    509    515    517     1  0.0000000  0.6508444  3
    515   1072   1063   1064     1  0.0000000  1.6038667  3
    515   1072   1063   1065     1  0.0000000  1.6038667  3
    516    515   1072   1063     1  0.0000000  1.6038667  3
    517    515   1072   1063     1  0.0000000  1.6038667  3
    518   1101   1092   1093     1  0.0000000  1.6038667  3
    518   1101   1092   1094     1  0.0000000  1.6038667  3
    519    518   1101   1092     1  0.0000000  1.6038667  3
    520    518   1101   1092     1  0.0000000  1.6038667  3
    522    523    535    536     1  0.0000000  0.6508444  3
    522    523    535    537     1  0.0000000  0.6508444  3
    522    526    538    539     1  0.0000000  0.6508444  3
    522    526    538    540     1  0.0000000  0.6508444  3
    522    529    532    533     1  0.0000000  0.6508444  3
    522    529    532    534     1  0.0000000  0.6508444  3
    523    522    526    527     1  0.0000000  1.2552000  3
    523    522    526    528     1  0.0000000  1.2552000  3
    523    522    529    530     1  0.0000000  1.2552000  3
    523    522    529    531     1  0.0000000  1.2552000  3
    523    535    547    548     1  0.0000000  0.6508444  3
    523    535    547    549     1  0.0000000  0.6508444  3
    524    523    522    526     1  0.0000000  1.2552000  3
    524    523    522    529     1  0.0000000  1.2552000  3
    524    523    535    547     1  0.0000000  0.6508444  3
    524    523    535    536     1  0.0000000  0.6508444  3
    524    523    535    537     1  0.0000000  0.6508444  3
    525    523    522    526     1  0.0000000  1.2552000  3
    525    523    522    529     1  0.0000000  1.2552000  3
    525    523    535    547     1  0.0000000  0.6508444  3
    525    523    535    536     1  0.0000000  0.6508444  3
    525    523    535    537     1  0.0000000  0.6508444  3
    526    522    529    530     1  0.0000000  1.2552000  3
    526    522    529    531     1  0.0000000  1.2552000  3
    526    538    544    545     1  0.0000000  0.6508444  3
    526    538    544    546     1  0.0000000  0.6508444  3
    527    526    522    529     1  0.0000000  1.2552000  3
    527    526    538    544     1  0.0000000  0.6508444  3
    527    526    538    539     1  0.0000000  0.6508444  3
    527    526    538    540     1  0.0000000  0.6508444  3
    528    526    522    529     1  0.0000000  1.2552000  3
    528    526    538    544     1  0.0000000  0.6508444  3
    528    526    538    539     1  0.0000000  0.6508444  3
    528    526    538    540     1  0.0000000  0.6508444  3
    529    532    541    542     1  0.0000000  0.6508444  3
    529    532    541    543     1  0.0000000  0.6508444  3
    530    529    532    541     1  0.0000000  0.6508444  3
    530    529    532    533     1  0.0000000  0.6508444  3
    530    529    532    534     1  0.0000000  0.6508444  3
    531    529    532    541     1  0.0000000  0.6508444  3
    531    529    532    533     1  0.0000000  0.6508444  3
    531    529    532    534     1  0.0000000  0.6508444  3
    533    532    541    550     1  0.0000000  1.0460000  1
    533    532    541    550     1  0.0000000  0.0000000  3
    533    532    541    542     1  0.0000000  0.6508444  3
    533    532    541    543     1  0.0000000  0.6508444  3
    534    532    541    550     1  0.0000000  1.0460000  1
    534    532    541    550     1  0.0000000  0.0000000  3
    534    532    541    542     1  0.0000000  0.6508444  3
    534    532    541    543     1  0.0000000  0.6508444  3
    536    535    547   1159     1  0.0000000  1.0460000  1
    536    535    547   1159     1  0.0000000  0.0000000  3
    536    535    547    548     1  0.0000000  0.6508444  3
    536    535    547    549     1  0.0000000  0.6508444  3
    537    535    547   1159     1  0.0000000  1.0460000  1
    537    535    547   1159     1  0.0000000  0.0000000  3
    537    535    547    548     1  0.0000000  0.6508444  3
    537    535    547    549     1  0.0000000  0.6508444  3
    539    538    544   1130     1  0.0000000  1.0460000  1
    539    538    544   1130     1  0.0000000  0.0000000  3
    539    538    544    545     1  0.0000000  0.6508444  3
    539    538    544    546     1  0.0000000  0.6508444  3
    540    538    544   1130     1  0.0000000  1.0460000  1
    540    538    544   1130     1  0.0000000  0.0000000  3
    540    538    544    545     1  0.0000000  0.6508444  3
    540    538    544    546     1  0.0000000  0.6508444  3
    544   1130   1121   1122     1  0.0000000  1.6038667  3
    544   1130   1121   1123     1  0.0000000  1.6038667  3
    545    544   1130   1121     1  0.0000000  1.6038667  3
    546    544   1130   1121     1  0.0000000  1.6038667  3
    547   1159   1150   1151     1  0.0000000  1.6038667  3
    547   1159   1150   1152     1  0.0000000  1.6038667  3
    548    547   1159   1150     1  0.0000000  1.6038667  3
    549    547   1159   1150     1  0.0000000  1.6038667  3
    551    552    564    565     1  0.0000000  0.6508444  3
    551    552    564    566     1  0.0000000  0.6508444  3
    551    555    567    568     1  0.0000000  0.6508444  3
    551    555    567    569     1  0.0000000  0.6508444  3
    551    558    561    562     1  0.0000000  0.6508444  3
    551    558    561    563     1  0.0000000  0.6508444  3
    552    551    555    556     1  0.0000000  1.2552000  3
    552    551    555    557     1  0.0000000  1.2552000  3
    552    551    558    559     1  0.0000000  1.2552000  3
    552    551    558    560     1  0.0000000  1.2552000  3
    552    564    576    577     1  0.0000000  0.6508444  3
    552    564    576    578     1  0.0000000  0.6508444  3
    553    552    551    555     1  0.0000000  1.2552000  3
    553    552    551    558     1  0.0000000  1.2552000  3
    553    552    564    576     1  0.0000000  0.6508444  3
    553    552    564    565     1  0.0000000  0.6508444  3
    553    552    564    566     1  0.0000000  0.6508444  3
    554    552    551    555     1  0.0000000  1.2552000  3
    554    552    551    558     1  0.0000000  1.2552000  3
    554    552    564    576     1  0.0000000  0.6508444  3
    554    552    564    565     1  0.0000000  0.6508444  3
    554    552    564    566     1  0.0000000  0.6508444  3
    555    551    558    559     1  0.0000000  1.2552000  3
    555    551    558    560     1  0.0000000  1.2552000  3
    555    567    573    574     1  0.0000000  0.6508444  3
    555    567    573    575     1  0.0000000  0.6508444  3
    556    555    551    558     1  0.0000000  1.2552000  3
    556    555    567    573     1  0.0000000  0.6508444  3
    556    555    567    568     1  0.0000000  0.6508444  3
    556    555    567    569     1  0.0000000  0.6508444  3
    557    555    551    558     1  0.0000000  1.2552000  3
    557    555    567    573     1  0.0000000  0.6508444  3
    557    555    567    568     1  0.0000000  0.6508444  3
    557    555    567    569     1  0.0000000  0.6508444  3
    558    561    570    571     1  0.0000000  0.6508444  3
    558    561    570    572     1  0.0000000  0.6508444  3
    559    558    561    570     1  0.0000000  0.6508444  3
    559    558    561    562     1  0.0000000  0.6508444  3
    559    558    561    563     1  0.0000000  0.6508444  3
    560    558    561    570     1  0.0000000  0.6508444  3
    560    558    561    562     1  0.0000000  0.6508444  3
    560    558    561    563     1  0.0000000  0.6508444  3
    562    561    570    579     1  0.0000000  1.0460000  1
    562    561    570    579     1  0.0000000  0.0000000  3
    562    561    570    571     1  0.0000000  0.6508444  3
    562    561    570    572     1  0.0000000  0.6508444  3
    563    561    570    579     1  0.0000000  1.0460000  1
    563    561    570    579     1  0.0000000  0.0000000  3
    563    561    570    571     1  0.0000000  0.6508444  3
    563    561    570    572     1  0.0000000  0.6508444  3
    565    564    576   1217     1  0.0000000  1.0460000  1
    565    564    576   1217     1  0.0000000  0.0000000  3
    565    564    576    577     1  0.0000000  0.6508444  3
    565    564    576    578     1  0.0000000  0.6508444  3
    566    564    576   1217     1  0.0000000  1.0460000  1
    566    564    576   1217     1  0.0000000  0.0000000  3
    566    564    576    577     1  0.0000000  0.6508444  3
    566    564    576    578     1  0.0000000  0.6508444  3
    568    567    573   1188     1  0.0000000  1.0460000  1
    568    567    573   1188     1  0.0000000  0.0000000  3
    568    567    573    574     1  0.0000000  0.6508444  3
    568    567    573    575     1  0.0000000  0.6508444  3
    569    567    573   1188     1  0.0000000  1.0460000  1
    569    567    573   1188     1  0.0000000  0.0000000  3
    569    567    573    574     1  0.0000000  0.6508444  3
    569    567    573    575     1  0.0000000  0.6508444  3
    573   1188   1179   1180     1  0.0000000  1.6038667  3
    573   1188   1179   1181     1  0.0000000  1.6038667  3
    574    573   1188   1179     1  0.0000000  1.6038667  3
    575    573   1188   1179     1  0.0000000  1.6038667  3
    576   1217   1208   1209     1  0.0000000  1.6038667  3
    576   1217   1208   1210     1  0.0000000  1.6038667  3
    577    576   1217   1208     1  0.0000000  1.6038667  3
    578    576   1217   1208     1  0.0000000  1.6038667  3
    580    581    593    594     1  0.0000000  0.6508444  3
    580    581    593    595     1  0.0000000  0.6508444  3
    580    584    596    597     1  0.0000000  0.6508444  3
    580    584    596    598     1  0.0000000  0.6508444  3
    580    587    590    591     1  0.0000000  0.6508444  3
    580    587    590    592     1  0.0000000  0.6508444  3
    581    580    584    585     1  0.0000000  1.2552000  3
    581    580    584    586     1  0.0000000  1.2552000  3
    581    580    587    588     1  0.0000000  1.2552000  3
    581    580    587    589     1  0.0000000  1.2552000  3
    581    593    605    606     1  0.0000000  0.6508444  3
    581    593    605    607     1  0.0000000  0.6508444  3
    582    581    580    584     1  0.0000000  1.2552000  3
    582    581    580    587     1  0.0000000  1.2552000  3
    582    581    593    605     1  0.0000000  0.6508444  3
    582    581    593    594     1  0.0000000  0.6508444  3
    582    581    593    595     1  0.0000000  0.6508444  3
    583    581    580    584     1  0.0000000  1.2552000  3
    583    581    580    587     1  0.0000000  1.2552000  3
    583    581    593    605     1  0.0000000  0.6508444  3
    583    581    593    594     1  0.0000000  0.6508444  3
    583    581    593    595     1  0.0000000  0.6508444  3
    584    580    587    588     1  0.0000000  1.2552000  3
    584    580    587    589     1  0.0000000  1.2552000  3
    584    596    602    603     1  0.0000000  0.6508444  3
    584    596    602    604     1  0.0000000  0.6508444  3
    585    584    580    587     1  0.0000000  1.2552000  3
    585    584    596    602     1  0.0000000  0.6508444  3
    585    584    596    597     1  0.0000000  0.6508444  3
    585    584    596    598     1  0.0000000  0.6508444  3
    586    584    580    587     1  0.0000000  1.2552000  3
    586    584    596    602     1  0.0000000  0.6508444  3
    586    584    596    597     1  0.0000000  0.6508444  3
    586    584    596    598     1  0.0000000  0.6508444  3
    587    590    599    600     1  0.0000000  0.6508444  3
    587    590    599    601     1  0.0000000  0.6508444  3
    588    587    590    599     1  0.0000000  0.6508444  3
    588    587    590    591     1  0.0000000  0.6508444  3
    588    587    590    592     1  0.0000000  0.6508444  3
    589    587    590    599     1  0.0000000  0.6508444  3
    589    587    590    591     1  0.0000000  0.6508444  3
    589    587    590    592     1  0.0000000  0.6508444  3
    591    590    599    608     1  0.0000000  1.0460000  1
    591    590    599    608     1  0.0000000  0.0000000  3
    591    590    599    600     1  0.0000000  0.6508444  3
    591    590    599    601     1  0.0000000  0.6508444  3
    592    590    599    608     1  0.0000000  1.0460000  1
    592    590    599    608     1  0.0000000  0.0000000  3
    592    590    599    600     1  0.0000000  0.6508444  3
    592    590    599    601     1  0.0000000  0.6508444  3
    594    593    605   1275     1  0.0000000  1.0460000  1
    594    593    605   1275     1  0.0000000  0.0000000  3
    594    593    605    606     1  0.0000000  0.6508444  3
    594    593    605    607     1  0.0000000  0.6508444  3
    595    593    605   1275     1  0.0000000  1.0460000  1
    595    593    605   1275     1  0.0000000  0.0000000  3
    595    593    605    606     1  0.0000000  0.6508444  3
    595    593    605    607     1  0.0000000  0.6508444  3
    597    596    602   1246     1  0.0000000  1.0460000  1
    597    596    602   1246     1  0.0000000  0.0000000  3
    597    596    602    603     1  0.0000000  0.6508444  3
    597    596    602    604     1  0.0000000  0.6508444  3
    598    596    602   1246     1  0.0000000  1.0460000  1
    598    596    602   1246     1  0.0000000  0.0000000  3
    598    596    602    603     1  0.0000000  0.6508444  3
    598    596    602    604     1  0.0000000  0.6508444  3
    602   1246   1237   1238     1  0.0000000  1.6038667  3
    602   1246   1237   1239     1  0.0000000  1.6038667  3
    603    602   1246   1237     1  0.0000000  1.6038667  3
    604    602   1246   1237     1  0.0000000  1.6038667  3
    605   1275   1266   1267     1  0.0000000  1.6038667  3
    605   1275   1266   1268     1  0.0000000  1.6038667  3
    606    605   1275   1266     1  0.0000000  1.6038667  3
    607    605   1275   1266     1  0.0000000  1.6038667  3
    609    610    622    623     1  0.0000000  0.6508444  3
    609    610    622    624     1  0.0000000  0.6508444  3
    609    613    625    626     1  0.0000000  0.6508444  3
    609    613    625    627     1  0.0000000  0.6508444  3
    609    616    619    620     1  0.0000000  0.6508444  3
    609    616    619    621     1  0.0000000  0.6508444  3
    610    609    613    614     1  0.0000000  1.2552000  3
    610    609    613    615     1  0.0000000  1.2552000  3
    610    609    616    617     1  0.0000000  1.2552000  3
    610    609    616    618     1  0.0000000  1.2552000  3
    610    622    634    635     1  0.0000000  0.6508444  3
    610    622    634    636     1  0.0000000  0.6508444  3
    611    610    609    613     1  0.0000000  1.2552000  3
    611    610    609    616     1  0.0000000  1.2552000  3
    611    610    622    634     1  0.0000000  0.6508444  3
    611    610    622    623     1  0.0000000  0.6508444  3
    611    610    622    624     1  0.0000000  0.6508444  3
    612    610    609    613     1  0.0000000  1.2552000  3
    612    610    609    616     1  0.0000000  1.2552000  3
    612    610    622    634     1  0.0000000  0.6508444  3
    612    610    622    623     1  0.0000000  0.6508444  3
    612    610    622    624     1  0.0000000  0.6508444  3
    613    609    616    617     1  0.0000000  1.2552000  3
    613    609    616    618     1  0.0000000  1.2552000  3
    613    625    631    632     1  0.0000000  0.6508444  3
    613    625    631    633     1  0.0000000  0.6508444  3
    614    613    609    616     1  0.0000000  1.2552000  3
    614    613    625    631     1  0.0000000  0.6508444  3
    614    613    625    626     1  0.0000000  0.6508444  3
    614    613    625    627     1  0.0000000  0.6508444  3
    615    613    609    616     1  0.0000000  1.2552000  3
    615    613    625    631     1  0.0000000  0.6508444  3
    615    613    625    626     1  0.0000000  0.6508444  3
    615    613    625    627     1  0.0000000  0.6508444  3
    616    619    628    629     1  0.0000000  0.6508444  3
    616    619    628    630     1  0.0000000  0.6508444  3
    617    616    619    628     1  0.0000000  0.6508444  3
    617    616    619    620     1  0.0000000  0.6508444  3
    617    616    619    621     1  0.0000000  0.6508444  3
    618    616    619    628     1  0.0000000  0.6508444  3
    618    616    619    620     1  0.0000000  0.6508444  3
    618    616    619    621     1  0.0000000  0.6508444  3
    620    619    628    637     1  0.0000000  1.0460000  1
    620    619    628    637     1  0.0000000  0.0000000  3
    620    619    628    629     1  0.0000000  0.6508444  3
    620    619    628    630     1  0.0000000  0.6508444  3
    621    619    628    637     1  0.0000000  1.0460000  1
    621    619    628    637     1  0.0000000  0.0000000  3
    621    619    628    629     1  0.0000000  0.6508444  3
    621    619    628    630     1  0.0000000  0.6508444  3
    623    622    634   1333     1  0.0000000  1.0460000  1
    623    622    634   1333     1  0.0000000  0.0000000  3
    623    622    634    635     1  0.0000000  0.6508444  3
    623    622    634    636     1  0.0000000  0.6508444  3
    624    622    634   1333     1  0.0000000  1.0460000  1
    624    622    634   1333     1  0.0000000  0.0000000  3
    624    622    634    635     1  0.0000000  0.6508444  3
    624    622    634    636     1  0.0000000  0.6508444  3
    626    625    631   1304     1  0.0000000  1.0460000  1
    626    625    631   1304     1  0.0000000  0.0000000  3
    626    625    631    632     1  0.0000000  0.6508444  3
    626    625    631    633     1  0.0000000  0.6508444  3
    627    625    631   1304     1  0.0000000  1.0460000  1
    627    625    631   1304     1  0.0000000  0.0000000  3
    627    625    631    632     1  0.0000000  0.6508444  3
    627    625    631    633     1  0.0000000  0.6508444  3
    631   1304   1295   1296     1  0.0000000  1.6038667  3
    631   1304   1295   1297     1  0.0000000  1.6038667  3
    632    631   1304   1295     1  0.0000000  1.6038667  3
    633    631   1304   1295     1  0.0000000  1.6038667  3
    634   1333   1324   1325     1  0.0000000  1.6038667  3
    634   1333   1324   1326     1  0.0000000  1.6038667  3
    635    634   1333   1324     1  0.0000000  1.6038667  3
    636    634   1333   1324     1  0.0000000  1.6038667  3
    638    639    651    652     1  0.0000000  0.6508444  3
    638    639    651    653     1  0.0000000  0.6508444  3
    638    642    654    655     1  0.0000000  0.6508444  3
    638    642    654    656     1  0.0000000  0.6508444  3
    638    645    648    649     1  0.0000000  0.6508444  3
    638    645    648    650     1  0.0000000  0.6508444  3
    639    638    642    643     1  0.0000000  1.2552000  3
    639    638    642    644     1  0.0000000  1.2552000  3
    639    638    645    646     1  0.0000000  1.2552000  3
    639    638    645    647     1  0.0000000  1.2552000  3
    639    651    663    664     1  0.0000000  0.6508444  3
    639    651    663    665     1  0.0000000  0.6508444  3
    640    639    638    642     1  0.0000000  1.2552000  3
    640    639    638    645     1  0.0000000  1.2552000  3
    640    639    651    663     1  0.0000000  0.6508444  3
    640    639    651    652     1  0.0000000  0.6508444  3
    640    639    651    653     1  0.0000000  0.6508444  3
    641    639    638    642     1  0.0000000  1.2552000  3
    641    639    638    645     1  0.0000000  1.2552000  3
    641    639    651    663     1  0.0000000  0.6508444  3
    641    639    651    652     1  0.0000000  0.6508444  3
    641    639    651    653     1  0.0000000  0.6508444  3
    642    638    645    646     1  0.0000000  1.2552000  3
    642    638    645    647     1  0.0000000  1.2552000  3
    642    654    660    661     1  0.0000000  0.6508444  3
    642    654    660    662     1  0.0000000  0.6508444  3
    643    642    638    645     1  0.0000000  1.2552000  3
    643    642    654    660     1  0.0000000  0.6508444  3
    643    642    654    655     1  0.0000000  0.6508444  3
    643    642    654    656     1  0.0000000  0.6508444  3
    644    642    638    645     1  0.0000000  1.2552000  3
    644    642    654    660     1  0.0000000  0.6508444  3
    644    642    654    655     1  0.0000000  0.6508444  3
    644    642    654    656     1  0.0000000  0.6508444  3
    645    648    657    658     1  0.0000000  0.6508444  3
    645    648    657    659     1  0.0000000  0.6508444  3
    646    645    648    657     1  0.0000000  0.6508444  3
    646    645    648    649     1  0.0000000  0.6508444  3
    646    645    648    650     1  0.0000000  0.6508444  3
    647    645    648    657     1  0.0000000  0.6508444  3
    647    645    648    649     1  0.0000000  0.6508444  3
    647    645    648    650     1  0.0000000  0.6508444  3
    649    648    657    666     1  0.0000000  1.0460000  1
    649    648    657    666     1  0.0000000  0.0000000  3
    649    648    657    658     1  0.0000000  0.6508444  3
    649    648    657    659     1  0.0000000  0.6508444  3
    650    648    657    666     1  0.0000000  1.0460000  1
    650    648    657    666     1  0.0000000  0.0000000  3
    650    648    657    658     1  0.0000000  0.6508444  3
    650    648    657    659     1  0.0000000  0.6508444  3
    652    651    663   1391     1  0.0000000  1.0460000  1
    652    651    663   1391     1  0.0000000  0.0000000  3
    652    651    663    664     1  0.0000000  0.6508444  3
    652    651    663    665     1  0.0000000  0.6508444  3
    653    651    663   1391     1  0.0000000  1.0460000  1
    653    651    663   1391     1  0.0000000  0.0000000  3
    653    651    663    664     1  0.0000000  0.6508444  3
    653    651    663    665     1  0.0000000  0.6508444  3
    655    654    660   1362     1  0.0000000  1.0460000  1
    655    654    660   1362     1  0.0000000  0.0000000  3
    655    654    660    661     1  0.0000000  0.6508444  3
    655    654    660    662     1  0.0000000  0.6508444  3
    656    654    660   1362     1  0.0000000  1.0460000  1
    656    654    660   1362     1  0.0000000  0.0000000  3
    656    654    660    661     1  0.0000000  0.6508444  3
    656    654    660    662     1  0.0000000  0.6508444  3
    660   1362   1353   1354     1  0.0000000  1.6038667  3
    660   1362   1353   1355     1  0.0000000  1.6038667  3
    661    660   1362   1353     1  0.0000000  1.6038667  3
    662    660   1362   1353     1  0.0000000  1.6038667  3
    663   1391   1382   1383     1  0.0000000  1.6038667  3
    663   1391   1382   1384     1  0.0000000  1.6038667  3
    664    663   1391   1382     1  0.0000000  1.6038667  3
    665    663   1391   1382     1  0.0000000  1.6038667  3
    667    668    680    681     1  0.0000000  0.6508444  3
    667    668    680    682     1  0.0000000  0.6508444  3
    667    671    683    684     1  0.0000000  0.6508444  3
    667    671    683    685     1  0.0000000  0.6508444  3
    667    674    677    678     1  0.0000000  0.6508444  3
    667    674    677    679     1  0.0000000  0.6508444  3
    668    667    671    672     1  0.0000000  1.2552000  3
    668    667    671    673     1  0.0000000  1.2552000  3
    668    667    674    675     1  0.0000000  1.2552000  3
    668    667    674    676     1  0.0000000  1.2552000  3
    668    680    692    693     1  0.0000000  0.6508444  3
    668    680    692    694     1  0.0000000  0.6508444  3
    669    668    667    671     1  0.0000000  1.2552000  3
    669    668    667    674     1  0.0000000  1.2552000  3
    669    668    680    692     1  0.0000000  0.6508444  3
    669    668    680    681     1  0.0000000  0.6508444  3
    669    668    680    682     1  0.0000000  0.6508444  3
    670    668    667    671     1  0.0000000  1.2552000  3
    670    668    667    674     1  0.0000000  1.2552000  3
    670    668    680    692     1  0.0000000  0.6508444  3
    670    668    680    681     1  0.0000000  0.6508444  3
    670    668    680    682     1  0.0000000  0.6508444  3
    671    667    674    675     1  0.0000000  1.2552000  3
    671    667    674    676     1  0.0000000  1.2552000  3
    671    683    689    690     1  0.0000000  0.6508444  3
    671    683    689    691     1  0.0000000  0.6508444  3
    672    671    667    674     1  0.0000000  1.2552000  3
    672    671    683    689     1  0.0000000  0.6508444  3
    672    671    683    684     1  0.0000000  0.6508444  3
    672    671    683    685     1  0.0000000  0.6508444  3
    673    671    667    674     1  0.0000000  1.2552000  3
    673    671    683    689     1  0.0000000  0.6508444  3
    673    671    683    684     1  0.0000000  0.6508444  3
    673    671    683    685     1  0.0000000  0.6508444  3
    674    677    686    687     1  0.0000000  0.6508444  3
    674    677    686    688     1  0.0000000  0.6508444  3
    675    674    677    686     1  0.0000000  0.6508444  3
    675    674    677    678     1  0.0000000  0.6508444  3
    675    674    677    679     1  0.0000000  0.6508444  3
    676    674    677    686     1  0.0000000  0.6508444  3
    676    674    677    678     1  0.0000000  0.6508444  3
    676    674    677    679     1  0.0000000  0.6508444  3
    678    677    686    695     1  0.0000000  1.0460000  1
    678    677    686    695     1  0.0000000  0.0000000  3
    678    677    686    687     1  0.0000000  0.6508444  3
    678    677    686    688     1  0.0000000  0.6508444  3
    679    677    686    695     1  0.0000000  1.0460000  1
    679    677    686    695     1  0.0000000  0.0000000  3
    679    677    686    687     1  0.0000000  0.6508444  3
    679    677    686    688     1  0.0000000  0.6508444  3
    681    680    692   1449     1  0.0000000  1.0460000  1
    681    680    692   1449     1  0.0000000  0.0000000  3
    681    680    692    693     1  0.0000000  0.6508444  3
    681    680    692    694     1  0.0000000  0.6508444  3
    682    680    692   1449     1  0.0000000  1.0460000  1
    682    680    692   1449     1  0.0000000  0.0000000  3
    682    680    692    693     1  0.0000000  0.6508444  3
    682    680    692    694     1  0.0000000  0.6508444  3
    684    683    689   1420     1  0.0000000  1.0460000  1
    684    683    689   1420     1  0.0000000  0.0000000  3
    684    683    689    690     1  0.0000000  0.6508444  3
    684    683    689    691     1  0.0000000  0.6508444  3
    685    683    689   1420     1  0.0000000  1.0460000  1
    685    683    689   1420     1  0.0000000  0.0000000  3
    685    683    689    690     1  0.0000000  0.6508444  3
    685    683    689    691     1  0.0000000  0.6508444  3
    689   1420   1411   1412     1  0.0000000  1.6038667  3
    689   1420   1411   1413     1  0.0000000  1.6038667  3
    690    689   1420   1411     1  0.0000000  1.6038667  3
    691    689   1420   1411     1  0.0000000  1.6038667  3
    692   1449   1440   1441     1  0.0000000  1.6038667  3
    692   1449   1440   1442     1  0.0000000  1.6038667  3
    693    692   1449   1440     1  0.0000000  1.6038667  3
    694    692   1449   1440     1  0.0000000  1.6038667  3
    696    697    709    710     1  0.0000000  0.6508444  3
    696    697    709    711     1  0.0000000  0.6508444  3
    696    700    712    713     1  0.0000000  0.6508444  3
    696    700    712    714     1  0.0000000  0.6508444  3
    696    703    706    707     1  0.0000000  0.6508444  3
    696    703    706    708     1  0.0000000  0.6508444  3
    697    696    700    701     1  0.0000000  1.2552000  3
    697    696    700    702     1  0.0000000  1.2552000  3
    697    696    703    704     1  0.0000000  1.2552000  3
    697    696    703    705     1  0.0000000  1.2552000  3
    697    709    721    722     1  0.0000000  0.6508444  3
    697    709    721    723     1  0.0000000  0.6508444  3
    698    697    696    700     1  0.0000000  1.2552000  3
    698    697    696    703     1  0.0000000  1.2552000  3
    698    697    709    721     1  0.0000000  0.6508444  3
    698    697    709    710     1  0.0000000  0.6508444  3
    698    697    709    711     1  0.0000000  0.6508444  3
    699    697    696    700     1  0.0000000  1.2552000  3
    699    697    696    703     1  0.0000000  1.2552000  3
    699    697    709    721     1  0.0000000  0.6508444  3
    699    697    709    710     1  0.0000000  0.6508444  3
    699    697    709    711     1  0.0000000  0.6508444  3
    700    696    703    704     1  0.0000000  1.2552000  3
    700    696    703    705     1  0.0000000  1.2552000  3
    700    712    718    719     1  0.0000000  0.6508444  3
    700    712    718    720     1  0.0000000  0.6508444  3
    701    700    696    703     1  0.0000000  1.2552000  3
    701    700    712    718     1  0.0000000  0.6508444  3
    701    700    712    713     1  0.0000000  0.6508444  3
    701    700    712    714     1  0.0000000  0.6508444  3
    702    700    696    703     1  0.0000000  1.2552000  3
    702    700    712    718     1  0.0000000  0.6508444  3
    702    700    712    713     1  0.0000000  0.6508444  3
    702    700    712    714     1  0.0000000  0.6508444  3
    703    706    715    716     1  0.0000000  0.6508444  3
    703    706    715    717     1  0.0000000  0.6508444  3
    704    703    706    715     1  0.0000000  0.6508444  3
    704    703    706    707     1  0.0000000  0.6508444  3
    704    703    706    708     1  0.0000000  0.6508444  3
    705    703    706    715     1  0.0000000  0.6508444  3
    705    703    706    707     1  0.0000000  0.6508444  3
    705    703    706    708     1  0.0000000  0.6508444  3
    707    706    715    724     1  0.0000000  1.0460000  1
    707    706    715    724     1  0.0000000  0.0000000  3
    707    706    715    716     1  0.0000000  0.6508444  3
    707    706    715    717     1  0.0000000  0.6508444  3
    708    706    715    724     1  0.0000000  1.0460000  1
    708    706    715    724     1  0.0000000  0.0000000  3
    708    706    715    716     1  0.0000000  0.6508444  3
    708    706    715    717     1  0.0000000  0.6508444  3
    710    709    721   1507     1  0.0000000  1.0460000  1
    710    709    721   1507     1  0.0000000  0.0000000  3
    710    709    721    722     1  0.0000000  0.6508444  3
    710    709    721    723     1  0.0000000  0.6508444  3
    711    709    721   1507     1  0.0000000  1.0460000  1
    711    709    721   1507     1  0.0000000  0.0000000  3
    711    709    721    722     1  0.0000000  0.6508444  3
    711    709    721    723     1  0.0000000  0.6508444  3
    713    712    718   1478     1  0.0000000  1.0460000  1
    713    712    718   1478     1  0.0000000  0.0000000  3
    713    712    718    719     1  0.0000000  0.6508444  3
    713    712    718    720     1  0.0000000  0.6508444  3
    714    712    718   1478     1  0.0000000  1.0460000  1
    714    712    718   1478     1  0.0000000  0.0000000  3
    714    712    718    719     1  0.0000000  0.6508444  3
    714    712    718    720     1  0.0000000  0.6508444  3
    718   1478   1469   1470     1  0.0000000  1.6038667  3
    718   1478   1469   1471     1  0.0000000  1.6038667  3
    719    718   1478   1469     1  0.0000000  1.6038667  3
    720    718   1478   1469     1  0.0000000  1.6038667  3
    721   1507   1498   1499     1  0.0000000  1.6038667  3
    721   1507   1498   1500     1  0.0000000  1.6038667  3
    722    721   1507   1498     1  0.0000000  1.6038667  3
    723    721   1507   1498     1  0.0000000  1.6038667  3
    725    726    738    739     1  0.0000000  0.6508444  3
    725    726    738    740     1  0.0000000  0.6508444  3
    725    729    741    742     1  0.0000000  0.6508444  3
    725    729    741    743     1  0.0000000  0.6508444  3
    725    732    735    736     1  0.0000000  0.6508444  3
    725    732    735    737     1  0.0000000  0.6508444  3
    726    725    729    730     1  0.0000000  1.2552000  3
    726    725    729    731     1  0.0000000  1.2552000  3
    726    725    732    733     1  0.0000000  1.2552000  3
    726    725    732    734     1  0.0000000  1.2552000  3
    726    738    750    751     1  0.0000000  0.6508444  3
    726    738    750    752     1  0.0000000  0.6508444  3
    727    726    725    729     1  0.0000000  1.2552000  3
    727    726    725    732     1  0.0000000  1.2552000  3
    727    726    738    750     1  0.0000000  0.6508444  3
    727    726    738    739     1  0.0000000  0.6508444  3
    727    726    738    740     1  0.0000000  0.6508444  3
    728    726    725    729     1  0.0000000  1.2552000  3
    728    726    725    732     1  0.0000000  1.2552000  3
    728    726    738    750     1  0.0000000  0.6508444  3
    728    726    738    739     1  0.0000000  0.6508444  3
    728    726    738    740     1  0.0000000  0.6508444  3
    729    725    732    733     1  0.0000000  1.2552000  3
    729    725    732    734     1  0.0000000  1.2552000  3
    729    741    747    748     1  0.0000000  0.6508444  3
    729    741    747    749     1  0.0000000  0.6508444  3
    730    729    725    732     1  0.0000000  1.2552000  3
    730    729    741    747     1  0.0000000  0.6508444  3
    730    729    741    742     1  0.0000000  0.6508444  3
    730    729    741    743     1  0.0000000  0.6508444  3
    731    729    725    732     1  0.0000000  1.2552000  3
    731    729    741    747     1  0.0000000  0.6508444  3
    731    729    741    742     1  0.0000000  0.6508444  3
    731    729    741    743     1  0.0000000  0.6508444  3
    732    735    744    745     1  0.0000000  0.6508444  3
    732    735    744    746     1  0.0000000  0.6508444  3
    733    732    735    744     1  0.0000000  0.6508444  3
    733    732    735    736     1  0.0000000  0.6508444  3
    733    732    735    737     1  0.0000000  0.6508444  3
    734    732    735    744     1  0.0000000  0.6508444  3
    734    732    735    736     1  0.0000000  0.6508444  3
    734    732    735    737     1  0.0000000  0.6508444  3
    736    735    744    753     1  0.0000000  1.0460000  1
    736    735    744    753     1  0.0000000  0.0000000  3
    736    735    744    745     1  0.0000000  0.6508444  3
    736    735    744    746     1  0.0000000  0.6508444  3
    737    735    744    753     1  0.0000000  1.0460000  1
    737    735    744    753     1  0.0000000  0.0000000  3
    737    735    744    745     1  0.0000000  0.6508444  3
    737    735    744    746     1  0.0000000  0.6508444  3
    739    738    750   1565     1  0.0000000  1.0460000  1
    739    738    750   1565     1  0.0000000  0.0000000  3
    739    738    750    751     1  0.0000000  0.6508444  3
    739    738    750    752     1  0.0000000  0.6508444  3
    740    738    750   1565     1  0.0000000  1.0460000  1
    740    738    750   1565     1  0.0000000  0.0000000  3
    740    738    750    751     1  0.0000000  0.6508444  3
    740    738    750    752     1  0.0000000  0.6508444  3
    742    741    747   1536     1  0.0000000  1.0460000  1
    742    741    747   1536     1  0.0000000  0.0000000  3
    742    741    747    748     1  0.0000000  0.6508444  3
    742    741    747    749     1  0.0000000  0.6508444  3
    743    741    747   1536     1  0.0000000  1.0460000  1
    743    741    747   1536     1  0.0000000  0.0000000  3
    743    741    747    748     1  0.0000000  0.6508444  3
    743    741    747    749     1  0.0000000  0.6508444  3
    747   1536   1527   1528     1  0.0000000  1.6038667  3
    747   1536   1527   1529     1  0.0000000  1.6038667  3
    748    747   1536   1527     1  0.0000000  1.6038667  3
    749    747   1536   1527     1  0.0000000  1.6038667  3
    750   1565   1556   1557     1  0.0000000  1.6038667  3
    750   1565   1556   1558     1  0.0000000  1.6038667  3
    751    750   1565   1556     1  0.0000000  1.6038667  3
    752    750   1565   1556     1  0.0000000  1.6038667  3
    754    755    767    768     1  0.0000000  0.6508444  3
    754    755    767    769     1  0.0000000  0.6508444  3
    754    758    770    771     1  0.0000000  0.6508444  3
    754    758    770    772     1  0.0000000  0.6508444  3
    754    761    764    765     1  0.0000000  0.6508444  3
    754    761    764    766     1  0.0000000  0.6508444  3
    755    754    758    759     1  0.0000000  1.2552000  3
    755    754    758    760     1  0.0000000  1.2552000  3
    755    754    761    762     1  0.0000000  1.2552000  3
    755    754    761    763     1  0.0000000  1.2552000  3
    755    767    779    780     1  0.0000000  0.6508444  3
    755    767    779    781     1  0.0000000  0.6508444  3
    756    755    754    758     1  0.0000000  1.2552000  3
    756    755    754    761     1  0.0000000  1.2552000  3
    756    755    767    779     1  0.0000000  0.6508444  3
    756    755    767    768     1  0.0000000  0.6508444  3
    756    755    767    769     1  0.0000000  0.6508444  3
    757    755    754    758     1  0.0000000  1.2552000  3
    757    755    754    761     1  0.0000000  1.2552000  3
    757    755    767    779     1  0.0000000  0.6508444  3
    757    755    767    768     1  0.0000000  0.6508444  3
    757    755    767    769     1  0.0000000  0.6508444  3
    758    754    761    762     1  0.0000000  1.2552000  3
    758    754    761    763     1  0.0000000  1.2552000  3
    758    770    776    777     1  0.0000000  0.6508444  3
    758    770    776    778     1  0.0000000  0.6508444  3
    759    758    754    761     1  0.0000000  1.2552000  3
    759    758    770    776     1  0.0000000  0.6508444  3
    759    758    770    771     1  0.0000000  0.6508444  3
    759    758    770    772     1  0.0000000  0.6508444  3
    760    758    754    761     1  0.0000000  1.2552000  3
    760    758    770    776     1  0.0000000  0.6508444  3
    760    758    770    771     1  0.0000000  0.6508444  3
    760    758    770    772     1  0.0000000  0.6508444  3
    761    764    773    774     1  0.0000000  0.6508444  3
    761    764    773    775     1  0.0000000  0.6508444  3
    762    761    764    773     1  0.0000000  0.6508444  3
    762    761    764    765     1  0.0000000  0.6508444  3
    762    761    764    766     1  0.0000000  0.6508444  3
    763    761    764    773     1  0.0000000  0.6508444  3
    763    761    764    765     1  0.0000000  0.6508444  3
    763    761    764    766     1  0.0000000  0.6508444  3
    765    764    773    782     1  0.0000000  1.0460000  1
    765    764    773    782     1  0.0000000  0.0000000  3
    765    764    773    774     1  0.0000000  0.6508444  3
    765    764    773    775     1  0.0000000  0.6508444  3
    766    764    773    782     1  0.0000000  1.0460000  1
    766    764    773    782     1  0.0000000  0.0000000  3
    766    764    773    774     1  0.0000000  0.6508444  3
    766    764    773    775     1  0.0000000  0.6508444  3
    768    767    779   1623     1  0.0000000  1.0460000  1
    768    767    779   1623     1  0.0000000  0.0000000  3
    768    767    779    780     1  0.0000000  0.6508444  3
    768    767    779    781     1  0.0000000  0.6508444  3
    769    767    779   1623     1  0.0000000  1.0460000  1
    769    767    779   1623     1  0.0000000  0.0000000  3
    769    767    779    780     1  0.0000000  0.6508444  3
    769    767    779    781     1  0.0000000  0.6508444  3
    771    770    776   1594     1  0.0000000  1.0460000  1
    771    770    776   1594     1  0.0000000  0.0000000  3
    771    770    776    777     1  0.0000000  0.6508444  3
    771    770    776    778     1  0.0000000  0.6508444  3
    772    770    776   1594     1  0.0000000  1.0460000  1
    772    770    776   1594     1  0.0000000  0.0000000  3
    772    770    776    777     1  0.0000000  0.6508444  3
    772    770    776    778     1  0.0000000  0.6508444  3
    776   1594   1585   1586     1  0.0000000  1.6038667  3
    776   1594   1585   1587     1  0.0000000  1.6038667  3
    777    776   1594   1585     1  0.0000000  1.6038667  3
    778    776   1594   1585     1  0.0000000  1.6038667  3
    779   1623   1614   1615     1  0.0000000  1.6038667  3
    779   1623   1614   1616     1  0.0000000  1.6038667  3
    780    779   1623   1614     1  0.0000000  1.6038667  3
    781    779   1623   1614     1  0.0000000  1.6038667  3
    783    784    796    797     1  0.0000000  0.6508444  3
    783    784    796    798     1  0.0000000  0.6508444  3
    783    787    799    800     1  0.0000000  0.6508444  3
    783    787    799    801     1  0.0000000  0.6508444  3
    783    790    793    794     1  0.0000000  0.6508444  3
    783    790    793    795     1  0.0000000  0.6508444  3
    784    783    787    788     1  0.0000000  1.2552000  3
    784    783    787    789     1  0.0000000  1.2552000  3
    784    783    790    791     1  0.0000000  1.2552000  3
    784    783    790    792     1  0.0000000  1.2552000  3
    784    796    808    809     1  0.0000000  0.6508444  3
    784    796    808    810     1  0.0000000  0.6508444  3
    785    784    783    787     1  0.0000000  1.2552000  3
    785    784    783    790     1  0.0000000  1.2552000  3
    785    784    796    808     1  0.0000000  0.6508444  3
    785    784    796    797     1  0.0000000  0.6508444  3
    785    784    796    798     1  0.0000000  0.6508444  3
    786    784    783    787     1  0.0000000  1.2552000  3
    786    784    783    790     1  0.0000000  1.2552000  3
    786    784    796    808     1  0.0000000  0.6508444  3
    786    784    796    797     1  0.0000000  0.6508444  3
    786    784    796    798     1  0.0000000  0.6508444  3
    787    783    790    791     1  0.0000000  1.2552000  3
    787    783    790    792     1  0.0000000  1.2552000  3
    787    799    805    806     1  0.0000000  0.6508444  3
    787    799    805    807     1  0.0000000  0.6508444  3
    788    787    783    790     1  0.0000000  1.2552000  3
    788    787    799    805     1  0.0000000  0.6508444  3
    788    787    799    800     1  0.0000000  0.6508444  3
    788    787    799    801     1  0.0000000  0.6508444  3
    789    787    783    790     1  0.0000000  1.2552000  3
    789    787    799    805     1  0.0000000  0.6508444  3
    789    787    799    800     1  0.0000000  0.6508444  3
    789    787    799    801     1  0.0000000  0.6508444  3
    790    793    802    803     1  0.0000000  0.6508444  3
    790    793    802    804     1  0.0000000  0.6508444  3
    791    790    793    802     1  0.0000000  0.6508444  3
    791    790    793    794     1  0.0000000  0.6508444  3
    791    790    793    795     1  0.0000000  0.6508444  3
    792    790    793    802     1  0.0000000  0.6508444  3
    792    790    793    794     1  0.0000000  0.6508444  3
    792    790    793    795     1  0.0000000  0.6508444  3
    794    793    802    811     1  0.0000000  1.0460000  1
    794    793    802    811     1  0.0000000  0.0000000  3
    794    793    802    803     1  0.0000000  0.6508444  3
    794    793    802    804     1  0.0000000  0.6508444  3
    795    793    802    811     1  0.0000000  1.0460000  1
    795    793    802    811     1  0.0000000  0.0000000  3
    795    793    802    803     1  0.0000000  0.6508444  3
    795    793    802    804     1  0.0000000  0.6508444  3
    797    796    808   1681     1  0.0000000  1.0460000  1
    797    796    808   1681     1  0.0000000  0.0000000  3
    797    796    808    809     1  0.0000000  0.6508444  3
    797    796    808    810     1  0.0000000  0.6508444  3
    798    796    808   1681     1  0.0000000  1.0460000  1
    798    796    808   1681     1  0.0000000  0.0000000  3
    798    796    808    809     1  0.0000000  0.6508444  3
    798    796    808    810     1  0.0000000  0.6508444  3
    800    799    805   1652     1  0.0000000  1.0460000  1
    800    799    805   1652     1  0.0000000  0.0000000  3
    800    799    805    806     1  0.0000000  0.6508444  3
    800    799    805    807     1  0.0000000  0.6508444  3
    801    799    805   1652     1  0.0000000  1.0460000  1
    801    799    805   1652     1  0.0000000  0.0000000  3
    801    799    805    806     1  0.0000000  0.6508444  3
    801    799    805    807     1  0.0000000  0.6508444  3
    805   1652   1643   1644     1  0.0000000  1.6038667  3
    805   1652   1643   1645     1  0.0000000  1.6038667  3
    806    805   1652   1643     1  0.0000000  1.6038667  3
    807    805   1652   1643     1  0.0000000  1.6038667  3
    808   1681   1672   1673     1  0.0000000  1.6038667  3
    808   1681   1672   1674     1  0.0000000  1.6038667  3
    809    808   1681   1672     1  0.0000000  1.6038667  3
    810    808   1681   1672     1  0.0000000  1.6038667  3
    812    813    825    826     1  0.0000000  0.6508444  3
    812    813    825    827     1  0.0000000  0.6508444  3
    812    816    828    829     1  0.0000000  0.6508444  3
    812    816    828    830     1  0.0000000  0.6508444  3
    812    819    822    823     1  0.0000000  0.6508444  3
    812    819    822    824     1  0.0000000  0.6508444  3
    813    812    816    817     1  0.0000000  1.2552000  3
    813    812    816    818     1  0.0000000  1.2552000  3
    813    812    819    820     1  0.0000000  1.2552000  3
    813    812    819    821     1  0.0000000  1.2552000  3
    813    825    837    838     1  0.0000000  0.6508444  3
    813    825    837    839     1  0.0000000  0.6508444  3
    814    813    812    816     1  0.0000000  1.2552000  3
    814    813    812    819     1  0.0000000  1.2552000  3
    814    813    825    837     1  0.0000000  0.6508444  3
    814    813    825    826     1  0.0000000  0.6508444  3
    814    813    825    827     1  0.0000000  0.6508444  3
    815    813    812    816     1  0.0000000  1.2552000  3
    815    813    812    819     1  0.0000000  1.2552000  3
    815    813    825    837     1  0.0000000  0.6508444  3
    815    813    825    826     1  0.0000000  0.6508444  3
    815    813    825    827     1  0.0000000  0.6508444  3
    816    812    819    820     1  0.0000000  1.2552000  3
    816    812    819    821     1  0.0000000  1.2552000  3
    816    828    834    835     1  0.0000000  0.6508444  3
    816    828    834    836     1  0.0000000  0.6508444  3
    817    816    812    819     1  0.0000000  1.2552000  3
    817    816    828    834     1  0.0000000  0.6508444  3
    817    816    828    829     1  0.0000000  0.6508444  3
    817    816    828    830     1  0.0000000  0.6508444  3
    818    816    812    819     1  0.0000000  1.2552000  3
    818    816    828    834     1  0.0000000  0.6508444  3
    818    816    828    829     1  0.0000000  0.6508444  3
    818    816    828    830     1  0.0000000  0.6508444  3
    819    822    831    832     1  0.0000000  0.6508444  3
    819    822    831    833     1  0.0000000  0.6508444  3
    820    819    822    831     1  0.0000000  0.6508444  3
    820    819    822    823     1  0.0000000  0.6508444  3
    820    819    822    824     1  0.0000000  0.6508444  3
    821    819    822    831     1  0.0000000  0.6508444  3
    821    819    822    823     1  0.0000000  0.6508444  3
    821    819    822    824     1  0.0000000  0.6508444  3
    823    822    831    840     1  0.0000000  1.0460000  1
    823    822    831    840     1  0.0000000  0.0000000  3
    823    822    831    832     1  0.0000000  0.6508444  3
    823    822    831    833     1  0.0000000  0.6508444  3
    824    822    831    840     1  0.0000000  1.0460000  1
    824    822    831    840     1  0.0000000  0.0000000  3
    824    822    831    832     1  0.0000000  0.6508444  3
    824    822    831    833     1  0.0000000  0.6508444  3
    826    825    837   1739     1  0.0000000  1.0460000  1
    826    825    837   1739     1  0.0000000  0.0000000  3
    826    825    837    838     1  0.0000000  0.6508444  3
    826    825    837    839     1  0.0000000  0.6508444  3
    827    825    837   1739     1  0.0000000  1.0460000  1
    827    825    837   1739     1  0.0000000  0.0000000  3
    827    825    837    838     1  0.0000000  0.6508444  3
    827    825    837    839     1  0.0000000  0.6508444  3
    829    828    834   1710     1  0.0000000  1.0460000  1
    829    828    834   1710     1  0.0000000  0.0000000  3
    829    828    834    835     1  0.0000000  0.6508444  3
    829    828    834    836     1  0.0000000  0.6508444  3
    830    828    834   1710     1  0.0000000  1.0460000  1
    830    828    834   1710     1  0.0000000  0.0000000  3
    830    828    834    835     1  0.0000000  0.6508444  3
    830    828    834    836     1  0.0000000  0.6508444  3
    834   1710   1701   1702     1  0.0000000  1.6038667  3
    834   1710   1701   1703     1  0.0000000  1.6038667  3
    835    834   1710   1701     1  0.0000000  1.6038667  3
    836    834   1710   1701     1  0.0000000  1.6038667  3
    837   1739   1730   1731     1  0.0000000  1.6038667  3
    837   1739   1730   1732     1  0.0000000  1.6038667  3
    838    837   1739   1730     1  0.0000000  1.6038667  3
    839    837   1739   1730     1  0.0000000  1.6038667  3
    841    842    854    855     1  0.0000000  0.6508444  3
    841    842    854    856     1  0.0000000  0.6508444  3
    841    845    857    858     1  0.0000000  0.6508444  3
    841    845    857    859     1  0.0000000  0.6508444  3
    841    848    851    852     1  0.0000000  0.6508444  3
    841    848    851    853     1  0.0000000  0.6508444  3
    842    841    845    846     1  0.0000000  1.2552000  3
    842    841    845    847     1  0.0000000  1.2552000  3
    842    841    848    849     1  0.0000000  1.2552000  3
    842    841    848    850     1  0.0000000  1.2552000  3
    842    854    866    867     1  0.0000000  0.6508444  3
    842    854    866    868     1  0.0000000  0.6508444  3
    843    842    841    845     1  0.0000000  1.2552000  3
    843    842    841    848     1  0.0000000  1.2552000  3
    843    842    854    866     1  0.0000000  0.6508444  3
    843    842    854    855     1  0.0000000  0.6508444  3
    843    842    854    856     1  0.0000000  0.6508444  3
    844    842    841    845     1  0.0000000  1.2552000  3
    844    842    841    848     1  0.0000000  1.2552000  3
    844    842    854    866     1  0.0000000  0.6508444  3
    844    842    854    855     1  0.0000000  0.6508444  3
    844    842    854    856     1  0.0000000  0.6508444  3
    845    841    848    849     1  0.0000000  1.2552000  3
    845    841    848    850     1  0.0000000  1.2552000  3
    845    857    863    864     1  0.0000000  0.6508444  3
    845    857    863    865     1  0.0000000  0.6508444  3
    846    845    841    848     1  0.0000000  1.2552000  3
    846    845    857    863     1  0.0000000  0.6508444  3
    846    845    857    858     1  0.0000000  0.6508444  3
    846    845    857    859     1  0.0000000  0.6508444  3
    847    845    841    848     1  0.0000000  1.2552000  3
    847    845    857    863     1  0.0000000  0.6508444  3
    847    845    857    858     1  0.0000000  0.6508444  3
    847    845    857    859     1  0.0000000  0.6508444  3
    848    851    860    861     1  0.0000000  0.6508444  3
    848    851    860    862     1  0.0000000  0.6508444  3
    849    848    851    860     1  0.0000000  0.6508444  3
    849    848    851    852     1  0.0000000  0.6508444  3
    849    848    851    853     1  0.0000000  0.6508444  3
    850    848    851    860     1  0.0000000  0.6508444  3
    850    848    851    852     1  0.0000000  0.6508444  3
    850    848    851    853     1  0.0000000  0.6508444  3
    852    851    860    869     1  0.0000000  1.0460000  1
    852    851    860    869     1  0.0000000  0.0000000  3
    852    851    860    861     1  0.0000000  0.6508444  3
    852    851    860    862     1  0.0000000  0.6508444  3
    853    851    860    869     1  0.0000000  1.0460000  1
    853    851    860    869     1  0.0000000  0.0000000  3
    853    851    860    861     1  0.0000000  0.6508444  3
    853    851    860    862     1  0.0000000  0.6508444  3
    855    854    866   1797     1  0.0000000  1.0460000  1
    855    854    866   1797     1  0.0000000  0.0000000  3
    855    854    866    867     1  0.0000000  0.6508444  3
    855    854    866    868     1  0.0000000  0.6508444  3
    856    854    866   1797     1  0.0000000  1.0460000  1
    856    854    866   1797     1  0.0000000  0.0000000  3
    856    854    866    867     1  0.0000000  0.6508444  3
    856    854    866    868     1  0.0000000  0.6508444  3
    858    857    863   1768     1  0.0000000  1.0460000  1
    858    857    863   1768     1  0.0000000  0.0000000  3
    858    857    863    864     1  0.0000000  0.6508444  3
    858    857    863    865     1  0.0000000  0.6508444  3
    859    857    863   1768     1  0.0000000  1.0460000  1
    859    857    863   1768     1  0.0000000  0.0000000  3
    859    857    863    864     1  0.0000000  0.6508444  3
    859    857    863    865     1  0.0000000  0.6508444  3
    863   1768   1759   1760     1  0.0000000  1.6038667  3
    863   1768   1759   1761     1  0.0000000  1.6038667  3
    864    863   1768   1759     1  0.0000000  1.6038667  3
    865    863   1768   1759     1  0.0000000  1.6038667  3
    866   1797   1788   1789     1  0.0000000  1.6038667  3
    866   1797   1788   1790     1  0.0000000  1.6038667  3
    867    866   1797   1788     1  0.0000000  1.6038667  3
    868    866   1797   1788     1  0.0000000  1.6038667  3
    870    871    883    884     1  0.0000000  0.6508444  3
    870    871    883    885     1  0.0000000  0.6508444  3
    870    874    886    887     1  0.0000000  0.6508444  3
    870    874    886    888     1  0.0000000  0.6508444  3
    870    877    880    881     1  0.0000000  0.6508444  3
    870    877    880    882     1  0.0000000  0.6508444  3
    871    870    874    875     1  0.0000000  1.2552000  3
    871    870    874    876     1  0.0000000  1.2552000  3
    871    870    877    878     1  0.0000000  1.2552000  3
    871    870    877    879     1  0.0000000  1.2552000  3
    871    883    895    896     1  0.0000000  0.6508444  3
    871    883    895    897     1  0.0000000  0.6508444  3
    872    871    870    874     1  0.0000000  1.2552000  3
    872    871    870    877     1  0.0000000  1.2552000  3
    872    871    883    895     1  0.0000000  0.6508444  3
    872    871    883    884     1  0.0000000  0.6508444  3
    872    871    883    885     1  0.0000000  0.6508444  3
    873    871    870    874     1  0.0000000  1.2552000  3
    873    871    870    877     1  0.0000000  1.2552000  3
    873    871    883    895     1  0.0000000  0.6508444  3
    873    871    883    884     1  0.0000000  0.6508444  3
    873    871    883    885     1  0.0000000  0.6508444  3
    874    870    877    878     1  0.0000000  1.2552000  3
    874    870    877    879     1  0.0000000  1.2552000  3
    874    886    892    893     1  0.0000000  0.6508444  3
    874    886    892    894     1  0.0000000  0.6508444  3
    875    874    870    877     1  0.0000000  1.2552000  3
    875    874    886    892     1  0.0000000  0.6508444  3
    875    874    886    887     1  0.0000000  0.6508444  3
    875    874    886    888     1  0.0000000  0.6508444  3
    876    874    870    877     1  0.0000000  1.2552000  3
    876    874    886    892     1  0.0000000  0.6508444  3
    876    874    886    887     1  0.0000000  0.6508444  3
    876    874    886    888     1  0.0000000  0.6508444  3
    877    880    889    890     1  0.0000000  0.6508444  3
    877    880    889    891     1  0.0000000  0.6508444  3
    878    877    880    889     1  0.0000000  0.6508444  3
    878    877    880    881     1  0.0000000  0.6508444  3
    878    877    880    882     1  0.0000000  0.6508444  3
    879    877    880    889     1  0.0000000  0.6508444  3
    879    877    880    881     1  0.0000000  0.6508444  3
    879    877    880    882     1  0.0000000  0.6508444  3
    881    880    889    898     1  0.0000000  1.0460000  1
    881    880    889    898     1  0.0000000  0.0000000  3
    881    880    889    890     1  0.0000000  0.6508444  3
    881    880    889    891     1  0.0000000  0.6508444  3
    882    880    889    898     1  0.0000000  1.0460000  1
    882    880    889    898     1  0.0000000  0.0000000  3
    882    880    889    890     1  0.0000000  0.6508444  3
    882    880    889    891     1  0.0000000  0.6508444  3
    884    883    895   1855     1  0.0000000  1.0460000  1
    884    883    895   1855     1  0.0000000  0.0000000  3
    884    883    895    896     1  0.0000000  0.6508444  3
    884    883    895    897     1  0.0000000  0.6508444  3
    885    883    895   1855     1  0.0000000  1.0460000  1
    885    883    895   1855     1  0.0000000  0.0000000  3
    885    883    895    896     1  0.0000000  0.6508444  3
    885    883    895    897     1  0.0000000  0.6508444  3
    887    886    892   1826     1  0.0000000  1.0460000  1
    887    886    892   1826     1  0.0000000  0.0000000  3
    887    886    892    893     1  0.0000000  0.6508444  3
    887    886    892    894     1  0.0000000  0.6508444  3
    888    886    892   1826     1  0.0000000  1.0460000  1
    888    886    892   1826     1  0.0000000  0.0000000  3
    888    886    892    893     1  0.0000000  0.6508444  3
    888    886    892    894     1  0.0000000  0.6508444  3
    892   1826   1817   1818     1  0.0000000  1.6038667  3
    892   1826   1817   1819     1  0.0000000  1.6038667  3
    893    892   1826   1817     1  0.0000000  1.6038667  3
    894    892   1826   1817     1  0.0000000  1.6038667  3
    895   1855   1846   1847     1  0.0000000  1.6038667  3
    895   1855   1846   1848     1  0.0000000  1.6038667  3
    896    895   1855   1846     1  0.0000000  1.6038667  3
    897    895   1855   1846     1  0.0000000  1.6038667  3
    899    900    912    913     1  0.0000000  0.6508444  3
    899    900    912    914     1  0.0000000  0.6508444  3
    899    903    915    916     1  0.0000000  0.6508444  3
    899    903    915    917     1  0.0000000  0.6508444  3
    899    906    909    910     1  0.0000000  0.6508444  3
    899    906    909    911     1  0.0000000  0.6508444  3
    900    899    903    904     1  0.0000000  1.2552000  3
    900    899    903    905     1  0.0000000  1.2552000  3
    900    899    906    907     1  0.0000000  1.2552000  3
    900    899    906    908     1  0.0000000  1.2552000  3
    900    912    924    925     1  0.0000000  0.6508444  3
    900    912    924    926     1  0.0000000  0.6508444  3
    901    900    899    903     1  0.0000000  1.2552000  3
    901    900    899    906     1  0.0000000  1.2552000  3
    901    900    912    924     1  0.0000000  0.6508444  3
    901    900    912    913     1  0.0000000  0.6508444  3
    901    900    912    914     1  0.0000000  0.6508444  3
    902    900    899    903     1  0.0000000  1.2552000  3
    902    900    899    906     1  0.0000000  1.2552000  3
    902    900    912    924     1  0.0000000  0.6508444  3
    902    900    912    913     1  0.0000000  0.6508444  3
    902    900    912    914     1  0.0000000  0.6508444  3
    903    899    906    907     1  0.0000000  1.2552000  3
    903    899    906    908     1  0.0000000  1.2552000  3
    903    915    921    922     1  0.0000000  0.6508444  3
    903    915    921    923     1  0.0000000  0.6508444  3
    904    903    899    906     1  0.0000000  1.2552000  3
    904    903    915    921     1  0.0000000  0.6508444  3
    904    903    915    916     1  0.0000000  0.6508444  3
    904    903    915    917     1  0.0000000  0.6508444  3
    905    903    899    906     1  0.0000000  1.2552000  3
    905    903    915    921     1  0.0000000  0.6508444  3
    905    903    915    916     1  0.0000000  0.6508444  3
    905    903    915    917     1  0.0000000  0.6508444  3
    906    909    918    919     1  0.0000000  0.6508444  3
    906    909    918    920     1  0.0000000  0.6508444  3
    907    906    909    918     1  0.0000000  0.6508444  3
    907    906    909    910     1  0.0000000  0.6508444  3
    907    906    909    911     1  0.0000000  0.6508444  3
    908    906    909    918     1  0.0000000  0.6508444  3
    908    906    909    910     1  0.0000000  0.6508444  3
    908    906    909    911     1  0.0000000  0.6508444  3
    910    909    918    927     1  0.0000000  1.0460000  1
    910    909    918    927     1  0.0000000  0.0000000  3
    910    909    918    919     1  0.0000000  0.6508444  3
    910    909    918    920     1  0.0000000  0.6508444  3
    911    909    918    927     1  0.0000000  1.0460000  1
    911    909    918    927     1  0.0000000  0.0000000  3
    911    909    918    919     1  0.0000000  0.6508444  3
    911    909    918    920     1  0.0000000  0.6508444  3
    913    912    924   1913     1  0.0000000  1.0460000  1
    913    912    924   1913     1  0.0000000  0.0000000  3
    913    912    924    925     1  0.0000000  0.6508444  3
    913    912    924    926     1  0.0000000  0.6508444  3
    914    912    924   1913     1  0.0000000  1.0460000  1
    914    912    924   1913     1  0.0000000  0.0000000  3
    914    912    924    925     1  0.0000000  0.6508444  3
    914    912    924    926     1  0.0000000  0.6508444  3
    916    915    921   1884     1  0.0000000  1.0460000  1
    916    915    921   1884     1  0.0000000  0.0000000  3
    916    915    921    922     1  0.0000000  0.6508444  3
    916    915    921    923     1  0.0000000  0.6508444  3
    917    915    921   1884     1  0.0000000  1.0460000  1
    917    915    921   1884     1  0.0000000  0.0000000  3
    917    915    921    922     1  0.0000000  0.6508444  3
    917    915    921    923     1  0.0000000  0.6508444  3
    921   1884   1875   1876     1  0.0000000  1.6038667  3
    921   1884   1875   1877     1  0.0000000  1.6038667  3
    922    921   1884   1875     1  0.0000000  1.6038667  3
    923    921   1884   1875     1  0.0000000  1.6038667  3
    924   1913   1904   1905     1  0.0000000  1.6038667  3
    924   1913   1904   1906     1  0.0000000  1.6038667  3
    925    924   1913   1904     1  0.0000000  1.6038667  3
    926    924   1913   1904     1  0.0000000  1.6038667  3
    928    929    941    942     1  0.0000000  0.6508444  3
    928    929    941    943     1  0.0000000  0.6508444  3
    928    932    944    945     1  0.0000000  0.6508444  3
    928    932    944    946     1  0.0000000  0.6508444  3
    928    935    938    939     1  0.0000000  0.6508444  3
    928    935    938    940     1  0.0000000  0.6508444  3
    929    928    932    933     1  0.0000000  1.2552000  3
    929    928    932    934     1  0.0000000  1.2552000  3
    929    928    935    936     1  0.0000000  1.2552000  3
    929    928    935    937     1  0.0000000  1.2552000  3
    929    941    953    954     1  0.0000000  0.6508444  3
    929    941    953    955     1  0.0000000  0.6508444  3
    930    929    928    932     1  0.0000000  1.2552000  3
    930    929    928    935     1  0.0000000  1.2552000  3
    930    929    941    953     1  0.0000000  0.6508444  3
    930    929    941    942     1  0.0000000  0.6508444  3
    930    929    941    943     1  0.0000000  0.6508444  3
    931    929    928    932     1  0.0000000  1.2552000  3
    931    929    928    935     1  0.0000000  1.2552000  3
    931    929    941    953     1  0.0000000  0.6508444  3
    931    929    941    942     1  0.0000000  0.6508444  3
    931    929    941    943     1  0.0000000  0.6508444  3
    932    928    935    936     1  0.0000000  1.2552000  3
    932    928    935    937     1  0.0000000  1.2552000  3
    932    944    950    951     1  0.0000000  0.6508444  3
    932    944    950    952     1  0.0000000  0.6508444  3
    933    932    928    935     1  0.0000000  1.2552000  3
    933    932    944    950     1  0.0000000  0.6508444  3
    933    932    944    945     1  0.0000000  0.6508444  3
    933    932    944    946     1  0.0000000  0.6508444  3
    934    932    928    935     1  0.0000000  1.2552000  3
    934    932    944    950     1  0.0000000  0.6508444  3
    934    932    944    945     1  0.0000000  0.6508444  3
    934    932    944    946     1  0.0000000  0.6508444  3
    935    938    947    948     1  0.0000000  0.6508444  3
    935    938    947    949     1  0.0000000  0.6508444  3
    936    935    938    947     1  0.0000000  0.6508444  3
    936    935    938    939     1  0.0000000  0.6508444  3
    936    935    938    940     1  0.0000000  0.6508444  3
    937    935    938    947     1  0.0000000  0.6508444  3
    937    935    938    939     1  0.0000000  0.6508444  3
    937    935    938    940     1  0.0000000  0.6508444  3
    939    938    947    956     1  0.0000000  1.0460000  1
    939    938    947    956     1  0.0000000  0.0000000  3
    939    938    947    948     1  0.0000000  0.6508444  3
    939    938    947    949     1  0.0000000  0.6508444  3
    940    938    947    956     1  0.0000000  1.0460000  1
    940    938    947    956     1  0.0000000  0.0000000  3
    940    938    947    948     1  0.0000000  0.6508444  3
    940    938    947    949     1  0.0000000  0.6508444  3
    942    941    953   1971     1  0.0000000  1.0460000  1
    942    941    953   1971     1  0.0000000  0.0000000  3
    942    941    953    954     1  0.0000000  0.6508444  3
    942    941    953    955     1  0.0000000  0.6508444  3
    943    941    953   1971     1  0.0000000  1.0460000  1
    943    941    953   1971     1  0.0000000  0.0000000  3
    943    941    953    954     1  0.0000000  0.6508444  3
    943    941    953    955     1  0.0000000  0.6508444  3
    945    944    950   1942     1  0.0000000  1.0460000  1
    945    944    950   1942     1  0.0000000  0.0000000  3
    945    944    950    951     1  0.0000000  0.6508444  3
    945    944    950    952     1  0.0000000  0.6508444  3
    946    944    950   1942     1  0.0000000  1.0460000  1
    946    944    950   1942     1  0.0000000  0.0000000  3
    946    944    950    951     1  0.0000000  0.6508444  3
    946    944    950    952     1  0.0000000  0.6508444  3
    950   1942   1933   1934     1  0.0000000  1.6038667  3
    950   1942   1933   1935     1  0.0000000  1.6038667  3
    951    950   1942   1933     1  0.0000000  1.6038667  3
    952    950   1942   1933     1  0.0000000  1.6038667  3
    953   1971   1962   1963     1  0.0000000  1.6038667  3
    953   1971   1962   1964     1  0.0000000  1.6038667  3
    954    953   1971   1962     1  0.0000000  1.6038667  3
    955    953   1971   1962     1  0.0000000  1.6038667  3
    957    958    970    971     1  0.0000000  0.6508444  3
    957    958    970    972     1  0.0000000  0.6508444  3
    957    961    973    974     1  0.0000000  0.6508444  3
    957    961    973    975     1  0.0000000  0.6508444  3
    957    964    967    968     1  0.0000000  0.6508444  3
    957    964    967    969     1  0.0000000  0.6508444  3
    958    957    961    962     1  0.0000000  1.2552000  3
    958    957    961    963     1  0.0000000  1.2552000  3
    958    957    964    965     1  0.0000000  1.2552000  3
    958    957    964    966     1  0.0000000  1.2552000  3
    958    970    982    983     1  0.0000000  0.6508444  3
    958    970    982    984     1  0.0000000  0.6508444  3
    959    958    957    961     1  0.0000000  1.2552000  3
    959    958    957    964     1  0.0000000  1.2552000  3
    959    958    970    982     1  0.0000000  0.6508444  3
    959    958    970    971     1  0.0000000  0.6508444  3
    959    958    970    972     1  0.0000000  0.6508444  3
    960    958    957    961     1  0.0000000  1.2552000  3
    960    958    957    964     1  0.0000000  1.2552000  3
    960    958    970    982     1  0.0000000  0.6508444  3
    960    958    970    971     1  0.0000000  0.6508444  3
    960    958    970    972     1  0.0000000  0.6508444  3
    961    957    964    965     1  0.0000000  1.2552000  3
    961    957    964    966     1  0.0000000  1.2552000  3
    961    973    979    980     1  0.0000000  0.6508444  3
    961    973    979    981     1  0.0000000  0.6508444  3
    962    961    957    964     1  0.0000000  1.2552000  3
    962    961    973    979     1  0.0000000  0.6508444  3
    962    961    973    974     1  0.0000000  0.6508444  3
    962    961    973    975     1  0.0000000  0.6508444  3
    963    961    957    964     1  0.0000000  1.2552000  3
    963    961    973    979     1  0.0000000  0.6508444  3
    963    961    973    974     1  0.0000000  0.6508444  3
    963    961    973    975     1  0.0000000  0.6508444  3
    964    967    976    977     1  0.0000000  0.6508444  3
    964    967    976    978     1  0.0000000  0.6508444  3
    965    964    967    976     1  0.0000000  0.6508444  3
    965    964    967    968     1  0.0000000  0.6508444  3
    965    964    967    969     1  0.0000000  0.6508444  3
    966    964    967    976     1  0.0000000  0.6508444  3
    966    964    967    968     1  0.0000000  0.6508444  3
    966    964    967    969     1  0.0000000  0.6508444  3
    968    967    976    985     1  0.0000000  1.0460000  1
    968    967    976    985     1  0.0000000  0.0000000  3
    968    967    976    977     1  0.0000000  0.6508444  3
    968    967    976    978     1  0.0000000  0.6508444  3
    969    967    976    985     1  0.0000000  1.0460000  1
    969    967    976    985     1  0.0000000  0.0000000  3
    969    967    976    977     1  0.0000000  0.6508444  3
    969    967    976    978     1  0.0000000  0.6508444  3
    971    970    982   2029     1  0.0000000  1.0460000  1
    971    970    982   2029     1  0.0000000  0.0000000  3
    971    970    982    983     1  0.0000000  0.6508444  3
    971    970    982    984     1  0.0000000  0.6508444  3
    972    970    982   2029     1  0.0000000  1.0460000  1
    972    970    982   2029     1  0.0000000  0.0000000  3
    972    970    982    983     1  0.0000000  0.6508444  3
    972    970    982    984     1  0.0000000  0.6508444  3
    974    973    979   2000     1  0.0000000  1.0460000  1
    974    973    979   2000     1  0.0000000  0.0000000  3
    974    973    979    980     1  0.0000000  0.6508444  3
    974    973    979    981     1  0.0000000  0.6508444  3
    975    973    979   2000     1  0.0000000  1.0460000  1
    975    973    979   2000     1  0.0000000  0.0000000  3
    975    973    979    980     1  0.0000000  0.6508444  3
    975    973    979    981     1  0.0000000  0.6508444  3
    979   2000   1991   1992     1  0.0000000  1.6038667  3
    979   2000   1991   1993     1  0.0000000  1.6038667  3
    980    979   2000   1991     1  0.0000000  1.6038667  3
    981    979   2000   1991     1  0.0000000  1.6038667  3
    982   2029   2020   2021     1  0.0000000  1.6038667  3
    982   2029   2020   2022     1  0.0000000  1.6038667  3
    983    982   2029   2020     1  0.0000000  1.6038667  3
    984    982   2029   2020     1  0.0000000  1.6038667  3
    986    987    999   1000     1  0.0000000  0.6508444  3
    986    987    999   1001     1  0.0000000  0.6508444  3
    986    990   1002   1003     1  0.0000000  0.6508444  3
    986    990   1002   1004     1  0.0000000  0.6508444  3
    986    993    996    997     1  0.0000000  0.6508444  3
    986    993    996    998     1  0.0000000  0.6508444  3
    987    986    990    991     1  0.0000000  1.2552000  3
    987    986    990    992     1  0.0000000  1.2552000  3
    987    986    993    994     1  0.0000000  1.2552000  3
    987    986    993    995     1  0.0000000  1.2552000  3
    987    999   1011   1012     1  0.0000000  0.6508444  3
    987    999   1011   1013     1  0.0000000  0.6508444  3
    988    987    986    990     1  0.0000000  1.2552000  3
    988    987    986    993     1  0.0000000  1.2552000  3
    988    987    999   1011     1  0.0000000  0.6508444  3
    988    987    999   1000     1  0.0000000  0.6508444  3
    988    987    999   1001     1  0.0000000  0.6508444  3
    989    987    986    990     1  0.0000000  1.2552000  3
    989    987    986    993     1  0.0000000  1.2552000  3
    989    987    999   1011     1  0.0000000  0.6508444  3
    989    987    999   1000     1  0.0000000  0.6508444  3
    989    987    999   1001     1  0.0000000  0.6508444  3
    990    986    993    994     1  0.0000000  1.2552000  3
    990    986    993    995     1  0.0000000  1.2552000  3
    990   1002   1008   1009     1  0.0000000  0.6508444  3
    990   1002   1008   1010     1  0.0000000  0.6508444  3
    991    990    986    993     1  0.0000000  1.2552000  3
    991    990   1002   1008     1  0.0000000  0.6508444  3
    991    990   1002   1003     1  0.0000000  0.6508444  3
    991    990   1002   1004     1  0.0000000  0.6508444  3
    992    990    986    993     1  0.0000000  1.2552000  3
    992    990   1002   1008     1  0.0000000  0.6508444  3
    992    990   1002   1003     1  0.0000000  0.6508444  3
    992    990   1002   1004     1  0.0000000  0.6508444  3
    993    996   1005   1006     1  0.0000000  0.6508444  3
    993    996   1005   1007     1  0.0000000  0.6508444  3
    994    993    996   1005     1  0.0000000  0.6508444  3
    994    993    996    997     1  0.0000000  0.6508444  3
    994    993    996    998     1  0.0000000  0.6508444  3
    995    993    996   1005     1  0.0000000  0.6508444  3
    995    993    996    997     1  0.0000000  0.6508444  3
    995    993    996    998     1  0.0000000  0.6508444  3
    997    996   1005   1014     1  0.0000000  1.0460000  1
    997    996   1005   1014     1  0.0000000  0.0000000  3
    997    996   1005   1006     1  0.0000000  0.6508444  3
    997    996   1005   1007     1  0.0000000  0.6508444  3
    998    996   1005   1014     1  0.0000000  1.0460000  1
    998    996   1005   1014     1  0.0000000  0.0000000  3
    998    996   1005   1006     1  0.0000000  0.6508444  3
    998    996   1005   1007     1  0.0000000  0.6508444  3
   1000    999   1011   2087     1  0.0000000  1.0460000  1
   1000    999   1011   2087     1  0.0000000  0.0000000  3
   1000    999   1011   1012     1  0.0000000  0.6508444  3
   1000    999   1011   1013     1  0.0000000  0.6508444  3
   1001    999   1011   2087     1  0.0000000  1.0460000  1
   1001    999   1011   2087     1  0.0000000  0.0000000  3
   1001    999   1011   1012     1  0.0000000  0.6508444  3
   1001    999   1011   1013     1  0.0000000  0.6508444  3
   1003   1002   1008   2058     1  0.0000000  1.0460000  1
   1003   1002   1008   2058     1  0.0000000  0.0000000  3
   1003   1002   1008   1009     1  0.0000000  0.6508444  3
   1003   1002   1008   1010     1  0.0000000  0.6508444  3
   1004   1002   1008   2058     1  0.0000000  1.0460000  1
   1004   1002   1008   2058     1  0.0000000  0.0000000  3
   1004   1002   1008   1009     1  0.0000000  0.6508444  3
   1004   1002   1008   1010     1  0.0000000  0.6508444  3
   1008   2058   2049   2050     1  0.0000000  1.6038667  3
   1008   2058   2049   2051     1  0.0000000  1.6038667  3
   1009   1008   2058   2049     1  0.0000000  1.6038667  3
   1010   1008   2058   2049     1  0.0000000  1.6038667  3
   1011   2087   2078   2079     1  0.0000000  1.6038667  3
   1011   2087   2078   2080     1  0.0000000  1.6038667  3
   1012   1011   2087   2078     1  0.0000000  1.6038667  3
   1013   1011   2087   2078     1  0.0000000  1.6038667  3
   1015   1016   1028   1029     1  0.0000000  0.6508444  3
   1015   1016   1028   1030     1  0.0000000  0.6508444  3
   1015   1019   1031   1032     1  0.0000000  0.6508444  3
   1015   1019   1031   1033     1  0.0000000  0.6508444  3
   1015   1022   1025   1026     1  0.0000000  0.6508444  3
   1015   1022   1025   1027     1  0.0000000  0.6508444  3
   1016   1015   1019   1020     1  0.0000000  1.2552000  3
   1016   1015   1019   1021     1  0.0000000  1.2552000  3
   1016   1015   1022   1023     1  0.0000000  1.2552000  3
   1016   1015   1022   1024     1  0.0000000  1.2552000  3
   1016   1028   1040   1041     1  0.0000000  0.6508444  3
   1016   1028   1040   1042     1  0.0000000  0.6508444  3
   1017   1016   1015   1019     1  0.0000000  1.2552000  3
   1017   1016   1015   1022     1  0.0000000  1.2552000  3
   1017   1016   1028   1040     1  0.0000000  0.6508444  3
   1017   1016   1028   1029     1  0.0000000  0.6508444  3
   1017   1016   1028   1030     1  0.0000000  0.6508444  3
   1018   1016   1015   1019     1  0.0000000  1.2552000  3
   1018   1016   1015   1022     1  0.0000000  1.2552000  3
   1018   1016   1028   1040     1  0.0000000  0.6508444  3
   1018   1016   1028   1029     1  0.0000000  0.6508444  3
   1018   1016   1028   1030     1  0.0000000  0.6508444  3
   1019   1015   1022   1023     1  0.0000000  1.2552000  3
   1019   1015   1022   1024     1  0.0000000  1.2552000  3
   1019   1031   1037   1038     1  0.0000000  0.6508444  3
   1019   1031   1037   1039     1  0.0000000  0.6508444  3
   1020   1019   1015   1022     1  0.0000000  1.2552000  3
   1020   1019   1031   1037     1  0.0000000  0.6508444  3
   1020   1019   1031   1032     1  0.0000000  0.6508444  3
   1020   1019   1031   1033     1  0.0000000  0.6508444  3
   1021   1019   1015   1022     1  0.0000000  1.2552000  3
   1021   1019   1031   1037     1  0.0000000  0.6508444  3
   1021   1019   1031   1032     1  0.0000000  0.6508444  3
   1021   1019   1031   1033     1  0.0000000  0.6508444  3
   1022   1025   1034   1035     1  0.0000000  0.6508444  3
   1022   1025   1034   1036     1  0.0000000  0.6508444  3
   1023   1022   1025   1034     1  0.0000000  0.6508444  3
   1023   1022   1025   1026     1  0.0000000  0.6508444  3
   1023   1022   1025   1027     1  0.0000000  0.6508444  3
   1024   1022   1025   1034     1  0.0000000  0.6508444  3
   1024   1022   1025   1026     1  0.0000000  0.6508444  3
   1024   1022   1025   1027     1  0.0000000  0.6508444  3
   1026   1025   1034   1043     1  0.0000000  1.0460000  1
   1026   1025   1034   1043     1  0.0000000  0.0000000  3
   1026   1025   1034   1035     1  0.0000000  0.6508444  3
   1026   1025   1034   1036     1  0.0000000  0.6508444  3
   1027   1025   1034   1043     1  0.0000000  1.0460000  1
   1027   1025   1034   1043     1  0.0000000  0.0000000  3
   1027   1025   1034   1035     1  0.0000000  0.6508444  3
   1027   1025   1034   1036     1  0.0000000  0.6508444  3
   1029   1028   1040   2145     1  0.0000000  1.0460000  1
   1029   1028   1040   2145     1  0.0000000  0.0000000  3
   1029   1028   1040   1041     1  0.0000000  0.6508444  3
   1029   1028   1040   1042     1  0.0000000  0.6508444  3
   1030   1028   1040   2145     1  0.0000000  1.0460000  1
   1030   1028   1040   2145     1  0.0000000  0.0000000  3
   1030   1028   1040   1041     1  0.0000000  0.6508444  3
   1030   1028   1040   1042     1  0.0000000  0.6508444  3
   1032   1031   1037   2116     1  0.0000000  1.0460000  1
   1032   1031   1037   2116     1  0.0000000  0.0000000  3
   1032   1031   1037   1038     1  0.0000000  0.6508444  3
   1032   1031   1037   1039     1  0.0000000  0.6508444  3
   1033   1031   1037   2116     1  0.0000000  1.0460000  1
   1033   1031   1037   2116     1  0.0000000  0.0000000  3
   1033   1031   1037   1038     1  0.0000000  0.6508444  3
   1033   1031   1037   1039     1  0.0000000  0.6508444  3
   1037   2116   2107   2108     1  0.0000000  1.6038667  3
   1037   2116   2107   2109     1  0.0000000  1.6038667  3
   1038   1037   2116   2107     1  0.0000000  1.6038667  3
   1039   1037   2116   2107     1  0.0000000  1.6038667  3
   1040   2145   2136   2137     1  0.0000000  1.6038667  3
   1040   2145   2136   2138     1  0.0000000  1.6038667  3
   1041   1040   2145   2136     1  0.0000000  1.6038667  3
   1042   1040   2145   2136     1  0.0000000  1.6038667  3
   1044   1045   1057   1058     1  0.0000000  0.6508444  3
   1044   1045   1057   1059     1  0.0000000  0.6508444  3
   1044   1048   1060   1061     1  0.0000000  0.6508444  3
   1044   1048   1060   1062     1  0.0000000  0.6508444  3
   1044   1051   1054   1055     1  0.0000000  0.6508444  3
   1044   1051   1054   1056     1  0.0000000  0.6508444  3
   1045   1044   1048   1049     1  0.0000000  1.2552000  3
   1045   1044   1048   1050     1  0.0000000  1.2552000  3
   1045   1044   1051   1052     1  0.0000000  1.2552000  3
   1045   1044   1051   1053     1  0.0000000  1.2552000  3
   1045   1057   1069   1070     1  0.0000000  0.6508444  3
   1045   1057   1069   1071     1  0.0000000  0.6508444  3
   1046   1045   1044   1048     1  0.0000000  1.2552000  3
   1046   1045   1044   1051     1  0.0000000  1.2552000  3
   1046   1045   1057   1069     1  0.0000000  0.6508444  3
   1046   1045   1057   1058     1  0.0000000  0.6508444  3
   1046   1045   1057   1059     1  0.0000000  0.6508444  3
   1047   1045   1044   1048     1  0.0000000  1.2552000  3
   1047   1045   1044   1051     1  0.0000000  1.2552000  3
   1047   1045   1057   1069     1  0.0000000  0.6508444  3
   1047   1045   1057   1058     1  0.0000000  0.6508444  3
   1047   1045   1057   1059     1  0.0000000  0.6508444  3
   1048   1044   1051   1052     1  0.0000000  1.2552000  3
   1048   1044   1051   1053     1  0.0000000  1.2552000  3
   1048   1060   1066   1067     1  0.0000000  0.6508444  3
   1048   1060   1066   1068     1  0.0000000  0.6508444  3
   1049   1048   1044   1051     1  0.0000000  1.2552000  3
   1049   1048   1060   1066     1  0.0000000  0.6508444  3
   1049   1048   1060   1061     1  0.0000000  0.6508444  3
   1049   1048   1060   1062     1  0.0000000  0.6508444  3
   1050   1048   1044   1051     1  0.0000000  1.2552000  3
   1050   1048   1060   1066     1  0.0000000  0.6508444  3
   1050   1048   1060   1061     1  0.0000000  0.6508444  3
   1050   1048   1060   1062     1  0.0000000  0.6508444  3
   1051   1054   1063   1064     1  0.0000000  0.6508444  3
   1051   1054   1063   1065     1  0.0000000  0.6508444  3
   1052   1051   1054   1063     1  0.0000000  0.6508444  3
   1052   1051   1054   1055     1  0.0000000  0.6508444  3
   1052   1051   1054   1056     1  0.0000000  0.6508444  3
   1053   1051   1054   1063     1  0.0000000  0.6508444  3
   1053   1051   1054   1055     1  0.0000000  0.6508444  3
   1053   1051   1054   1056     1  0.0000000  0.6508444  3
   1055   1054   1063   1072     1  0.0000000  1.0460000  1
   1055   1054   1063   1072     1  0.0000000  0.0000000  3
   1055   1054   1063   1064     1  0.0000000  0.6508444  3
   1055   1054   1063   1065     1  0.0000000  0.6508444  3
   1056   1054   1063   1072     1  0.0000000  1.0460000  1
   1056   1054   1063   1072     1  0.0000000  0.0000000  3
   1056   1054   1063   1064     1  0.0000000  0.6508444  3
   1056   1054   1063   1065     1  0.0000000  0.6508444  3
   1058   1057   1069   2203     1  0.0000000  1.0460000  1
   1058   1057   1069   2203     1  0.0000000  0.0000000  3
   1058   1057   1069   1070     1  0.0000000  0.6508444  3
   1058   1057   1069   1071     1  0.0000000  0.6508444  3
   1059   1057   1069   2203     1  0.0000000  1.0460000  1
   1059   1057   1069   2203     1  0.0000000  0.0000000  3
   1059   1057   1069   1070     1  0.0000000  0.6508444  3
   1059   1057   1069   1071     1  0.0000000  0.6508444  3
   1061   1060   1066   2174     1  0.0000000  1.0460000  1
   1061   1060   1066   2174     1  0.0000000  0.0000000  3
   1061   1060   1066   1067     1  0.0000000  0.6508444  3
   1061   1060   1066   1068     1  0.0000000  0.6508444  3
   1062   1060   1066   2174     1  0.0000000  1.0460000  1
   1062   1060   1066   2174     1  0.0000000  0.0000000  3
   1062   1060   1066   1067     1  0.0000000  0.6508444  3
   1062   1060   1066   1068     1  0.0000000  0.6508444  3
   1066   2174   2165   2166     1  0.0000000  1.6038667  3
   1066   2174   2165   2167     1  0.0000000  1.6038667  3
   1067   1066   2174   2165     1  0.0000000  1.6038667  3
   1068   1066   2174   2165     1  0.0000000  1.6038667  3
   1069   2203   2194   2195     1  0.0000000  1.6038667  3
   1069   2203   2194   2196     1  0.0000000  1.6038667  3
   1070   1069   2203   2194     1  0.0000000  1.6038667  3
   1071   1069   2203   2194     1  0.0000000  1.6038667  3
   1073   1074   1086   1087     1  0.0000000  0.6508444  3
   1073   1074   1086   1088     1  0.0000000  0.6508444  3
   1073   1077   1089   1090     1  0.0000000  0.6508444  3
   1073   1077   1089   1091     1  0.0000000  0.6508444  3
   1073   1080   1083   1084     1  0.0000000  0.6508444  3
   1073   1080   1083   1085     1  0.0000000  0.6508444  3
   1074   1073   1077   1078     1  0.0000000  1.2552000  3
   1074   1073   1077   1079     1  0.0000000  1.2552000  3
   1074   1073   1080   1081     1  0.0000000  1.2552000  3
   1074   1073   1080   1082     1  0.0000000  1.2552000  3
   1074   1086   1098   1099     1  0.0000000  0.6508444  3
   1074   1086   1098   1100     1  0.0000000  0.6508444  3
   1075   1074   1073   1077     1  0.0000000  1.2552000  3
   1075   1074   1073   1080     1  0.0000000  1.2552000  3
   1075   1074   1086   1098     1  0.0000000  0.6508444  3
   1075   1074   1086   1087     1  0.0000000  0.6508444  3
   1075   1074   1086   1088     1  0.0000000  0.6508444  3
   1076   1074   1073   1077     1  0.0000000  1.2552000  3
   1076   1074   1073   1080     1  0.0000000  1.2552000  3
   1076   1074   1086   1098     1  0.0000000  0.6508444  3
   1076   1074   1086   1087     1  0.0000000  0.6508444  3
   1076   1074   1086   1088     1  0.0000000  0.6508444  3
   1077   1073   1080   1081     1  0.0000000  1.2552000  3
   1077   1073   1080   1082     1  0.0000000  1.2552000  3
   1077   1089   1095   1096     1  0.0000000  0.6508444  3
   1077   1089   1095   1097     1  0.0000000  0.6508444  3
   1078   1077   1073   1080     1  0.0000000  1.2552000  3
   1078   1077   1089   1095     1  0.0000000  0.6508444  3
   1078   1077   1089   1090     1  0.0000000  0.6508444  3
   1078   1077   1089   1091     1  0.0000000  0.6508444  3
   1079   1077   1073   1080     1  0.0000000  1.2552000  3
   1079   1077   1089   1095     1  0.0000000  0.6508444  3
   1079   1077   1089   1090     1  0.0000000  0.6508444  3
   1079   1077   1089   1091     1  0.0000000  0.6508444  3
   1080   1083   1092   1093     1  0.0000000  0.6508444  3
   1080   1083   1092   1094     1  0.0000000  0.6508444  3
   1081   1080   1083   1092     1  0.0000000  0.6508444  3
   1081   1080   1083   1084     1  0.0000000  0.6508444  3
   1081   1080   1083   1085     1  0.0000000  0.6508444  3
   1082   1080   1083   1092     1  0.0000000  0.6508444  3
   1082   1080   1083   1084     1  0.0000000  0.6508444  3
   1082   1080   1083   1085     1  0.0000000  0.6508444  3
   1084   1083   1092   1101     1  0.0000000  1.0460000  1
   1084   1083   1092   1101     1  0.0000000  0.0000000  3
   1084   1083   1092   1093     1  0.0000000  0.6508444  3
   1084   1083   1092   1094     1  0.0000000  0.6508444  3
   1085   1083   1092   1101     1  0.0000000  1.0460000  1
   1085   1083   1092   1101     1  0.0000000  0.0000000  3
   1085   1083   1092   1093     1  0.0000000  0.6508444  3
   1085   1083   1092   1094     1  0.0000000  0.6508444  3
   1087   1086   1098   2261     1  0.0000000  1.0460000  1
   1087   1086   1098   2261     1  0.0000000  0.0000000  3
   1087   1086   1098   1099     1  0.0000000  0.6508444  3
   1087   1086   1098   1100     1  0.0000000  0.6508444  3
   1088   1086   1098   2261     1  0.0000000  1.0460000  1
   1088   1086   1098   2261     1  0.0000000  0.0000000  3
   1088   1086   1098   1099     1  0.0000000  0.6508444  3
   1088   1086   1098   1100     1  0.0000000  0.6508444  3
   1090   1089   1095   2232     1  0.0000000  1.0460000  1
   1090   1089   1095   2232     1  0.0000000  0.0000000  3
   1090   1089   1095   1096     1  0.0000000  0.6508444  3
   1090   1089   1095   1097     1  0.0000000  0.6508444  3
   1091   1089   1095   2232     1  0.0000000  1.0460000  1
   1091   1089   1095   2232     1  0.0000000  0.0000000  3
   1091   1089   1095   1096     1  0.0000000  0.6508444  3
   1091   1089   1095   1097     1  0.0000000  0.6508444  3
   1095   2232   2223   2224     1  0.0000000  1.6038667  3
   1095   2232   2223   2225     1  0.0000000  1.6038667  3
   1096   1095   2232   2223     1  0.0000000  1.6038667  3
   1097   1095   2232   2223     1  0.0000000  1.6038667  3
   1098   2261   2252   2253     1  0.0000000  1.6038667  3
   1098   2261   2252   2254     1  0.0000000  1.6038667  3
   1099   1098   2261   2252     1  0.0000000  1.6038667  3
   1100   1098   2261   2252     1  0.0000000  1.6038667  3
   1102   1103   1115   1116     1  0.0000000  0.6508444  3
   1102   1103   1115   1117     1  0.0000000  0.6508444  3
   1102   1106   1118   1119     1  0.0000000  0.6508444  3
   1102   1106   1118   1120     1  0.0000000  0.6508444  3
   1102   1109   1112   1113     1  0.0000000  0.6508444  3
   1102   1109   1112   1114     1  0.0000000  0.6508444  3
   1103   1102   1106   1107     1  0.0000000  1.2552000  3
   1103   1102   1106   1108     1  0.0000000  1.2552000  3
   1103   1102   1109   1110     1  0.0000000  1.2552000  3
   1103   1102   1109   1111     1  0.0000000  1.2552000  3
   1103   1115   1127   1128     1  0.0000000  0.6508444  3
   1103   1115   1127   1129     1  0.0000000  0.6508444  3
   1104   1103   1102   1106     1  0.0000000  1.2552000  3
   1104   1103   1102   1109     1  0.0000000  1.2552000  3
   1104   1103   1115   1127     1  0.0000000  0.6508444  3
   1104   1103   1115   1116     1  0.0000000  0.6508444  3
   1104   1103   1115   1117     1  0.0000000  0.6508444  3
   1105   1103   1102   1106     1  0.0000000  1.2552000  3
   1105   1103   1102   1109     1  0.0000000  1.2552000  3
   1105   1103   1115   1127     1  0.0000000  0.6508444  3
   1105   1103   1115   1116     1  0.0000000  0.6508444  3
   1105   1103   1115   1117     1  0.0000000  0.6508444  3
   1106   1102   1109   1110     1  0.0000000  1.2552000  3
   1106   1102   1109   1111     1  0.0000000  1.2552000  3
   1106   1118   1124   1125     1  0.0000000  0.6508444  3
   1106   1118   1124   1126     1  0.0000000  0.6508444  3
   1107   1106   1102   1109     1  0.0000000  1.2552000  3
   1107   1106   1118   1124     1  0.0000000  0.6508444  3
   1107   1106   1118   1119     1  0.0000000  0.6508444  3
   1107   1106   1118   1120     1  0.0000000  0.6508444  3
   1108   1106   1102   1109     1  0.0000000  1.2552000  3
   1108   1106   1118   1124     1  0.0000000  0.6508444  3
   1108   1106   1118   1119     1  0.0000000  0.6508444  3
   1108   1106   1118   1120     1  0.0000000  0.6508444  3
   1109   1112   1121   1122     1  0.0000000  0.6508444  3
   1109   1112   1121   1123     1  0.0000000  0.6508444  3
   1110   1109   1112   1121     1  0.0000000  0.6508444  3
   1110   1109   1112   1113     1  0.0000000  0.6508444  3
   1110   1109   1112   1114     1  0.0000000  0.6508444  3
   1111   1109   1112   1121     1  0.0000000  0.6508444  3
   1111   1109   1112   1113     1  0.0000000  0.6508444  3
   1111   1109   1112   1114     1  0.0000000  0.6508444  3
   1113   1112   1121   1130     1  0.0000000  1.0460000  1
   1113   1112   1121   1130     1  0.0000000  0.0000000  3
   1113   1112   1121   1122     1  0.0000000  0.6508444  3
   1113   1112   1121   1123     1  0.0000000  0.6508444  3
   1114   1112   1121   1130     1  0.0000000  1.0460000  1
   1114   1112   1121   1130     1  0.0000000  0.0000000  3
   1114   1112   1121   1122     1  0.0000000  0.6508444  3
   1114   1112   1121   1123     1  0.0000000  0.6508444  3
   1116   1115   1127   2319     1  0.0000000  1.0460000  1
   1116   1115   1127   2319     1  0.0000000  0.0000000  3
   1116   1115   1127   1128     1  0.0000000  0.6508444  3
   1116   1115   1127   1129     1  0.0000000  0.6508444  3
   1117   1115   1127   2319     1  0.0000000  1.0460000  1
   1117   1115   1127   2319     1  0.0000000  0.0000000  3
   1117   1115   1127   1128     1  0.0000000  0.6508444  3
   1117   1115   1127   1129     1  0.0000000  0.6508444  3
   1119   1118   1124   2290     1  0.0000000  1.0460000  1
   1119   1118   1124   2290     1  0.0000000  0.0000000  3
   1119   1118   1124   1125     1  0.0000000  0.6508444  3
   1119   1118   1124   1126     1  0.0000000  0.6508444  3
   1120   1118   1124   2290     1  0.0000000  1.0460000  1
   1120   1118   1124   2290     1  0.0000000  0.0000000  3
   1120   1118   1124   1125     1  0.0000000  0.6508444  3
   1120   1118   1124   1126     1  0.0000000  0.6508444  3
   1124   2290   2281   2282     1  0.0000000  1.6038667  3
   1124   2290   2281   2283     1  0.0000000  1.6038667  3
   1125   1124   2290   2281     1  0.0000000  1.6038667  3
   1126   1124   2290   2281     1  0.0000000  1.6038667  3
   1127   2319   2310   2311     1  0.0000000  1.6038667  3
   1127   2319   2310   2312     1  0.0000000  1.6038667  3
   1128   1127   2319   2310     1  0.0000000  1.6038667  3
   1129   1127   2319   2310     1  0.0000000  1.6038667  3
   1131   1132   1144   1145     1  0.0000000  0.6508444  3
   1131   1132   1144   1146     1  0.0000000  0.6508444  3
   1131   1135   1147   1148     1  0.0000000  0.6508444  3
   1131   1135   1147   1149     1  0.0000000  0.6508444  3
   1131   1138   1141   1142     1  0.0000000  0.6508444  3
   1131   1138   1141   1143     1  0.0000000  0.6508444  3
   1132   1131   1135   1136     1  0.0000000  1.2552000  3
   1132   1131   1135   1137     1  0.0000000  1.2552000  3
   1132   1131   1138   1139     1  0.0000000  1.2552000  3
   1132   1131   1138   1140     1  0.0000000  1.2552000  3
   1132   1144   1156   1157     1  0.0000000  0.6508444  3
   1132   1144   1156   1158     1  0.0000000  0.6508444  3
   1133   1132   1131   1135     1  0.0000000  1.2552000  3
   1133   1132   1131   1138     1  0.0000000  1.2552000  3
   1133   1132   1144   1156     1  0.0000000  0.6508444  3
   1133   1132   1144   1145     1  0.0000000  0.6508444  3
   1133   1132   1144   1146     1  0.0000000  0.6508444  3
   1134   1132   1131   1135     1  0.0000000  1.2552000  3
   1134   1132   1131   1138     1  0.0000000  1.2552000  3
   1134   1132   1144   1156     1  0.0000000  0.6508444  3
   1134   1132   1144   1145     1  0.0000000  0.6508444  3
   1134   1132   1144   1146     1  0.0000000  0.6508444  3
   1135   1131   1138   1139     1  0.0000000  1.2552000  3
   1135   1131   1138   1140     1  0.0000000  1.2552000  3
   1135   1147   1153   1154     1  0.0000000  0.6508444  3
   1135   1147   1153   1155     1  0.0000000  0.6508444  3
   1136   1135   1131   1138     1  0.0000000  1.2552000  3
   1136   1135   1147   1153     1  0.0000000  0.6508444  3
   1136   1135   1147   1148     1  0.0000000  0.6508444  3
   1136   1135   1147   1149     1  0.0000000  0.6508444  3
   1137   1135   1131   1138     1  0.0000000  1.2552000  3
   1137   1135   1147   1153     1  0.0000000  0.6508444  3
   1137   1135   1147   1148     1  0.0000000  0.6508444  3
   1137   1135   1147   1149     1  0.0000000  0.6508444  3
   1138   1141   1150   1151     1  0.0000000  0.6508444  3
   1138   1141   1150   1152     1  0.0000000  0.6508444  3
   1139   1138   1141   1150     1  0.0000000  0.6508444  3
   1139   1138   1141   1142     1  0.0000000  0.6508444  3
   1139   1138   1141   1143     1  0.0000000  0.6508444  3
   1140   1138   1141   1150     1  0.0000000  0.6508444  3
   1140   1138   1141   1142     1  0.0000000  0.6508444  3
   1140   1138   1141   1143     1  0.0000000  0.6508444  3
   1142   1141   1150   1159     1  0.0000000  1.0460000  1
   1142   1141   1150   1159     1  0.0000000  0.0000000  3
   1142   1141   1150   1151     1  0.0000000  0.6508444  3
   1142   1141   1150   1152     1  0.0000000  0.6508444  3
   1143   1141   1150   1159     1  0.0000000  1.0460000  1
   1143   1141   1150   1159     1  0.0000000  0.0000000  3
   1143   1141   1150   1151     1  0.0000000  0.6508444  3
   1143   1141   1150   1152     1  0.0000000  0.6508444  3
   1145   1144   1156   2377     1  0.0000000  1.0460000  1
   1145   1144   1156   2377     1  0.0000000  0.0000000  3
   1145   1144   1156   1157     1  0.0000000  0.6508444  3
   1145   1144   1156   1158     1  0.0000000  0.6508444  3
   1146   1144   1156   2377     1  0.0000000  1.0460000  1
   1146   1144   1156   2377     1  0.0000000  0.0000000  3
   1146   1144   1156   1157     1  0.0000000  0.6508444  3
   1146   1144   1156   1158     1  0.0000000  0.6508444  3
   1148   1147   1153   2348     1  0.0000000  1.0460000  1
   1148   1147   1153   2348     1  0.0000000  0.0000000  3
   1148   1147   1153   1154     1  0.0000000  0.6508444  3
   1148   1147   1153   1155     1  0.0000000  0.6508444  3
   1149   1147   1153   2348     1  0.0000000  1.0460000  1
   1149   1147   1153   2348     1  0.0000000  0.0000000  3
   1149   1147   1153   1154     1  0.0000000  0.6508444  3
   1149   1147   1153   1155     1  0.0000000  0.6508444  3
   1153   2348   2339   2340     1  0.0000000  1.6038667  3
   1153   2348   2339   2341     1  0.0000000  1.6038667  3
   1154   1153   2348   2339     1  0.0000000  1.6038667  3
   1155   1153   2348   2339     1  0.0000000  1.6038667  3
   1156   2377   2368   2369     1  0.0000000  1.6038667  3
   1156   2377   2368   2370     1  0.0000000  1.6038667  3
   1157   1156   2377   2368     1  0.0000000  1.6038667  3
   1158   1156   2377   2368     1  0.0000000  1.6038667  3
   1160   1161   1173   1174     1  0.0000000  0.6508444  3
   1160   1161   1173   1175     1  0.0000000  0.6508444  3
   1160   1164   1176   1177     1  0.0000000  0.6508444  3
   1160   1164   1176   1178     1  0.0000000  0.6508444  3
   1160   1167   1170   1171     1  0.0000000  0.6508444  3
   1160   1167   1170   1172     1  0.0000000  0.6508444  3
   1161   1160   1164   1165     1  0.0000000  1.2552000  3
   1161   1160   1164   1166     1  0.0000000  1.2552000  3
   1161   1160   1167   1168     1  0.0000000  1.2552000  3
   1161   1160   1167   1169     1  0.0000000  1.2552000  3
   1161   1173   1185   1186     1  0.0000000  0.6508444  3
   1161   1173   1185   1187     1  0.0000000  0.6508444  3
   1162   1161   1160   1164     1  0.0000000  1.2552000  3
   1162   1161   1160   1167     1  0.0000000  1.2552000  3
   1162   1161   1173   1185     1  0.0000000  0.6508444  3
   1162   1161   1173   1174     1  0.0000000  0.6508444  3
   1162   1161   1173   1175     1  0.0000000  0.6508444  3
   1163   1161   1160   1164     1  0.0000000  1.2552000  3
   1163   1161   1160   1167     1  0.0000000  1.2552000  3
   1163   1161   1173   1185     1  0.0000000  0.6508444  3
   1163   1161   1173   1174     1  0.0000000  0.6508444  3
   1163   1161   1173   1175     1  0.0000000  0.6508444  3
   1164   1160   1167   1168     1  0.0000000  1.2552000  3
   1164   1160   1167   1169     1  0.0000000  1.2552000  3
   1164   1176   1182   1183     1  0.0000000  0.6508444  3
   1164   1176   1182   1184     1  0.0000000  0.6508444  3
   1165   1164   1160   1167     1  0.0000000  1.2552000  3
   1165   1164   1176   1182     1  0.0000000  0.6508444  3
   1165   1164   1176   1177     1  0.0000000  0.6508444  3
   1165   1164   1176   1178     1  0.0000000  0.6508444  3
   1166   1164   1160   1167     1  0.0000000  1.2552000  3
   1166   1164   1176   1182     1  0.0000000  0.6508444  3
   1166   1164   1176   1177     1  0.0000000  0.6508444  3
   1166   1164   1176   1178     1  0.0000000  0.6508444  3
   1167   1170   1179   1180     1  0.0000000  0.6508444  3
   1167   1170   1179   1181     1  0.0000000  0.6508444  3
   1168   1167   1170   1179     1  0.0000000  0.6508444  3
   1168   1167   1170   1171     1  0.0000000  0.6508444  3
   1168   1167   1170   1172     1  0.0000000  0.6508444  3
   1169   1167   1170   1179     1  0.0000000  0.6508444  3
   1169   1167   1170   1171     1  0.0000000  0.6508444  3
   1169   1167   1170   1172     1  0.0000000  0.6508444  3
   1171   1170   1179   1188     1  0.0000000  1.0460000  1
   1171   1170   1179   1188     1  0.0000000  0.0000000  3
   1171   1170   1179   1180     1  0.0000000  0.6508444  3
   1171   1170   1179   1181     1  0.0000000  0.6508444  3
   1172   1170   1179   1188     1  0.0000000  1.0460000  1
   1172   1170   1179   1188     1  0.0000000  0.0000000  3
   1172   1170   1179   1180     1  0.0000000  0.6508444  3
   1172   1170   1179   1181     1  0.0000000  0.6508444  3
   1174   1173   1185   2435     1  0.0000000  1.0460000  1
   1174   1173   1185   2435     1  0.0000000  0.0000000  3
   1174   1173   1185   1186     1  0.0000000  0.6508444  3
   1174   1173   1185   1187     1  0.0000000  0.6508444  3
   1175   1173   1185   2435     1  0.0000000  1.0460000  1
   1175   1173   1185   2435     1  0.0000000  0.0000000  3
   1175   1173   1185   1186     1  0.0000000  0.6508444  3
   1175   1173   1185   1187     1  0.0000000  0.6508444  3
   1177   1176   1182   2406     1  0.0000000  1.0460000  1
   1177   1176   1182   2406     1  0.0000000  0.0000000  3
   1177   1176   1182   1183     1  0.0000000  0.6508444  3
   1177   1176   1182   1184     1  0.0000000  0.6508444  3
   1178   1176   1182   2406     1  0.0000000  1.0460000  1
   1178   1176   1182   2406     1  0.0000000  0.0000000  3
   1178   1176   1182   1183     1  0.0000000  0.6508444  3
   1178   1176   1182   1184     1  0.0000000  0.6508444  3
   1182   2406   2397   2398     1  0.0000000  1.6038667  3
   1182   2406   2397   2399     1  0.0000000  1.6038667  3
   1183   1182   2406   2397     1  0.0000000  1.6038667  3
   1184   1182   2406   2397     1  0.0000000  1.6038667  3
   1185   2435   2426   2427     1  0.0000000  1.6038667  3
   1185   2435   2426   2428     1  0.0000000  1.6038667  3
   1186   1185   2435   2426     1  0.0000000  1.6038667  3
   1187   1185   2435   2426     1  0.0000000  1.6038667  3
   1189   1190   1202   1203     1  0.0000000  0.6508444  3
   1189   1190   1202   1204     1  0.0000000  0.6508444  3
   1189   1193   1205   1206     1  0.0000000  0.6508444  3
   1189   1193   1205   1207     1  0.0000000  0.6508444  3
   1189   1196   1199   1200     1  0.0000000  0.6508444  3
   1189   1196   1199   1201     1  0.0000000  0.6508444  3
   1190   1189   1193   1194     1  0.0000000  1.2552000  3
   1190   1189   1193   1195     1  0.0000000  1.2552000  3
   1190   1189   1196   1197     1  0.0000000  1.2552000  3
   1190   1189   1196   1198     1  0.0000000  1.2552000  3
   1190   1202   1214   1215     1  0.0000000  0.6508444  3
   1190   1202   1214   1216     1  0.0000000  0.6508444  3
   1191   1190   1189   1193     1  0.0000000  1.2552000  3
   1191   1190   1189   1196     1  0.0000000  1.2552000  3
   1191   1190   1202   1214     1  0.0000000  0.6508444  3
   1191   1190   1202   1203     1  0.0000000  0.6508444  3
   1191   1190   1202   1204     1  0.0000000  0.6508444  3
   1192   1190   1189   1193     1  0.0000000  1.2552000  3
   1192   1190   1189   1196     1  0.0000000  1.2552000  3
   1192   1190   1202   1214     1  0.0000000  0.6508444  3
   1192   1190   1202   1203     1  0.0000000  0.6508444  3
   1192   1190   1202   1204     1  0.0000000  0.6508444  3
   1193   1189   1196   1197     1  0.0000000  1.2552000  3
   1193   1189   1196   1198     1  0.0000000  1.2552000  3
   1193   1205   1211   1212     1  0.0000000  0.6508444  3
   1193   1205   1211   1213     1  0.0000000  0.6508444  3
   1194   1193   1189   1196     1  0.0000000  1.2552000  3
   1194   1193   1205   1211     1  0.0000000  0.6508444  3
   1194   1193   1205   1206     1  0.0000000  0.6508444  3
   1194   1193   1205   1207     1  0.0000000  0.6508444  3
   1195   1193   1189   1196     1  0.0000000  1.2552000  3
   1195   1193   1205   1211     1  0.0000000  0.6508444  3
   1195   1193   1205   1206     1  0.0000000  0.6508444  3
   1195   1193   1205   1207     1  0.0000000  0.6508444  3
   1196   1199   1208   1209     1  0.0000000  0.6508444  3
   1196   1199   1208   1210     1  0.0000000  0.6508444  3
   1197   1196   1199   1208     1  0.0000000  0.6508444  3
   1197   1196   1199   1200     1  0.0000000  0.6508444  3
   1197   1196   1199   1201     1  0.0000000  0.6508444  3
   1198   1196   1199   1208     1  0.0000000  0.6508444  3
   1198   1196   1199   1200     1  0.0000000  0.6508444  3
   1198   1196   1199   1201     1  0.0000000  0.6508444  3
   1200   1199   1208   1217     1  0.0000000  1.0460000  1
   1200   1199   1208   1217     1  0.0000000  0.0000000  3
   1200   1199   1208   1209     1  0.0000000  0.6508444  3
   1200   1199   1208   1210     1  0.0000000  0.6508444  3
   1201   1199   1208   1217     1  0.0000000  1.0460000  1
   1201   1199   1208   1217     1  0.0000000  0.0000000  3
   1201   1199   1208   1209     1  0.0000000  0.6508444  3
   1201   1199   1208   1210     1  0.0000000  0.6508444  3
   1203   1202   1214   2493     1  0.0000000  1.0460000  1
   1203   1202   1214   2493     1  0.0000000  0.0000000  3
   1203   1202   1214   1215     1  0.0000000  0.6508444  3
   1203   1202   1214   1216     1  0.0000000  0.6508444  3
   1204   1202   1214   2493     1  0.0000000  1.0460000  1
   1204   1202   1214   2493     1  0.0000000  0.0000000  3
   1204   1202   1214   1215     1  0.0000000  0.6508444  3
   1204   1202   1214   1216     1  0.0000000  0.6508444  3
   1206   1205   1211   2464     1  0.0000000  1.0460000  1
   1206   1205   1211   2464     1  0.0000000  0.0000000  3
   1206   1205   1211   1212     1  0.0000000  0.6508444  3
   1206   1205   1211   1213     1  0.0000000  0.6508444  3
   1207   1205   1211   2464     1  0.0000000  1.0460000  1
   1207   1205   1211   2464     1  0.0000000  0.0000000  3
   1207   1205   1211   1212     1  0.0000000  0.6508444  3
   1207   1205   1211   1213     1  0.0000000  0.6508444  3
   1211   2464   2455   2456     1  0.0000000  1.6038667  3
   1211   2464   2455   2457     1  0.0000000  1.6038667  3
   1212   1211   2464   2455     1  0.0000000  1.6038667  3
   1213   1211   2464   2455     1  0.0000000  1.6038667  3
   1214   2493   2484   2485     1  0.0000000  1.6038667  3
   1214   2493   2484   2486     1  0.0000000  1.6038667  3
   1215   1214   2493   2484     1  0.0000000  1.6038667  3
   1216   1214   2493   2484     1  0.0000000  1.6038667  3
   1218   1219   1231   1232     1  0.0000000  0.6508444  3
   1218   1219   1231   1233     1  0.0000000  0.6508444  3
   1218   1222   1234   1235     1  0.0000000  0.6508444  3
   1218   1222   1234   1236     1  0.0000000  0.6508444  3
   1218   1225   1228   1229     1  0.0000000  0.6508444  3
   1218   1225   1228   1230     1  0.0000000  0.6508444  3
   1219   1218   1222   1223     1  0.0000000  1.2552000  3
   1219   1218   1222   1224     1  0.0000000  1.2552000  3
   1219   1218   1225   1226     1  0.0000000  1.2552000  3
   1219   1218   1225   1227     1  0.0000000  1.2552000  3
   1219   1231   1243   1244     1  0.0000000  0.6508444  3
   1219   1231   1243   1245     1  0.0000000  0.6508444  3
   1220   1219   1218   1222     1  0.0000000  1.2552000  3
   1220   1219   1218   1225     1  0.0000000  1.2552000  3
   1220   1219   1231   1243     1  0.0000000  0.6508444  3
   1220   1219   1231   1232     1  0.0000000  0.6508444  3
   1220   1219   1231   1233     1  0.0000000  0.6508444  3
   1221   1219   1218   1222     1  0.0000000  1.2552000  3
   1221   1219   1218   1225     1  0.0000000  1.2552000  3
   1221   1219   1231   1243     1  0.0000000  0.6508444  3
   1221   1219   1231   1232     1  0.0000000  0.6508444  3
   1221   1219   1231   1233     1  0.0000000  0.6508444  3
   1222   1218   1225   1226     1  0.0000000  1.2552000  3
   1222   1218   1225   1227     1  0.0000000  1.2552000  3
   1222   1234   1240   1241     1  0.0000000  0.6508444  3
   1222   1234   1240   1242     1  0.0000000  0.6508444  3
   1223   1222   1218   1225     1  0.0000000  1.2552000  3
   1223   1222   1234   1240     1  0.0000000  0.6508444  3
   1223   1222   1234   1235     1  0.0000000  0.6508444  3
   1223   1222   1234   1236     1  0.0000000  0.6508444  3
   1224   1222   1218   1225     1  0.0000000  1.2552000  3
   1224   1222   1234   1240     1  0.0000000  0.6508444  3
   1224   1222   1234   1235     1  0.0000000  0.6508444  3
   1224   1222   1234   1236     1  0.0000000  0.6508444  3
   1225   1228   1237   1238     1  0.0000000  0.6508444  3
   1225   1228   1237   1239     1  0.0000000  0.6508444  3
   1226   1225   1228   1237     1  0.0000000  0.6508444  3
   1226   1225   1228   1229     1  0.0000000  0.6508444  3
   1226   1225   1228   1230     1  0.0000000  0.6508444  3
   1227   1225   1228   1237     1  0.0000000  0.6508444  3
   1227   1225   1228   1229     1  0.0000000  0.6508444  3
   1227   1225   1228   1230     1  0.0000000  0.6508444  3
   1229   1228   1237   1246     1  0.0000000  1.0460000  1
   1229   1228   1237   1246     1  0.0000000  0.0000000  3
   1229   1228   1237   1238     1  0.0000000  0.6508444  3
   1229   1228   1237   1239     1  0.0000000  0.6508444  3
   1230   1228   1237   1246     1  0.0000000  1.0460000  1
   1230   1228   1237   1246     1  0.0000000  0.0000000  3
   1230   1228   1237   1238     1  0.0000000  0.6508444  3
   1230   1228   1237   1239     1  0.0000000  0.6508444  3
   1232   1231   1243   2551     1  0.0000000  1.0460000  1
   1232   1231   1243   2551     1  0.0000000  0.0000000  3
   1232   1231   1243   1244     1  0.0000000  0.6508444  3
   1232   1231   1243   1245     1  0.0000000  0.6508444  3
   1233   1231   1243   2551     1  0.0000000  1.0460000  1
   1233   1231   1243   2551     1  0.0000000  0.0000000  3
   1233   1231   1243   1244     1  0.0000000  0.6508444  3
   1233   1231   1243   1245     1  0.0000000  0.6508444  3
   1235   1234   1240   2522     1  0.0000000  1.0460000  1
   1235   1234   1240   2522     1  0.0000000  0.0000000  3
   1235   1234   1240   1241     1  0.0000000  0.6508444  3
   1235   1234   1240   1242     1  0.0000000  0.6508444  3
   1236   1234   1240   2522     1  0.0000000  1.0460000  1
   1236   1234   1240   2522     1  0.0000000  0.0000000  3
   1236   1234   1240   1241     1  0.0000000  0.6508444  3
   1236   1234   1240   1242     1  0.0000000  0.6508444  3
   1240   2522   2513   2514     1  0.0000000  1.6038667  3
   1240   2522   2513   2515     1  0.0000000  1.6038667  3
   1241   1240   2522   2513     1  0.0000000  1.6038667  3
   1242   1240   2522   2513     1  0.0000000  1.6038667  3
   1243   2551   2542   2543     1  0.0000000  1.6038667  3
   1243   2551   2542   2544     1  0.0000000  1.6038667  3
   1244   1243   2551   2542     1  0.0000000  1.6038667  3
   1245   1243   2551   2542     1  0.0000000  1.6038667  3
   1247   1248   1260   1261     1  0.0000000  0.6508444  3
   1247   1248   1260   1262     1  0.0000000  0.6508444  3
   1247   1251   1263   1264     1  0.0000000  0.6508444  3
   1247   1251   1263   1265     1  0.0000000  0.6508444  3
   1247   1254   1257   1258     1  0.0000000  0.6508444  3
   1247   1254   1257   1259     1  0.0000000  0.6508444  3
   1248   1247   1251   1252     1  0.0000000  1.2552000  3
   1248   1247   1251   1253     1  0.0000000  1.2552000  3
   1248   1247   1254   1255     1  0.0000000  1.2552000  3
   1248   1247   1254   1256     1  0.0000000  1.2552000  3
   1248   1260   1272   1273     1  0.0000000  0.6508444  3
   1248   1260   1272   1274     1  0.0000000  0.6508444  3
   1249   1248   1247   1251     1  0.0000000  1.2552000  3
   1249   1248   1247   1254     1  0.0000000  1.2552000  3
   1249   1248   1260   1272     1  0.0000000  0.6508444  3
   1249   1248   1260   1261     1  0.0000000  0.6508444  3
   1249   1248   1260   1262     1  0.0000000  0.6508444  3
   1250   1248   1247   1251     1  0.0000000  1.2552000  3
   1250   1248   1247   1254     1  0.0000000  1.2552000  3
   1250   1248   1260   1272     1  0.0000000  0.6508444  3
   1250   1248   1260   1261     1  0.0000000  0.6508444  3
   1250   1248   1260   1262     1  0.0000000  0.6508444  3
   1251   1247   1254   1255     1  0.0000000  1.2552000  3
   1251   1247   1254   1256     1  0.0000000  1.2552000  3
   1251   1263   1269   1270     1  0.0000000  0.6508444  3
   1251   1263   1269   1271     1  0.0000000  0.6508444  3
   1252   1251   1247   1254     1  0.0000000  1.2552000  3
   1252   1251   1263   1269     1  0.0000000  0.6508444  3
   1252   1251   1263   1264     1  0.0000000  0.6508444  3
   1252   1251   1263   1265     1  0.0000000  0.6508444  3
   1253   1251   1247   1254     1  0.0000000  1.2552000  3
   1253   1251   1263   1269     1  0.0000000  0.6508444  3
   1253   1251   1263   1264     1  0.0000000  0.6508444  3
   1253   1251   1263   1265     1  0.0000000  0.6508444  3
   1254   1257   1266   1267     1  0.0000000  0.6508444  3
   1254   1257   1266   1268     1  0.0000000  0.6508444  3
   1255   1254   1257   1266     1  0.0000000  0.6508444  3
   1255   1254   1257   1258     1  0.0000000  0.6508444  3
   1255   1254   1257   1259     1  0.0000000  0.6508444  3
   1256   1254   1257   1266     1  0.0000000  0.6508444  3
   1256   1254   1257   1258     1  0.0000000  0.6508444  3
   1256   1254   1257   1259     1  0.0000000  0.6508444  3
   1258   1257   1266   1275     1  0.0000000  1.0460000  1
   1258   1257   1266   1275     1  0.0000000  0.0000000  3
   1258   1257   1266   1267     1  0.0000000  0.6508444  3
   1258   1257   1266   1268     1  0.0000000  0.6508444  3
   1259   1257   1266   1275     1  0.0000000  1.0460000  1
   1259   1257   1266   1275     1  0.0000000  0.0000000  3
   1259   1257   1266   1267     1  0.0000000  0.6508444  3
   1259   1257   1266   1268     1  0.0000000  0.6508444  3
   1261   1260   1272   2609     1  0.0000000  1.0460000  1
   1261   1260   1272   2609     1  0.0000000  0.0000000  3
   1261   1260   1272   1273     1  0.0000000  0.6508444  3
   1261   1260   1272   1274     1  0.0000000  0.6508444  3
   1262   1260   1272   2609     1  0.0000000  1.0460000  1
   1262   1260   1272   2609     1  0.0000000  0.0000000  3
   1262   1260   1272   1273     1  0.0000000  0.6508444  3
   1262   1260   1272   1274     1  0.0000000  0.6508444  3
   1264   1263   1269   2580     1  0.0000000  1.0460000  1
   1264   1263   1269   2580     1  0.0000000  0.0000000  3
   1264   1263   1269   1270     1  0.0000000  0.6508444  3
   1264   1263   1269   1271     1  0.0000000  0.6508444  3
   1265   1263   1269   2580     1  0.0000000  1.0460000  1
   1265   1263   1269   2580     1  0.0000000  0.0000000  3
   1265   1263   1269   1270     1  0.0000000  0.6508444  3
   1265   1263   1269   1271     1  0.0000000  0.6508444  3
   1269   2580   2571   2572     1  0.0000000  1.6038667  3
   1269   2580   2571   2573     1  0.0000000  1.6038667  3
   1270   1269   2580   2571     1  0.0000000  1.6038667  3
   1271   1269   2580   2571     1  0.0000000  1.6038667  3
   1272   2609   2600   2601     1  0.0000000  1.6038667  3
   1272   2609   2600   2602     1  0.0000000  1.6038667  3
   1273   1272   2609   2600     1  0.0000000  1.6038667  3
   1274   1272   2609   2600     1  0.0000000  1.6038667  3
   1276   1277   1289   1290     1  0.0000000  0.6508444  3
   1276   1277   1289   1291     1  0.0000000  0.6508444  3
   1276   1280   1292   1293     1  0.0000000  0.6508444  3
   1276   1280   1292   1294     1  0.0000000  0.6508444  3
   1276   1283   1286   1287     1  0.0000000  0.6508444  3
   1276   1283   1286   1288     1  0.0000000  0.6508444  3
   1277   1276   1280   1281     1  0.0000000  1.2552000  3
   1277   1276   1280   1282     1  0.0000000  1.2552000  3
   1277   1276   1283   1284     1  0.0000000  1.2552000  3
   1277   1276   1283   1285     1  0.0000000  1.2552000  3
   1277   1289   1301   1302     1  0.0000000  0.6508444  3
   1277   1289   1301   1303     1  0.0000000  0.6508444  3
   1278   1277   1276   1280     1  0.0000000  1.2552000  3
   1278   1277   1276   1283     1  0.0000000  1.2552000  3
   1278   1277   1289   1301     1  0.0000000  0.6508444  3
   1278   1277   1289   1290     1  0.0000000  0.6508444  3
   1278   1277   1289   1291     1  0.0000000  0.6508444  3
   1279   1277   1276   1280     1  0.0000000  1.2552000  3
   1279   1277   1276   1283     1  0.0000000  1.2552000  3
   1279   1277   1289   1301     1  0.0000000  0.6508444  3
   1279   1277   1289   1290     1  0.0000000  0.6508444  3
   1279   1277   1289   1291     1  0.0000000  0.6508444  3
   1280   1276   1283   1284     1  0.0000000  1.2552000  3
   1280   1276   1283   1285     1  0.0000000  1.2552000  3
   1280   1292   1298   1299     1  0.0000000  0.6508444  3
   1280   1292   1298   1300     1  0.0000000  0.6508444  3
   1281   1280   1276   1283     1  0.0000000  1.2552000  3
   1281   1280   1292   1298     1  0.0000000  0.6508444  3
   1281   1280   1292   1293     1  0.0000000  0.6508444  3
   1281   1280   1292   1294     1  0.0000000  0.6508444  3
   1282   1280   1276   1283     1  0.0000000  1.2552000  3
   1282   1280   1292   1298     1  0.0000000  0.6508444  3
   1282   1280   1292   1293     1  0.0000000  0.6508444  3
   1282   1280   1292   1294     1  0.0000000  0.6508444  3
   1283   1286   1295   1296     1  0.0000000  0.6508444  3
   1283   1286   1295   1297     1  0.0000000  0.6508444  3
   1284   1283   1286   1295     1  0.0000000  0.6508444  3
   1284   1283   1286   1287     1  0.0000000  0.6508444  3
   1284   1283   1286   1288     1  0.0000000  0.6508444  3
   1285   1283   1286   1295     1  0.0000000  0.6508444  3
   1285   1283   1286   1287     1  0.0000000  0.6508444  3
   1285   1283   1286   1288     1  0.0000000  0.6508444  3
   1287   1286   1295   1304     1  0.0000000  1.0460000  1
   1287   1286   1295   1304     1  0.0000000  0.0000000  3
   1287   1286   1295   1296     1  0.0000000  0.6508444  3
   1287   1286   1295   1297     1  0.0000000  0.6508444  3
   1288   1286   1295   1304     1  0.0000000  1.0460000  1
   1288   1286   1295   1304     1  0.0000000  0.0000000  3
   1288   1286   1295   1296     1  0.0000000  0.6508444  3
   1288   1286   1295   1297     1  0.0000000  0.6508444  3
   1290   1289   1301   2667     1  0.0000000  1.0460000  1
   1290   1289   1301   2667     1  0.0000000  0.0000000  3
   1290   1289   1301   1302     1  0.0000000  0.6508444  3
   1290   1289   1301   1303     1  0.0000000  0.6508444  3
   1291   1289   1301   2667     1  0.0000000  1.0460000  1
   1291   1289   1301   2667     1  0.0000000  0.0000000  3
   1291   1289   1301   1302     1  0.0000000  0.6508444  3
   1291   1289   1301   1303     1  0.0000000  0.6508444  3
   1293   1292   1298   2638     1  0.0000000  1.0460000  1
   1293   1292   1298   2638     1  0.0000000  0.0000000  3
   1293   1292   1298   1299     1  0.0000000  0.6508444  3
   1293   1292   1298   1300     1  0.0000000  0.6508444  3
   1294   1292   1298   2638     1  0.0000000  1.0460000  1
   1294   1292   1298   2638     1  0.0000000  0.0000000  3
   1294   1292   1298   1299     1  0.0000000  0.6508444  3
   1294   1292   1298   1300     1  0.0000000  0.6508444  3
   1298   2638   2629   2630     1  0.0000000  1.6038667  3
   1298   2638   2629   2631     1  0.0000000  1.6038667  3
   1299   1298   2638   2629     1  0.0000000  1.6038667  3
   1300   1298   2638   2629     1  0.0000000  1.6038667  3
   1301   2667   2658   2659     1  0.0000000  1.6038667  3
   1301   2667   2658   2660     1  0.0000000  1.6038667  3
   1302   1301   2667   2658     1  0.0000000  1.6038667  3
   1303   1301   2667   2658     1  0.0000000  1.6038667  3
   1305   1306   1318   1319     1  0.0000000  0.6508444  3
   1305   1306   1318   1320     1  0.0000000  0.6508444  3
   1305   1309   1321   1322     1  0.0000000  0.6508444  3
   1305   1309   1321   1323     1  0.0000000  0.6508444  3
   1305   1312   1315   1316     1  0.0000000  0.6508444  3
   1305   1312   1315   1317     1  0.0000000  0.6508444  3
   1306   1305   1309   1310     1  0.0000000  1.2552000  3
   1306   1305   1309   1311     1  0.0000000  1.2552000  3
   1306   1305   1312   1313     1  0.0000000  1.2552000  3
   1306   1305   1312   1314     1  0.0000000  1.2552000  3
   1306   1318   1330   1331     1  0.0000000  0.6508444  3
   1306   1318   1330   1332     1  0.0000000  0.6508444  3
   1307   1306   1305   1309     1  0.0000000  1.2552000  3
   1307   1306   1305   1312     1  0.0000000  1.2552000  3
   1307   1306   1318   1330     1  0.0000000  0.6508444  3
   1307   1306   1318   1319     1  0.0000000  0.6508444  3
   1307   1306   1318   1320     1  0.0000000  0.6508444  3
   1308   1306   1305   1309     1  0.0000000  1.2552000  3
   1308   1306   1305   1312     1  0.0000000  1.2552000  3
   1308   1306   1318   1330     1  0.0000000  0.6508444  3
   1308   1306   1318   1319     1  0.0000000  0.6508444  3
   1308   1306   1318   1320     1  0.0000000  0.6508444  3
   1309   1305   1312   1313     1  0.0000000  1.2552000  3
   1309   1305   1312   1314     1  0.0000000  1.2552000  3
   1309   1321   1327   1328     1  0.0000000  0.6508444  3
   1309   1321   1327   1329     1  0.0000000  0.6508444  3
   1310   1309   1305   1312     1  0.0000000  1.2552000  3
   1310   1309   1321   1327     1  0.0000000  0.6508444  3
   1310   1309   1321   1322     1  0.0000000  0.6508444  3
   1310   1309   1321   1323     1  0.0000000  0.6508444  3
   1311   1309   1305   1312     1  0.0000000  1.2552000  3
   1311   1309   1321   1327     1  0.0000000  0.6508444  3
   1311   1309   1321   1322     1  0.0000000  0.6508444  3
   1311   1309   1321   1323     1  0.0000000  0.6508444  3
   1312   1315   1324   1325     1  0.0000000  0.6508444  3
   1312   1315   1324   1326     1  0.0000000  0.6508444  3
   1313   1312   1315   1324     1  0.0000000  0.6508444  3
   1313   1312   1315   1316     1  0.0000000  0.6508444  3
   1313   1312   1315   1317     1  0.0000000  0.6508444  3
   1314   1312   1315   1324     1  0.0000000  0.6508444  3
   1314   1312   1315   1316     1  0.0000000  0.6508444  3
   1314   1312   1315   1317     1  0.0000000  0.6508444  3
   1316   1315   1324   1333     1  0.0000000  1.0460000  1
   1316   1315   1324   1333     1  0.0000000  0.0000000  3
   1316   1315   1324   1325     1  0.0000000  0.6508444  3
   1316   1315   1324   1326     1  0.0000000  0.6508444  3
   1317   1315   1324   1333     1  0.0000000  1.0460000  1
   1317   1315   1324   1333     1  0.0000000  0.0000000  3
   1317   1315   1324   1325     1  0.0000000  0.6508444  3
   1317   1315   1324   1326     1  0.0000000  0.6508444  3
   1319   1318   1330   2725     1  0.0000000  1.0460000  1
   1319   1318   1330   2725     1  0.0000000  0.0000000  3
   1319   1318   1330   1331     1  0.0000000  0.6508444  3
   1319   1318   1330   1332     1  0.0000000  0.6508444  3
   1320   1318   1330   2725     1  0.0000000  1.0460000  1
   1320   1318   1330   2725     1  0.0000000  0.0000000  3
   1320   1318   1330   1331     1  0.0000000  0.6508444  3
   1320   1318   1330   1332     1  0.0000000  0.6508444  3
   1322   1321   1327   2696     1  0.0000000  1.0460000  1
   1322   1321   1327   2696     1  0.0000000  0.0000000  3
   1322   1321   1327   1328     1  0.0000000  0.6508444  3
   1322   1321   1327   1329     1  0.0000000  0.6508444  3
   1323   1321   1327   2696     1  0.0000000  1.0460000  1
   1323   1321   1327   2696     1  0.0000000  0.0000000  3
   1323   1321   1327   1328     1  0.0000000  0.6508444  3
   1323   1321   1327   1329     1  0.0000000  0.6508444  3
   1327   2696   2687   2688     1  0.0000000  1.6038667  3
   1327   2696   2687   2689     1  0.0000000  1.6038667  3
   1328   1327   2696   2687     1  0.0000000  1.6038667  3
   1329   1327   2696   2687     1  0.0000000  1.6038667  3
   1330   2725   2716   2717     1  0.0000000  1.6038667  3
   1330   2725   2716   2718     1  0.0000000  1.6038667  3
   1331   1330   2725   2716     1  0.0000000  1.6038667  3
   1332   1330   2725   2716     1  0.0000000  1.6038667  3
   1334   1335   1347   1348     1  0.0000000  0.6508444  3
   1334   1335   1347   1349     1  0.0000000  0.6508444  3
   1334   1338   1350   1351     1  0.0000000  0.6508444  3
   1334   1338   1350   1352     1  0.0000000  0.6508444  3
   1334   1341   1344   1345     1  0.0000000  0.6508444  3
   1334   1341   1344   1346     1  0.0000000  0.6508444  3
   1335   1334   1338   1339     1  0.0000000  1.2552000  3
   1335   1334   1338   1340     1  0.0000000  1.2552000  3
   1335   1334   1341   1342     1  0.0000000  1.2552000  3
   1335   1334   1341   1343     1  0.0000000  1.2552000  3
   1335   1347   1359   1360     1  0.0000000  0.6508444  3
   1335   1347   1359   1361     1  0.0000000  0.6508444  3
   1336   1335   1334   1338     1  0.0000000  1.2552000  3
   1336   1335   1334   1341     1  0.0000000  1.2552000  3
   1336   1335   1347   1359     1  0.0000000  0.6508444  3
   1336   1335   1347   1348     1  0.0000000  0.6508444  3
   1336   1335   1347   1349     1  0.0000000  0.6508444  3
   1337   1335   1334   1338     1  0.0000000  1.2552000  3
   1337   1335   1334   1341     1  0.0000000  1.2552000  3
   1337   1335   1347   1359     1  0.0000000  0.6508444  3
   1337   1335   1347   1348     1  0.0000000  0.6508444  3
   1337   1335   1347   1349     1  0.0000000  0.6508444  3
   1338   1334   1341   1342     1  0.0000000  1.2552000  3
   1338   1334   1341   1343     1  0.0000000  1.2552000  3
   1338   1350   1356   1357     1  0.0000000  0.6508444  3
   1338   1350   1356   1358     1  0.0000000  0.6508444  3
   1339   1338   1334   1341     1  0.0000000  1.2552000  3
   1339   1338   1350   1356     1  0.0000000  0.6508444  3
   1339   1338   1350   1351     1  0.0000000  0.6508444  3
   1339   1338   1350   1352     1  0.0000000  0.6508444  3
   1340   1338   1334   1341     1  0.0000000  1.2552000  3
   1340   1338   1350   1356     1  0.0000000  0.6508444  3
   1340   1338   1350   1351     1  0.0000000  0.6508444  3
   1340   1338   1350   1352     1  0.0000000  0.6508444  3
   1341   1344   1353   1354     1  0.0000000  0.6508444  3
   1341   1344   1353   1355     1  0.0000000  0.6508444  3
   1342   1341   1344   1353     1  0.0000000  0.6508444  3
   1342   1341   1344   1345     1  0.0000000  0.6508444  3
   1342   1341   1344   1346     1  0.0000000  0.6508444  3
   1343   1341   1344   1353     1  0.0000000  0.6508444  3
   1343   1341   1344   1345     1  0.0000000  0.6508444  3
   1343   1341   1344   1346     1  0.0000000  0.6508444  3
   1345   1344   1353   1362     1  0.0000000  1.0460000  1
   1345   1344   1353   1362     1  0.0000000  0.0000000  3
   1345   1344   1353   1354     1  0.0000000  0.6508444  3
   1345   1344   1353   1355     1  0.0000000  0.6508444  3
   1346   1344   1353   1362     1  0.0000000  1.0460000  1
   1346   1344   1353   1362     1  0.0000000  0.0000000  3
   1346   1344   1353   1354     1  0.0000000  0.6508444  3
   1346   1344   1353   1355     1  0.0000000  0.6508444  3
   1348   1347   1359   2783     1  0.0000000  1.0460000  1
   1348   1347   1359   2783     1  0.0000000  0.0000000  3
   1348   1347   1359   1360     1  0.0000000  0.6508444  3
   1348   1347   1359   1361     1  0.0000000  0.6508444  3
   1349   1347   1359   2783     1  0.0000000  1.0460000  1
   1349   1347   1359   2783     1  0.0000000  0.0000000  3
   1349   1347   1359   1360     1  0.0000000  0.6508444  3
   1349   1347   1359   1361     1  0.0000000  0.6508444  3
   1351   1350   1356   2754     1  0.0000000  1.0460000  1
   1351   1350   1356   2754     1  0.0000000  0.0000000  3
   1351   1350   1356   1357     1  0.0000000  0.6508444  3
   1351   1350   1356   1358     1  0.0000000  0.6508444  3
   1352   1350   1356   2754     1  0.0000000  1.0460000  1
   1352   1350   1356   2754     1  0.0000000  0.0000000  3
   1352   1350   1356   1357     1  0.0000000  0.6508444  3
   1352   1350   1356   1358     1  0.0000000  0.6508444  3
   1356   2754   2745   2746     1  0.0000000  1.6038667  3
   1356   2754   2745   2747     1  0.0000000  1.6038667  3
   1357   1356   2754   2745     1  0.0000000  1.6038667  3
   1358   1356   2754   2745     1  0.0000000  1.6038667  3
   1359   2783   2774   2775     1  0.0000000  1.6038667  3
   1359   2783   2774   2776     1  0.0000000  1.6038667  3
   1360   1359   2783   2774     1  0.0000000  1.6038667  3
   1361   1359   2783   2774     1  0.0000000  1.6038667  3
   1363   1364   1376   1377     1  0.0000000  0.6508444  3
   1363   1364   1376   1378     1  0.0000000  0.6508444  3
   1363   1367   1379   1380     1  0.0000000  0.6508444  3
   1363   1367   1379   1381     1  0.0000000  0.6508444  3
   1363   1370   1373   1374     1  0.0000000  0.6508444  3
   1363   1370   1373   1375     1  0.0000000  0.6508444  3
   1364   1363   1367   1368     1  0.0000000  1.2552000  3
   1364   1363   1367   1369     1  0.0000000  1.2552000  3
   1364   1363   1370   1371     1  0.0000000  1.2552000  3
   1364   1363   1370   1372     1  0.0000000  1.2552000  3
   1364   1376   1388   1389     1  0.0000000  0.6508444  3
   1364   1376   1388   1390     1  0.0000000  0.6508444  3
   1365   1364   1363   1367     1  0.0000000  1.2552000  3
   1365   1364   1363   1370     1  0.0000000  1.2552000  3
   1365   1364   1376   1388     1  0.0000000  0.6508444  3
   1365   1364   1376   1377     1  0.0000000  0.6508444  3
   1365   1364   1376   1378     1  0.0000000  0.6508444  3
   1366   1364   1363   1367     1  0.0000000  1.2552000  3
   1366   1364   1363   1370     1  0.0000000  1.2552000  3
   1366   1364   1376   1388     1  0.0000000  0.6508444  3
   1366   1364   1376   1377     1  0.0000000  0.6508444  3
   1366   1364   1376   1378     1  0.0000000  0.6508444  3
   1367   1363   1370   1371     1  0.0000000  1.2552000  3
   1367   1363   1370   1372     1  0.0000000  1.2552000  3
   1367   1379   1385   1386     1  0.0000000  0.6508444  3
   1367   1379   1385   1387     1  0.0000000  0.6508444  3
   1368   1367   1363   1370     1  0.0000000  1.2552000  3
   1368   1367   1379   1385     1  0.0000000  0.6508444  3
   1368   1367   1379   1380     1  0.0000000  0.6508444  3
   1368   1367   1379   1381     1  0.0000000  0.6508444  3
   1369   1367   1363   1370     1  0.0000000  1.2552000  3
   1369   1367   1379   1385     1  0.0000000  0.6508444  3
   1369   1367   1379   1380     1  0.0000000  0.6508444  3
   1369   1367   1379   1381     1  0.0000000  0.6508444  3
   1370   1373   1382   1383     1  0.0000000  0.6508444  3
   1370   1373   1382   1384     1  0.0000000  0.6508444  3
   1371   1370   1373   1382     1  0.0000000  0.6508444  3
   1371   1370   1373   1374     1  0.0000000  0.6508444  3
   1371   1370   1373   1375     1  0.0000000  0.6508444  3
   1372   1370   1373   1382     1  0.0000000  0.6508444  3
   1372   1370   1373   1374     1  0.0000000  0.6508444  3
   1372   1370   1373   1375     1  0.0000000  0.6508444  3
   1374   1373   1382   1391     1  0.0000000  1.0460000  1
   1374   1373   1382   1391     1  0.0000000  0.0000000  3
   1374   1373   1382   1383     1  0.0000000  0.6508444  3
   1374   1373   1382   1384     1  0.0000000  0.6508444  3
   1375   1373   1382   1391     1  0.0000000  1.0460000  1
   1375   1373   1382   1391     1  0.0000000  0.0000000  3
   1375   1373   1382   1383     1  0.0000000  0.6508444  3
   1375   1373   1382   1384     1  0.0000000  0.6508444  3
   1377   1376   1388   2841     1  0.0000000  1.0460000  1
   1377   1376   1388   2841     1  0.0000000  0.0000000  3
   1377   1376   1388   1389     1  0.0000000  0.6508444  3
   1377   1376   1388   1390     1  0.0000000  0.6508444  3
   1378   1376   1388   2841     1  0.0000000  1.0460000  1
   1378   1376   1388   2841     1  0.0000000  0.0000000  3
   1378   1376   1388   1389     1  0.0000000  0.6508444  3
   1378   1376   1388   1390     1  0.0000000  0.6508444  3
   1380   1379   1385   2812     1  0.0000000  1.0460000  1
   1380   1379   1385   2812     1  0.0000000  0.0000000  3
   1380   1379   1385   1386     1  0.0000000  0.6508444  3
   1380   1379   1385   1387     1  0.0000000  0.6508444  3
   1381   1379   1385   2812     1  0.0000000  1.0460000  1
   1381   1379   1385   2812     1  0.0000000  0.0000000  3
   1381   1379   1385   1386     1  0.0000000  0.6508444  3
   1381   1379   1385   1387     1  0.0000000  0.6508444  3
   1385   2812   2803   2804     1  0.0000000  1.6038667  3
   1385   2812   2803   2805     1  0.0000000  1.6038667  3
   1386   1385   2812   2803     1  0.0000000  1.6038667  3
   1387   1385   2812   2803     1  0.0000000  1.6038667  3
   1388   2841   2832   2833     1  0.0000000  1.6038667  3
   1388   2841   2832   2834     1  0.0000000  1.6038667  3
   1389   1388   2841   2832     1  0.0000000  1.6038667  3
   1390   1388   2841   2832     1  0.0000000  1.6038667  3
   1392   1393   1405   1406     1  0.0000000  0.6508444  3
   1392   1393   1405   1407     1  0.0000000  0.6508444  3
   1392   1396   1408   1409     1  0.0000000  0.6508444  3
   1392   1396   1408   1410     1  0.0000000  0.6508444  3
   1392   1399   1402   1403     1  0.0000000  0.6508444  3
   1392   1399   1402   1404     1  0.0000000  0.6508444  3
   1393   1392   1396   1397     1  0.0000000  1.2552000  3
   1393   1392   1396   1398     1  0.0000000  1.2552000  3
   1393   1392   1399   1400     1  0.0000000  1.2552000  3
   1393   1392   1399   1401     1  0.0000000  1.2552000  3
   1393   1405   1417   1418     1  0.0000000  0.6508444  3
   1393   1405   1417   1419     1  0.0000000  0.6508444  3
   1394   1393   1392   1396     1  0.0000000  1.2552000  3
   1394   1393   1392   1399     1  0.0000000  1.2552000  3
   1394   1393   1405   1417     1  0.0000000  0.6508444  3
   1394   1393   1405   1406     1  0.0000000  0.6508444  3
   1394   1393   1405   1407     1  0.0000000  0.6508444  3
   1395   1393   1392   1396     1  0.0000000  1.2552000  3
   1395   1393   1392   1399     1  0.0000000  1.2552000  3
   1395   1393   1405   1417     1  0.0000000  0.6508444  3
   1395   1393   1405   1406     1  0.0000000  0.6508444  3
   1395   1393   1405   1407     1  0.0000000  0.6508444  3
   1396   1392   1399   1400     1  0.0000000  1.2552000  3
   1396   1392   1399   1401     1  0.0000000  1.2552000  3
   1396   1408   1414   1415     1  0.0000000  0.6508444  3
   1396   1408   1414   1416     1  0.0000000  0.6508444  3
   1397   1396   1392   1399     1  0.0000000  1.2552000  3
   1397   1396   1408   1414     1  0.0000000  0.6508444  3
   1397   1396   1408   1409     1  0.0000000  0.6508444  3
   1397   1396   1408   1410     1  0.0000000  0.6508444  3
   1398   1396   1392   1399     1  0.0000000  1.2552000  3
   1398   1396   1408   1414     1  0.0000000  0.6508444  3
   1398   1396   1408   1409     1  0.0000000  0.6508444  3
   1398   1396   1408   1410     1  0.0000000  0.6508444  3
   1399   1402   1411   1412     1  0.0000000  0.6508444  3
   1399   1402   1411   1413     1  0.0000000  0.6508444  3
   1400   1399   1402   1411     1  0.0000000  0.6508444  3
   1400   1399   1402   1403     1  0.0000000  0.6508444  3
   1400   1399   1402   1404     1  0.0000000  0.6508444  3
   1401   1399   1402   1411     1  0.0000000  0.6508444  3
   1401   1399   1402   1403     1  0.0000000  0.6508444  3
   1401   1399   1402   1404     1  0.0000000  0.6508444  3
   1403   1402   1411   1420     1  0.0000000  1.0460000  1
   1403   1402   1411   1420     1  0.0000000  0.0000000  3
   1403   1402   1411   1412     1  0.0000000  0.6508444  3
   1403   1402   1411   1413     1  0.0000000  0.6508444  3
   1404   1402   1411   1420     1  0.0000000  1.0460000  1
   1404   1402   1411   1420     1  0.0000000  0.0000000  3
   1404   1402   1411   1412     1  0.0000000  0.6508444  3
   1404   1402   1411   1413     1  0.0000000  0.6508444  3
   1406   1405   1417   2899     1  0.0000000  1.0460000  1
   1406   1405   1417   2899     1  0.0000000  0.0000000  3
   1406   1405   1417   1418     1  0.0000000  0.6508444  3
   1406   1405   1417   1419     1  0.0000000  0.6508444  3
   1407   1405   1417   2899     1  0.0000000  1.0460000  1
   1407   1405   1417   2899     1  0.0000000  0.0000000  3
   1407   1405   1417   1418     1  0.0000000  0.6508444  3
   1407   1405   1417   1419     1  0.0000000  0.6508444  3
   1409   1408   1414   2870     1  0.0000000  1.0460000  1
   1409   1408   1414   2870     1  0.0000000  0.0000000  3
   1409   1408   1414   1415     1  0.0000000  0.6508444  3
   1409   1408   1414   1416     1  0.0000000  0.6508444  3
   1410   1408   1414   2870     1  0.0000000  1.0460000  1
   1410   1408   1414   2870     1  0.0000000  0.0000000  3
   1410   1408   1414   1415     1  0.0000000  0.6508444  3
   1410   1408   1414   1416     1  0.0000000  0.6508444  3
   1414   2870   2861   2862     1  0.0000000  1.6038667  3
   1414   2870   2861   2863     1  0.0000000  1.6038667  3
   1415   1414   2870   2861     1  0.0000000  1.6038667  3
   1416   1414   2870   2861     1  0.0000000  1.6038667  3
   1417   2899   2890   2891     1  0.0000000  1.6038667  3
   1417   2899   2890   2892     1  0.0000000  1.6038667  3
   1418   1417   2899   2890     1  0.0000000  1.6038667  3
   1419   1417   2899   2890     1  0.0000000  1.6038667  3
   1421   1422   1434   1435     1  0.0000000  0.6508444  3
   1421   1422   1434   1436     1  0.0000000  0.6508444  3
   1421   1425   1437   1438     1  0.0000000  0.6508444  3
   1421   1425   1437   1439     1  0.0000000  0.6508444  3
   1421   1428   1431   1432     1  0.0000000  0.6508444  3
   1421   1428   1431   1433     1  0.0000000  0.6508444  3
   1422   1421   1425   1426     1  0.0000000  1.2552000  3
   1422   1421   1425   1427     1  0.0000000  1.2552000  3
   1422   1421   1428   1429     1  0.0000000  1.2552000  3
   1422   1421   1428   1430     1  0.0000000  1.2552000  3
   1422   1434   1446   1447     1  0.0000000  0.6508444  3
   1422   1434   1446   1448     1  0.0000000  0.6508444  3
   1423   1422   1421   1425     1  0.0000000  1.2552000  3
   1423   1422   1421   1428     1  0.0000000  1.2552000  3
   1423   1422   1434   1446     1  0.0000000  0.6508444  3
   1423   1422   1434   1435     1  0.0000000  0.6508444  3
   1423   1422   1434   1436     1  0.0000000  0.6508444  3
   1424   1422   1421   1425     1  0.0000000  1.2552000  3
   1424   1422   1421   1428     1  0.0000000  1.2552000  3
   1424   1422   1434   1446     1  0.0000000  0.6508444  3
   1424   1422   1434   1435     1  0.0000000  0.6508444  3
   1424   1422   1434   1436     1  0.0000000  0.6508444  3
   1425   1421   1428   1429     1  0.0000000  1.2552000  3
   1425   1421   1428   1430     1  0.0000000  1.2552000  3
   1425   1437   1443   1444     1  0.0000000  0.6508444  3
   1425   1437   1443   1445     1  0.0000000  0.6508444  3
   1426   1425   1421   1428     1  0.0000000  1.2552000  3
   1426   1425   1437   1443     1  0.0000000  0.6508444  3
   1426   1425   1437   1438     1  0.0000000  0.6508444  3
   1426   1425   1437   1439     1  0.0000000  0.6508444  3
   1427   1425   1421   1428     1  0.0000000  1.2552000  3
   1427   1425   1437   1443     1  0.0000000  0.6508444  3
   1427   1425   1437   1438     1  0.0000000  0.6508444  3
   1427   1425   1437   1439     1  0.0000000  0.6508444  3
   1428   1431   1440   1441     1  0.0000000  0.6508444  3
   1428   1431   1440   1442     1  0.0000000  0.6508444  3
   1429   1428   1431   1440     1  0.0000000  0.6508444  3
   1429   1428   1431   1432     1  0.0000000  0.6508444  3
   1429   1428   1431   1433     1  0.0000000  0.6508444  3
   1430   1428   1431   1440     1  0.0000000  0.6508444  3
   1430   1428   1431   1432     1  0.0000000  0.6508444  3
   1430   1428   1431   1433     1  0.0000000  0.6508444  3
   1432   1431   1440   1449     1  0.0000000  1.0460000  1
   1432   1431   1440   1449     1  0.0000000  0.0000000  3
   1432   1431   1440   1441     1  0.0000000  0.6508444  3
   1432   1431   1440   1442     1  0.0000000  0.6508444  3
   1433   1431   1440   1449     1  0.0000000  1.0460000  1
   1433   1431   1440   1449     1  0.0000000  0.0000000  3
   1433   1431   1440   1441     1  0.0000000  0.6508444  3
   1433   1431   1440   1442     1  0.0000000  0.6508444  3
   1435   1434   1446   2957     1  0.0000000  1.0460000  1
   1435   1434   1446   2957     1  0.0000000  0.0000000  3
   1435   1434   1446   1447     1  0.0000000  0.6508444  3
   1435   1434   1446   1448     1  0.0000000  0.6508444  3
   1436   1434   1446   2957     1  0.0000000  1.0460000  1
   1436   1434   1446   2957     1  0.0000000  0.0000000  3
   1436   1434   1446   1447     1  0.0000000  0.6508444  3
   1436   1434   1446   1448     1  0.0000000  0.6508444  3
   1438   1437   1443   2928     1  0.0000000  1.0460000  1
   1438   1437   1443   2928     1  0.0000000  0.0000000  3
   1438   1437   1443   1444     1  0.0000000  0.6508444  3
   1438   1437   1443   1445     1  0.0000000  0.6508444  3
   1439   1437   1443   2928     1  0.0000000  1.0460000  1
   1439   1437   1443   2928     1  0.0000000  0.0000000  3
   1439   1437   1443   1444     1  0.0000000  0.6508444  3
   1439   1437   1443   1445     1  0.0000000  0.6508444  3
   1443   2928   2919   2920     1  0.0000000  1.6038667  3
   1443   2928   2919   2921     1  0.0000000  1.6038667  3
   1444   1443   2928   2919     1  0.0000000  1.6038667  3
   1445   1443   2928   2919     1  0.0000000  1.6038667  3
   1446   2957   2948   2949     1  0.0000000  1.6038667  3
   1446   2957   2948   2950     1  0.0000000  1.6038667  3
   1447   1446   2957   2948     1  0.0000000  1.6038667  3
   1448   1446   2957   2948     1  0.0000000  1.6038667  3
   1450   1451   1463   1464     1  0.0000000  0.6508444  3
   1450   1451   1463   1465     1  0.0000000  0.6508444  3
   1450   1454   1466   1467     1  0.0000000  0.6508444  3
   1450   1454   1466   1468     1  0.0000000  0.6508444  3
   1450   1457   1460   1461     1  0.0000000  0.6508444  3
   1450   1457   1460   1462     1  0.0000000  0.6508444  3
   1451   1450   1454   1455     1  0.0000000  1.2552000  3
   1451   1450   1454   1456     1  0.0000000  1.2552000  3
   1451   1450   1457   1458     1  0.0000000  1.2552000  3
   1451   1450   1457   1459     1  0.0000000  1.2552000  3
   1451   1463   1475   1476     1  0.0000000  0.6508444  3
   1451   1463   1475   1477     1  0.0000000  0.6508444  3
   1452   1451   1450   1454     1  0.0000000  1.2552000  3
   1452   1451   1450   1457     1  0.0000000  1.2552000  3
   1452   1451   1463   1475     1  0.0000000  0.6508444  3
   1452   1451   1463   1464     1  0.0000000  0.6508444  3
   1452   1451   1463   1465     1  0.0000000  0.6508444  3
   1453   1451   1450   1454     1  0.0000000  1.2552000  3
   1453   1451   1450   1457     1  0.0000000  1.2552000  3
   1453   1451   1463   1475     1  0.0000000  0.6508444  3
   1453   1451   1463   1464     1  0.0000000  0.6508444  3
   1453   1451   1463   1465     1  0.0000000  0.6508444  3
   1454   1450   1457   1458     1  0.0000000  1.2552000  3
   1454   1450   1457   1459     1  0.0000000  1.2552000  3
   1454   1466   1472   1473     1  0.0000000  0.6508444  3
   1454   1466   1472   1474     1  0.0000000  0.6508444  3
   1455   1454   1450   1457     1  0.0000000  1.2552000  3
   1455   1454   1466   1472     1  0.0000000  0.6508444  3
   1455   1454   1466   1467     1  0.0000000  0.6508444  3
   1455   1454   1466   1468     1  0.0000000  0.6508444  3
   1456   1454   1450   1457     1  0.0000000  1.2552000  3
   1456   1454   1466   1472     1  0.0000000  0.6508444  3
   1456   1454   1466   1467     1  0.0000000  0.6508444  3
   1456   1454   1466   1468     1  0.0000000  0.6508444  3
   1457   1460   1469   1470     1  0.0000000  0.6508444  3
   1457   1460   1469   1471     1  0.0000000  0.6508444  3
   1458   1457   1460   1469     1  0.0000000  0.6508444  3
   1458   1457   1460   1461     1  0.0000000  0.6508444  3
   1458   1457   1460   1462     1  0.0000000  0.6508444  3
   1459   1457   1460   1469     1  0.0000000  0.6508444  3
   1459   1457   1460   1461     1  0.0000000  0.6508444  3
   1459   1457   1460   1462     1  0.0000000  0.6508444  3
   1461   1460   1469   1478     1  0.0000000  1.0460000  1
   1461   1460   1469   1478     1  0.0000000  0.0000000  3
   1461   1460   1469   1470     1  0.0000000  0.6508444  3
   1461   1460   1469   1471     1  0.0000000  0.6508444  3
   1462   1460   1469   1478     1  0.0000000  1.0460000  1
   1462   1460   1469   1478     1  0.0000000  0.0000000  3
   1462   1460   1469   1470     1  0.0000000  0.6508444  3
   1462   1460   1469   1471     1  0.0000000  0.6508444  3
   1464   1463   1475   3015     1  0.0000000  1.0460000  1
   1464   1463   1475   3015     1  0.0000000  0.0000000  3
   1464   1463   1475   1476     1  0.0000000  0.6508444  3
   1464   1463   1475   1477     1  0.0000000  0.6508444  3
   1465   1463   1475   3015     1  0.0000000  1.0460000  1
   1465   1463   1475   3015     1  0.0000000  0.0000000  3
   1465   1463   1475   1476     1  0.0000000  0.6508444  3
   1465   1463   1475   1477     1  0.0000000  0.6508444  3
   1467   1466   1472   2986     1  0.0000000  1.0460000  1
   1467   1466   1472   2986     1  0.0000000  0.0000000  3
   1467   1466   1472   1473     1  0.0000000  0.6508444  3
   1467   1466   1472   1474     1  0.0000000  0.6508444  3
   1468   1466   1472   2986     1  0.0000000  1.0460000  1
   1468   1466   1472   2986     1  0.0000000  0.0000000  3
   1468   1466   1472   1473     1  0.0000000  0.6508444  3
   1468   1466   1472   1474     1  0.0000000  0.6508444  3
   1472   2986   2977   2978     1  0.0000000  1.6038667  3
   1472   2986   2977   2979     1  0.0000000  1.6038667  3
   1473   1472   2986   2977     1  0.0000000  1.6038667  3
   1474   1472   2986   2977     1  0.0000000  1.6038667  3
   1475   3015   3006   3007     1  0.0000000  1.6038667  3
   1475   3015   3006   3008     1  0.0000000  1.6038667  3
   1476   1475   3015   3006     1  0.0000000  1.6038667  3
   1477   1475   3015   3006     1  0.0000000  1.6038667  3
   1479   1480   1492   1493     1  0.0000000  0.6508444  3
   1479   1480   1492   1494     1  0.0000000  0.6508444  3
   1479   1483   1495   1496     1  0.0000000  0.6508444  3
   1479   1483   1495   1497     1  0.0000000  0.6508444  3
   1479   1486   1489   1490     1  0.0000000  0.6508444  3
   1479   1486   1489   1491     1  0.0000000  0.6508444  3
   1480   1479   1483   1484     1  0.0000000  1.2552000  3
   1480   1479   1483   1485     1  0.0000000  1.2552000  3
   1480   1479   1486   1487     1  0.0000000  1.2552000  3
   1480   1479   1486   1488     1  0.0000000  1.2552000  3
   1480   1492   1504   1505     1  0.0000000  0.6508444  3
   1480   1492   1504   1506     1  0.0000000  0.6508444  3
   1481   1480   1479   1483     1  0.0000000  1.2552000  3
   1481   1480   1479   1486     1  0.0000000  1.2552000  3
   1481   1480   1492   1504     1  0.0000000  0.6508444  3
   1481   1480   1492   1493     1  0.0000000  0.6508444  3
   1481   1480   1492   1494     1  0.0000000  0.6508444  3
   1482   1480   1479   1483     1  0.0000000  1.2552000  3
   1482   1480   1479   1486     1  0.0000000  1.2552000  3
   1482   1480   1492   1504     1  0.0000000  0.6508444  3
   1482   1480   1492   1493     1  0.0000000  0.6508444  3
   1482   1480   1492   1494     1  0.0000000  0.6508444  3
   1483   1479   1486   1487     1  0.0000000  1.2552000  3
   1483   1479   1486   1488     1  0.0000000  1.2552000  3
   1483   1495   1501   1502     1  0.0000000  0.6508444  3
   1483   1495   1501   1503     1  0.0000000  0.6508444  3
   1484   1483   1479   1486     1  0.0000000  1.2552000  3
   1484   1483   1495   1501     1  0.0000000  0.6508444  3
   1484   1483   1495   1496     1  0.0000000  0.6508444  3
   1484   1483   1495   1497     1  0.0000000  0.6508444  3
   1485   1483   1479   1486     1  0.0000000  1.2552000  3
   1485   1483   1495   1501     1  0.0000000  0.6508444  3
   1485   1483   1495   1496     1  0.0000000  0.6508444  3
   1485   1483   1495   1497     1  0.0000000  0.6508444  3
   1486   1489   1498   1499     1  0.0000000  0.6508444  3
   1486   1489   1498   1500     1  0.0000000  0.6508444  3
   1487   1486   1489   1498     1  0.0000000  0.6508444  3
   1487   1486   1489   1490     1  0.0000000  0.6508444  3
   1487   1486   1489   1491     1  0.0000000  0.6508444  3
   1488   1486   1489   1498     1  0.0000000  0.6508444  3
   1488   1486   1489   1490     1  0.0000000  0.6508444  3
   1488   1486   1489   1491     1  0.0000000  0.6508444  3
   1490   1489   1498   1507     1  0.0000000  1.0460000  1
   1490   1489   1498   1507     1  0.0000000  0.0000000  3
   1490   1489   1498   1499     1  0.0000000  0.6508444  3
   1490   1489   1498   1500     1  0.0000000  0.6508444  3
   1491   1489   1498   1507     1  0.0000000  1.0460000  1
   1491   1489   1498   1507     1  0.0000000  0.0000000  3
   1491   1489   1498   1499     1  0.0000000  0.6508444  3
   1491   1489   1498   1500     1  0.0000000  0.6508444  3
   1493   1492   1504   3073     1  0.0000000  1.0460000  1
   1493   1492   1504   3073     1  0.0000000  0.0000000  3
   1493   1492   1504   1505     1  0.0000000  0.6508444  3
   1493   1492   1504   1506     1  0.0000000  0.6508444  3
   1494   1492   1504   3073     1  0.0000000  1.0460000  1
   1494   1492   1504   3073     1  0.0000000  0.0000000  3
   1494   1492   1504   1505     1  0.0000000  0.6508444  3
   1494   1492   1504   1506     1  0.0000000  0.6508444  3
   1496   1495   1501   3044     1  0.0000000  1.0460000  1
   1496   1495   1501   3044     1  0.0000000  0.0000000  3
   1496   1495   1501   1502     1  0.0000000  0.6508444  3
   1496   1495   1501   1503     1  0.0000000  0.6508444  3
   1497   1495   1501   3044     1  0.0000000  1.0460000  1
   1497   1495   1501   3044     1  0.0000000  0.0000000  3
   1497   1495   1501   1502     1  0.0000000  0.6508444  3
   1497   1495   1501   1503     1  0.0000000  0.6508444  3
   1501   3044   3035   3036     1  0.0000000  1.6038667  3
   1501   3044   3035   3037     1  0.0000000  1.6038667  3
   1502   1501   3044   3035     1  0.0000000  1.6038667  3
   1503   1501   3044   3035     1  0.0000000  1.6038667  3
   1504   3073   3064   3065     1  0.0000000  1.6038667  3
   1504   3073   3064   3066     1  0.0000000  1.6038667  3
   1505   1504   3073   3064     1  0.0000000  1.6038667  3
   1506   1504   3073   3064     1  0.0000000  1.6038667  3
   1508   1509   1521   1522     1  0.0000000  0.6508444  3
   1508   1509   1521   1523     1  0.0000000  0.6508444  3
   1508   1512   1524   1525     1  0.0000000  0.6508444  3
   1508   1512   1524   1526     1  0.0000000  0.6508444  3
   1508   1515   1518   1519     1  0.0000000  0.6508444  3
   1508   1515   1518   1520     1  0.0000000  0.6508444  3
   1509   1508   1512   1513     1  0.0000000  1.2552000  3
   1509   1508   1512   1514     1  0.0000000  1.2552000  3
   1509   1508   1515   1516     1  0.0000000  1.2552000  3
   1509   1508   1515   1517     1  0.0000000  1.2552000  3
   1509   1521   1533   1534     1  0.0000000  0.6508444  3
   1509   1521   1533   1535     1  0.0000000  0.6508444  3
   1510   1509   1508   1512     1  0.0000000  1.2552000  3
   1510   1509   1508   1515     1  0.0000000  1.2552000  3
   1510   1509   1521   1533     1  0.0000000  0.6508444  3
   1510   1509   1521   1522     1  0.0000000  0.6508444  3
   1510   1509   1521   1523     1  0.0000000  0.6508444  3
   1511   1509   1508   1512     1  0.0000000  1.2552000  3
   1511   1509   1508   1515     1  0.0000000  1.2552000  3
   1511   1509   1521   1533     1  0.0000000  0.6508444  3
   1511   1509   1521   1522     1  0.0000000  0.6508444  3
   1511   1509   1521   1523     1  0.0000000  0.6508444  3
   1512   1508   1515   1516     1  0.0000000  1.2552000  3
   1512   1508   1515   1517     1  0.0000000  1.2552000  3
   1512   1524   1530   1531     1  0.0000000  0.6508444  3
   1512   1524   1530   1532     1  0.0000000  0.6508444  3
   1513   1512   1508   1515     1  0.0000000  1.2552000  3
   1513   1512   1524   1530     1  0.0000000  0.6508444  3
   1513   1512   1524   1525     1  0.0000000  0.6508444  3
   1513   1512   1524   1526     1  0.0000000  0.6508444  3
   1514   1512   1508   1515     1  0.0000000  1.2552000  3
   1514   1512   1524   1530     1  0.0000000  0.6508444  3
   1514   1512   1524   1525     1  0.0000000  0.6508444  3
   1514   1512   1524   1526     1  0.0000000  0.6508444  3
   1515   1518   1527   1528     1  0.0000000  0.6508444  3
   1515   1518   1527   1529     1  0.0000000  0.6508444  3
   1516   1515   1518   1527     1  0.0000000  0.6508444  3
   1516   1515   1518   1519     1  0.0000000  0.6508444  3
   1516   1515   1518   1520     1  0.0000000  0.6508444  3
   1517   1515   1518   1527     1  0.0000000  0.6508444  3
   1517   1515   1518   1519     1  0.0000000  0.6508444  3
   1517   1515   1518   1520     1  0.0000000  0.6508444  3
   1519   1518   1527   1536     1  0.0000000  1.0460000  1
   1519   1518   1527   1536     1  0.0000000  0.0000000  3
   1519   1518   1527   1528     1  0.0000000  0.6508444  3
   1519   1518   1527   1529     1  0.0000000  0.6508444  3
   1520   1518   1527   1536     1  0.0000000  1.0460000  1
   1520   1518   1527   1536     1  0.0000000  0.0000000  3
   1520   1518   1527   1528     1  0.0000000  0.6508444  3
   1520   1518   1527   1529     1  0.0000000  0.6508444  3
   1522   1521   1533   3131     1  0.0000000  1.0460000  1
   1522   1521   1533   3131     1  0.0000000  0.0000000  3
   1522   1521   1533   1534     1  0.0000000  0.6508444  3
   1522   1521   1533   1535     1  0.0000000  0.6508444  3
   1523   1521   1533   3131     1  0.0000000  1.0460000  1
   1523   1521   1533   3131     1  0.0000000  0.0000000  3
   1523   1521   1533   1534     1  0.0000000  0.6508444  3
   1523   1521   1533   1535     1  0.0000000  0.6508444  3
   1525   1524   1530   3102     1  0.0000000  1.0460000  1
   1525   1524   1530   3102     1  0.0000000  0.0000000  3
   1525   1524   1530   1531     1  0.0000000  0.6508444  3
   1525   1524   1530   1532     1  0.0000000  0.6508444  3
   1526   1524   1530   3102     1  0.0000000  1.0460000  1
   1526   1524   1530   3102     1  0.0000000  0.0000000  3
   1526   1524   1530   1531     1  0.0000000  0.6508444  3
   1526   1524   1530   1532     1  0.0000000  0.6508444  3
   1530   3102   3093   3094     1  0.0000000  1.6038667  3
   1530   3102   3093   3095     1  0.0000000  1.6038667  3
   1531   1530   3102   3093     1  0.0000000  1.6038667  3
   1532   1530   3102   3093     1  0.0000000  1.6038667  3
   1533   3131   3122   3123     1  0.0000000  1.6038667  3
   1533   3131   3122   3124     1  0.0000000  1.6038667  3
   1534   1533   3131   3122     1  0.0000000  1.6038667  3
   1535   1533   3131   3122     1  0.0000000  1.6038667  3
   1537   1538   1550   1551     1  0.0000000  0.6508444  3
   1537   1538   1550   1552     1  0.0000000  0.6508444  3
   1537   1541   1553   1554     1  0.0000000  0.6508444  3
   1537   1541   1553   1555     1  0.0000000  0.6508444  3
   1537   1544   1547   1548     1  0.0000000  0.6508444  3
   1537   1544   1547   1549     1  0.0000000  0.6508444  3
   1538   1537   1541   1542     1  0.0000000  1.2552000  3
   1538   1537   1541   1543     1  0.0000000  1.2552000  3
   1538   1537   1544   1545     1  0.0000000  1.2552000  3
   1538   1537   1544   1546     1  0.0000000  1.2552000  3
   1538   1550   1562   1563     1  0.0000000  0.6508444  3
   1538   1550   1562   1564     1  0.0000000  0.6508444  3
   1539   1538   1537   1541     1  0.0000000  1.2552000  3
   1539   1538   1537   1544     1  0.0000000  1.2552000  3
   1539   1538   1550   1562     1  0.0000000  0.6508444  3
   1539   1538   1550   1551     1  0.0000000  0.6508444  3
   1539   1538   1550   1552     1  0.0000000  0.6508444  3
   1540   1538   1537   1541     1  0.0000000  1.2552000  3
   1540   1538   1537   1544     1  0.0000000  1.2552000  3
   1540   1538   1550   1562     1  0.0000000  0.6508444  3
   1540   1538   1550   1551     1  0.0000000  0.6508444  3
   1540   1538   1550   1552     1  0.0000000  0.6508444  3
   1541   1537   1544   1545     1  0.0000000  1.2552000  3
   1541   1537   1544   1546     1  0.0000000  1.2552000  3
   1541   1553   1559   1560     1  0.0000000  0.6508444  3
   1541   1553   1559   1561     1  0.0000000  0.6508444  3
   1542   1541   1537   1544     1  0.0000000  1.2552000  3
   1542   1541   1553   1559     1  0.0000000  0.6508444  3
   1542   1541   1553   1554     1  0.0000000  0.6508444  3
   1542   1541   1553   1555     1  0.0000000  0.6508444  3
   1543   1541   1537   1544     1  0.0000000  1.2552000  3
   1543   1541   1553   1559     1  0.0000000  0.6508444  3
   1543   1541   1553   1554     1  0.0000000  0.6508444  3
   1543   1541   1553   1555     1  0.0000000  0.6508444  3
   1544   1547   1556   1557     1  0.0000000  0.6508444  3
   1544   1547   1556   1558     1  0.0000000  0.6508444  3
   1545   1544   1547   1556     1  0.0000000  0.6508444  3
   1545   1544   1547   1548     1  0.0000000  0.6508444  3
   1545   1544   1547   1549     1  0.0000000  0.6508444  3
   1546   1544   1547   1556     1  0.0000000  0.6508444  3
   1546   1544   1547   1548     1  0.0000000  0.6508444  3
   1546   1544   1547   1549     1  0.0000000  0.6508444  3
   1548   1547   1556   1565     1  0.0000000  1.0460000  1
   1548   1547   1556   1565     1  0.0000000  0.0000000  3
   1548   1547   1556   1557     1  0.0000000  0.6508444  3
   1548   1547   1556   1558     1  0.0000000  0.6508444  3
   1549   1547   1556   1565     1  0.0000000  1.0460000  1
   1549   1547   1556   1565     1  0.0000000  0.0000000  3
   1549   1547   1556   1557     1  0.0000000  0.6508444  3
   1549   1547   1556   1558     1  0.0000000  0.6508444  3
   1551   1550   1562   3189     1  0.0000000  1.0460000  1
   1551   1550   1562   3189     1  0.0000000  0.0000000  3
   1551   1550   1562   1563     1  0.0000000  0.6508444  3
   1551   1550   1562   1564     1  0.0000000  0.6508444  3
   1552   1550   1562   3189     1  0.0000000  1.0460000  1
   1552   1550   1562   3189     1  0.0000000  0.0000000  3
   1552   1550   1562   1563     1  0.0000000  0.6508444  3
   1552   1550   1562   1564     1  0.0000000  0.6508444  3
   1554   1553   1559   3160     1  0.0000000  1.0460000  1
   1554   1553   1559   3160     1  0.0000000  0.0000000  3
   1554   1553   1559   1560     1  0.0000000  0.6508444  3
   1554   1553   1559   1561     1  0.0000000  0.6508444  3
   1555   1553   1559   3160     1  0.0000000  1.0460000  1
   1555   1553   1559   3160     1  0.0000000  0.0000000  3
   1555   1553   1559   1560     1  0.0000000  0.6508444  3
   1555   1553   1559   1561     1  0.0000000  0.6508444  3
   1559   3160   3151   3152     1  0.0000000  1.6038667  3
   1559   3160   3151   3153     1  0.0000000  1.6038667  3
   1560   1559   3160   3151     1  0.0000000  1.6038667  3
   1561   1559   3160   3151     1  0.0000000  1.6038667  3
   1562   3189   3180   3181     1  0.0000000  1.6038667  3
   1562   3189   3180   3182     1  0.0000000  1.6038667  3
   1563   1562   3189   3180     1  0.0000000  1.6038667  3
   1564   1562   3189   3180     1  0.0000000  1.6038667  3
   1566   1567   1579   1580     1  0.0000000  0.6508444  3
   1566   1567   1579   1581     1  0.0000000  0.6508444  3
   1566   1570   1582   1583     1  0.0000000  0.6508444  3
   1566   1570   1582   1584     1  0.0000000  0.6508444  3
   1566   1573   1576   1577     1  0.0000000  0.6508444  3
   1566   1573   1576   1578     1  0.0000000  0.6508444  3
   1567   1566   1570   1571     1  0.0000000  1.2552000  3
   1567   1566   1570   1572     1  0.0000000  1.2552000  3
   1567   1566   1573   1574     1  0.0000000  1.2552000  3
   1567   1566   1573   1575     1  0.0000000  1.2552000  3
   1567   1579   1591   1592     1  0.0000000  0.6508444  3
   1567   1579   1591   1593     1  0.0000000  0.6508444  3
   1568   1567   1566   1570     1  0.0000000  1.2552000  3
   1568   1567   1566   1573     1  0.0000000  1.2552000  3
   1568   1567   1579   1591     1  0.0000000  0.6508444  3
   1568   1567   1579   1580     1  0.0000000  0.6508444  3
   1568   1567   1579   1581     1  0.0000000  0.6508444  3
   1569   1567   1566   1570     1  0.0000000  1.2552000  3
   1569   1567   1566   1573     1  0.0000000  1.2552000  3
   1569   1567   1579   1591     1  0.0000000  0.6508444  3
   1569   1567   1579   1580     1  0.0000000  0.6508444  3
   1569   1567   1579   1581     1  0.0000000  0.6508444  3
   1570   1566   1573   1574     1  0.0000000  1.2552000  3
   1570   1566   1573   1575     1  0.0000000  1.2552000  3
   1570   1582   1588   1589     1  0.0000000  0.6508444  3
   1570   1582   1588   1590     1  0.0000000  0.6508444  3
   1571   1570   1566   1573     1  0.0000000  1.2552000  3
   1571   1570   1582   1588     1  0.0000000  0.6508444  3
   1571   1570   1582   1583     1  0.0000000  0.6508444  3
   1571   1570   1582   1584     1  0.0000000  0.6508444  3
   1572   1570   1566   1573     1  0.0000000  1.2552000  3
   1572   1570   1582   1588     1  0.0000000  0.6508444  3
   1572   1570   1582   1583     1  0.0000000  0.6508444  3
   1572   1570   1582   1584     1  0.0000000  0.6508444  3
   1573   1576   1585   1586     1  0.0000000  0.6508444  3
   1573   1576   1585   1587     1  0.0000000  0.6508444  3
   1574   1573   1576   1585     1  0.0000000  0.6508444  3
   1574   1573   1576   1577     1  0.0000000  0.6508444  3
   1574   1573   1576   1578     1  0.0000000  0.6508444  3
   1575   1573   1576   1585     1  0.0000000  0.6508444  3
   1575   1573   1576   1577     1  0.0000000  0.6508444  3
   1575   1573   1576   1578     1  0.0000000  0.6508444  3
   1577   1576   1585   1594     1  0.0000000  1.0460000  1
   1577   1576   1585   1594     1  0.0000000  0.0000000  3
   1577   1576   1585   1586     1  0.0000000  0.6508444  3
   1577   1576   1585   1587     1  0.0000000  0.6508444  3
   1578   1576   1585   1594     1  0.0000000  1.0460000  1
   1578   1576   1585   1594     1  0.0000000  0.0000000  3
   1578   1576   1585   1586     1  0.0000000  0.6508444  3
   1578   1576   1585   1587     1  0.0000000  0.6508444  3
   1580   1579   1591   3247     1  0.0000000  1.0460000  1
   1580   1579   1591   3247     1  0.0000000  0.0000000  3
   1580   1579   1591   1592     1  0.0000000  0.6508444  3
   1580   1579   1591   1593     1  0.0000000  0.6508444  3
   1581   1579   1591   3247     1  0.0000000  1.0460000  1
   1581   1579   1591   3247     1  0.0000000  0.0000000  3
   1581   1579   1591   1592     1  0.0000000  0.6508444  3
   1581   1579   1591   1593     1  0.0000000  0.6508444  3
   1583   1582   1588   3218     1  0.0000000  1.0460000  1
   1583   1582   1588   3218     1  0.0000000  0.0000000  3
   1583   1582   1588   1589     1  0.0000000  0.6508444  3
   1583   1582   1588   1590     1  0.0000000  0.6508444  3
   1584   1582   1588   3218     1  0.0000000  1.0460000  1
   1584   1582   1588   3218     1  0.0000000  0.0000000  3
   1584   1582   1588   1589     1  0.0000000  0.6508444  3
   1584   1582   1588   1590     1  0.0000000  0.6508444  3
   1588   3218   3209   3210     1  0.0000000  1.6038667  3
   1588   3218   3209   3211     1  0.0000000  1.6038667  3
   1589   1588   3218   3209     1  0.0000000  1.6038667  3
   1590   1588   3218   3209     1  0.0000000  1.6038667  3
   1591   3247   3238   3239     1  0.0000000  1.6038667  3
   1591   3247   3238   3240     1  0.0000000  1.6038667  3
   1592   1591   3247   3238     1  0.0000000  1.6038667  3
   1593   1591   3247   3238     1  0.0000000  1.6038667  3
   1595   1596   1608   1609     1  0.0000000  0.6508444  3
   1595   1596   1608   1610     1  0.0000000  0.6508444  3
   1595   1599   1611   1612     1  0.0000000  0.6508444  3
   1595   1599   1611   1613     1  0.0000000  0.6508444  3
   1595   1602   1605   1606     1  0.0000000  0.6508444  3
   1595   1602   1605   1607     1  0.0000000  0.6508444  3
   1596   1595   1599   1600     1  0.0000000  1.2552000  3
   1596   1595   1599   1601     1  0.0000000  1.2552000  3
   1596   1595   1602   1603     1  0.0000000  1.2552000  3
   1596   1595   1602   1604     1  0.0000000  1.2552000  3
   1596   1608   1620   1621     1  0.0000000  0.6508444  3
   1596   1608   1620   1622     1  0.0000000  0.6508444  3
   1597   1596   1595   1599     1  0.0000000  1.2552000  3
   1597   1596   1595   1602     1  0.0000000  1.2552000  3
   1597   1596   1608   1620     1  0.0000000  0.6508444  3
   1597   1596   1608   1609     1  0.0000000  0.6508444  3
   1597   1596   1608   1610     1  0.0000000  0.6508444  3
   1598   1596   1595   1599     1  0.0000000  1.2552000  3
   1598   1596   1595   1602     1  0.0000000  1.2552000  3
   1598   1596   1608   1620     1  0.0000000  0.6508444  3
   1598   1596   1608   1609     1  0.0000000  0.6508444  3
   1598   1596   1608   1610     1  0.0000000  0.6508444  3
   1599   1595   1602   1603     1  0.0000000  1.2552000  3
   1599   1595   1602   1604     1  0.0000000  1.2552000  3
   1599   1611   1617   1618     1  0.0000000  0.6508444  3
   1599   1611   1617   1619     1  0.0000000  0.6508444  3
   1600   1599   1595   1602     1  0.0000000  1.2552000  3
   1600   1599   1611   1617     1  0.0000000  0.6508444  3
   1600   1599   1611   1612     1  0.0000000  0.6508444  3
   1600   1599   1611   1613     1  0.0000000  0.6508444  3
   1601   1599   1595   1602     1  0.0000000  1.2552000  3
   1601   1599   1611   1617     1  0.0000000  0.6508444  3
   1601   1599   1611   1612     1  0.0000000  0.6508444  3
   1601   1599   1611   1613     1  0.0000000  0.6508444  3
   1602   1605   1614   1615     1  0.0000000  0.6508444  3
   1602   1605   1614   1616     1  0.0000000  0.6508444  3
   1603   1602   1605   1614     1  0.0000000  0.6508444  3
   1603   1602   1605   1606     1  0.0000000  0.6508444  3
   1603   1602   1605   1607     1  0.0000000  0.6508444  3
   1604   1602   1605   1614     1  0.0000000  0.6508444  3
   1604   1602   1605   1606     1  0.0000000  0.6508444  3
   1604   1602   1605   1607     1  0.0000000  0.6508444  3
   1606   1605   1614   1623     1  0.0000000  1.0460000  1
   1606   1605   1614   1623     1  0.0000000  0.0000000  3
   1606   1605   1614   1615     1  0.0000000  0.6508444  3
   1606   1605   1614   1616     1  0.0000000  0.6508444  3
   1607   1605   1614   1623     1  0.0000000  1.0460000  1
   1607   1605   1614   1623     1  0.0000000  0.0000000  3
   1607   1605   1614   1615     1  0.0000000  0.6508444  3
   1607   1605   1614   1616     1  0.0000000  0.6508444  3
   1609   1608   1620   3305     1  0.0000000  1.0460000  1
   1609   1608   1620   3305     1  0.0000000  0.0000000  3
   1609   1608   1620   1621     1  0.0000000  0.6508444  3
   1609   1608   1620   1622     1  0.0000000  0.6508444  3
   1610   1608   1620   3305     1  0.0000000  1.0460000  1
   1610   1608   1620   3305     1  0.0000000  0.0000000  3
   1610   1608   1620   1621     1  0.0000000  0.6508444  3
   1610   1608   1620   1622     1  0.0000000  0.6508444  3
   1612   1611   1617   3276     1  0.0000000  1.0460000  1
   1612   1611   1617   3276     1  0.0000000  0.0000000  3
   1612   1611   1617   1618     1  0.0000000  0.6508444  3
   1612   1611   1617   1619     1  0.0000000  0.6508444  3
   1613   1611   1617   3276     1  0.0000000  1.0460000  1
   1613   1611   1617   3276     1  0.0000000  0.0000000  3
   1613   1611   1617   1618     1  0.0000000  0.6508444  3
   1613   1611   1617   1619     1  0.0000000  0.6508444  3
   1617   3276   3267   3268     1  0.0000000  1.6038667  3
   1617   3276   3267   3269     1  0.0000000  1.6038667  3
   1618   1617   3276   3267     1  0.0000000  1.6038667  3
   1619   1617   3276   3267     1  0.0000000  1.6038667  3
   1620   3305   3296   3297     1  0.0000000  1.6038667  3
   1620   3305   3296   3298     1  0.0000000  1.6038667  3
   1621   1620   3305   3296     1  0.0000000  1.6038667  3
   1622   1620   3305   3296     1  0.0000000  1.6038667  3
   1624   1625   1637   1638     1  0.0000000  0.6508444  3
   1624   1625   1637   1639     1  0.0000000  0.6508444  3
   1624   1628   1640   1641     1  0.0000000  0.6508444  3
   1624   1628   1640   1642     1  0.0000000  0.6508444  3
   1624   1631   1634   1635     1  0.0000000  0.6508444  3
   1624   1631   1634   1636     1  0.0000000  0.6508444  3
   1625   1624   1628   1629     1  0.0000000  1.2552000  3
   1625   1624   1628   1630     1  0.0000000  1.2552000  3
   1625   1624   1631   1632     1  0.0000000  1.2552000  3
   1625   1624   1631   1633     1  0.0000000  1.2552000  3
   1625   1637   1649   1650     1  0.0000000  0.6508444  3
   1625   1637   1649   1651     1  0.0000000  0.6508444  3
   1626   1625   1624   1628     1  0.0000000  1.2552000  3
   1626   1625   1624   1631     1  0.0000000  1.2552000  3
   1626   1625   1637   1649     1  0.0000000  0.6508444  3
   1626   1625   1637   1638     1  0.0000000  0.6508444  3
   1626   1625   1637   1639     1  0.0000000  0.6508444  3
   1627   1625   1624   1628     1  0.0000000  1.2552000  3
   1627   1625   1624   1631     1  0.0000000  1.2552000  3
   1627   1625   1637   1649     1  0.0000000  0.6508444  3
   1627   1625   1637   1638     1  0.0000000  0.6508444  3
   1627   1625   1637   1639     1  0.0000000  0.6508444  3
   1628   1624   1631   1632     1  0.0000000  1.2552000  3
   1628   1624   1631   1633     1  0.0000000  1.2552000  3
   1628   1640   1646   1647     1  0.0000000  0.6508444  3
   1628   1640   1646   1648     1  0.0000000  0.6508444  3
   1629   1628   1624   1631     1  0.0000000  1.2552000  3
   1629   1628   1640   1646     1  0.0000000  0.6508444  3
   1629   1628   1640   1641     1  0.0000000  0.6508444  3
   1629   1628   1640   1642     1  0.0000000  0.6508444  3
   1630   1628   1624   1631     1  0.0000000  1.2552000  3
   1630   1628   1640   1646     1  0.0000000  0.6508444  3
   1630   1628   1640   1641     1  0.0000000  0.6508444  3
   1630   1628   1640   1642     1  0.0000000  0.6508444  3
   1631   1634   1643   1644     1  0.0000000  0.6508444  3
   1631   1634   1643   1645     1  0.0000000  0.6508444  3
   1632   1631   1634   1643     1  0.0000000  0.6508444  3
   1632   1631   1634   1635     1  0.0000000  0.6508444  3
   1632   1631   1634   1636     1  0.0000000  0.6508444  3
   1633   1631   1634   1643     1  0.0000000  0.6508444  3
   1633   1631   1634   1635     1  0.0000000  0.6508444  3
   1633   1631   1634   1636     1  0.0000000  0.6508444  3
   1635   1634   1643   1652     1  0.0000000  1.0460000  1
   1635   1634   1643   1652     1  0.0000000  0.0000000  3
   1635   1634   1643   1644     1  0.0000000  0.6508444  3
   1635   1634   1643   1645     1  0.0000000  0.6508444  3
   1636   1634   1643   1652     1  0.0000000  1.0460000  1
   1636   1634   1643   1652     1  0.0000000  0.0000000  3
   1636   1634   1643   1644     1  0.0000000  0.6508444  3
   1636   1634   1643   1645     1  0.0000000  0.6508444  3
   1638   1637   1649   3363     1  0.0000000  1.0460000  1
   1638   1637   1649   3363     1  0.0000000  0.0000000  3
   1638   1637   1649   1650     1  0.0000000  0.6508444  3
   1638   1637   1649   1651     1  0.0000000  0.6508444  3
   1639   1637   1649   3363     1  0.0000000  1.0460000  1
   1639   1637   1649   3363     1  0.0000000  0.0000000  3
   1639   1637   1649   1650     1  0.0000000  0.6508444  3
   1639   1637   1649   1651     1  0.0000000  0.6508444  3
   1641   1640   1646   3334     1  0.0000000  1.0460000  1
   1641   1640   1646   3334     1  0.0000000  0.0000000  3
   1641   1640   1646   1647     1  0.0000000  0.6508444  3
   1641   1640   1646   1648     1  0.0000000  0.6508444  3
   1642   1640   1646   3334     1  0.0000000  1.0460000  1
   1642   1640   1646   3334     1  0.0000000  0.0000000  3
   1642   1640   1646   1647     1  0.0000000  0.6508444  3
   1642   1640   1646   1648     1  0.0000000  0.6508444  3
   1646   3334   3325   3326     1  0.0000000  1.6038667  3
   1646   3334   3325   3327     1  0.0000000  1.6038667  3
   1647   1646   3334   3325     1  0.0000000  1.6038667  3
   1648   1646   3334   3325     1  0.0000000  1.6038667  3
   1649   3363   3354   3355     1  0.0000000  1.6038667  3
   1649   3363   3354   3356     1  0.0000000  1.6038667  3
   1650   1649   3363   3354     1  0.0000000  1.6038667  3
   1651   1649   3363   3354     1  0.0000000  1.6038667  3
   1653   1654   1666   1667     1  0.0000000  0.6508444  3
   1653   1654   1666   1668     1  0.0000000  0.6508444  3
   1653   1657   1669   1670     1  0.0000000  0.6508444  3
   1653   1657   1669   1671     1  0.0000000  0.6508444  3
   1653   1660   1663   1664     1  0.0000000  0.6508444  3
   1653   1660   1663   1665     1  0.0000000  0.6508444  3
   1654   1653   1657   1658     1  0.0000000  1.2552000  3
   1654   1653   1657   1659     1  0.0000000  1.2552000  3
   1654   1653   1660   1661     1  0.0000000  1.2552000  3
   1654   1653   1660   1662     1  0.0000000  1.2552000  3
   1654   1666   1678   1679     1  0.0000000  0.6508444  3
   1654   1666   1678   1680     1  0.0000000  0.6508444  3
   1655   1654   1653   1657     1  0.0000000  1.2552000  3
   1655   1654   1653   1660     1  0.0000000  1.2552000  3
   1655   1654   1666   1678     1  0.0000000  0.6508444  3
   1655   1654   1666   1667     1  0.0000000  0.6508444  3
   1655   1654   1666   1668     1  0.0000000  0.6508444  3
   1656   1654   1653   1657     1  0.0000000  1.2552000  3
   1656   1654   1653   1660     1  0.0000000  1.2552000  3
   1656   1654   1666   1678     1  0.0000000  0.6508444  3
   1656   1654   1666   1667     1  0.0000000  0.6508444  3
   1656   1654   1666   1668     1  0.0000000  0.6508444  3
   1657   1653   1660   1661     1  0.0000000  1.2552000  3
   1657   1653   1660   1662     1  0.0000000  1.2552000  3
   1657   1669   1675   1676     1  0.0000000  0.6508444  3
   1657   1669   1675   1677     1  0.0000000  0.6508444  3
   1658   1657   1653   1660     1  0.0000000  1.2552000  3
   1658   1657   1669   1675     1  0.0000000  0.6508444  3
   1658   1657   1669   1670     1  0.0000000  0.6508444  3
   1658   1657   1669   1671     1  0.0000000  0.6508444  3
   1659   1657   1653   1660     1  0.0000000  1.2552000  3
   1659   1657   1669   1675     1  0.0000000  0.6508444  3
   1659   1657   1669   1670     1  0.0000000  0.6508444  3
   1659   1657   1669   1671     1  0.0000000  0.6508444  3
   1660   1663   1672   1673     1  0.0000000  0.6508444  3
   1660   1663   1672   1674     1  0.0000000  0.6508444  3
   1661   1660   1663   1672     1  0.0000000  0.6508444  3
   1661   1660   1663   1664     1  0.0000000  0.6508444  3
   1661   1660   1663   1665     1  0.0000000  0.6508444  3
   1662   1660   1663   1672     1  0.0000000  0.6508444  3
   1662   1660   1663   1664     1  0.0000000  0.6508444  3
   1662   1660   1663   1665     1  0.0000000  0.6508444  3
   1664   1663   1672   1681     1  0.0000000  1.0460000  1
   1664   1663   1672   1681     1  0.0000000  0.0000000  3
   1664   1663   1672   1673     1  0.0000000  0.6508444  3
   1664   1663   1672   1674     1  0.0000000  0.6508444  3
   1665   1663   1672   1681     1  0.0000000  1.0460000  1
   1665   1663   1672   1681     1  0.0000000  0.0000000  3
   1665   1663   1672   1673     1  0.0000000  0.6508444  3
   1665   1663   1672   1674     1  0.0000000  0.6508444  3
   1667   1666   1678   3421     1  0.0000000  1.0460000  1
   1667   1666   1678   3421     1  0.0000000  0.0000000  3
   1667   1666   1678   1679     1  0.0000000  0.6508444  3
   1667   1666   1678   1680     1  0.0000000  0.6508444  3
   1668   1666   1678   3421     1  0.0000000  1.0460000  1
   1668   1666   1678   3421     1  0.0000000  0.0000000  3
   1668   1666   1678   1679     1  0.0000000  0.6508444  3
   1668   1666   1678   1680     1  0.0000000  0.6508444  3
   1670   1669   1675   3392     1  0.0000000  1.0460000  1
   1670   1669   1675   3392     1  0.0000000  0.0000000  3
   1670   1669   1675   1676     1  0.0000000  0.6508444  3
   1670   1669   1675   1677     1  0.0000000  0.6508444  3
   1671   1669   1675   3392     1  0.0000000  1.0460000  1
   1671   1669   1675   3392     1  0.0000000  0.0000000  3
   1671   1669   1675   1676     1  0.0000000  0.6508444  3
   1671   1669   1675   1677     1  0.0000000  0.6508444  3
   1675   3392   3383   3384     1  0.0000000  1.6038667  3
   1675   3392   3383   3385     1  0.0000000  1.6038667  3
   1676   1675   3392   3383     1  0.0000000  1.6038667  3
   1677   1675   3392   3383     1  0.0000000  1.6038667  3
   1678   3421   3412   3413     1  0.0000000  1.6038667  3
   1678   3421   3412   3414     1  0.0000000  1.6038667  3
   1679   1678   3421   3412     1  0.0000000  1.6038667  3
   1680   1678   3421   3412     1  0.0000000  1.6038667  3
   1682   1683   1695   1696     1  0.0000000  0.6508444  3
   1682   1683   1695   1697     1  0.0000000  0.6508444  3
   1682   1686   1698   1699     1  0.0000000  0.6508444  3
   1682   1686   1698   1700     1  0.0000000  0.6508444  3
   1682   1689   1692   1693     1  0.0000000  0.6508444  3
   1682   1689   1692   1694     1  0.0000000  0.6508444  3
   1683   1682   1686   1687     1  0.0000000  1.2552000  3
   1683   1682   1686   1688     1  0.0000000  1.2552000  3
   1683   1682   1689   1690     1  0.0000000  1.2552000  3
   1683   1682   1689   1691     1  0.0000000  1.2552000  3
   1683   1695   1707   1708     1  0.0000000  0.6508444  3
   1683   1695   1707   1709     1  0.0000000  0.6508444  3
   1684   1683   1682   1686     1  0.0000000  1.2552000  3
   1684   1683   1682   1689     1  0.0000000  1.2552000  3
   1684   1683   1695   1707     1  0.0000000  0.6508444  3
   1684   1683   1695   1696     1  0.0000000  0.6508444  3
   1684   1683   1695   1697     1  0.0000000  0.6508444  3
   1685   1683   1682   1686     1  0.0000000  1.2552000  3
   1685   1683   1682   1689     1  0.0000000  1.2552000  3
   1685   1683   1695   1707     1  0.0000000  0.6508444  3
   1685   1683   1695   1696     1  0.0000000  0.6508444  3
   1685   1683   1695   1697     1  0.0000000  0.6508444  3
   1686   1682   1689   1690     1  0.0000000  1.2552000  3
   1686   1682   1689   1691     1  0.0000000  1.2552000  3
   1686   1698   1704   1705     1  0.0000000  0.6508444  3
   1686   1698   1704   1706     1  0.0000000  0.6508444  3
   1687   1686   1682   1689     1  0.0000000  1.2552000  3
   1687   1686   1698   1704     1  0.0000000  0.6508444  3
   1687   1686   1698   1699     1  0.0000000  0.6508444  3
   1687   1686   1698   1700     1  0.0000000  0.6508444  3
   1688   1686   1682   1689     1  0.0000000  1.2552000  3
   1688   1686   1698   1704     1  0.0000000  0.6508444  3
   1688   1686   1698   1699     1  0.0000000  0.6508444  3
   1688   1686   1698   1700     1  0.0000000  0.6508444  3
   1689   1692   1701   1702     1  0.0000000  0.6508444  3
   1689   1692   1701   1703     1  0.0000000  0.6508444  3
   1690   1689   1692   1701     1  0.0000000  0.6508444  3
   1690   1689   1692   1693     1  0.0000000  0.6508444  3
   1690   1689   1692   1694     1  0.0000000  0.6508444  3
   1691   1689   1692   1701     1  0.0000000  0.6508444  3
   1691   1689   1692   1693     1  0.0000000  0.6508444  3
   1691   1689   1692   1694     1  0.0000000  0.6508444  3
   1693   1692   1701   1710     1  0.0000000  1.0460000  1
   1693   1692   1701   1710     1  0.0000000  0.0000000  3
   1693   1692   1701   1702     1  0.0000000  0.6508444  3
   1693   1692   1701   1703     1  0.0000000  0.6508444  3
   1694   1692   1701   1710     1  0.0000000  1.0460000  1
   1694   1692   1701   1710     1  0.0000000  0.0000000  3
   1694   1692   1701   1702     1  0.0000000  0.6508444  3
   1694   1692   1701   1703     1  0.0000000  0.6508444  3
   1696   1695   1707   3479     1  0.0000000  1.0460000  1
   1696   1695   1707   3479     1  0.0000000  0.0000000  3
   1696   1695   1707   1708     1  0.0000000  0.6508444  3
   1696   1695   1707   1709     1  0.0000000  0.6508444  3
   1697   1695   1707   3479     1  0.0000000  1.0460000  1
   1697   1695   1707   3479     1  0.0000000  0.0000000  3
   1697   1695   1707   1708     1  0.0000000  0.6508444  3
   1697   1695   1707   1709     1  0.0000000  0.6508444  3
   1699   1698   1704   3450     1  0.0000000  1.0460000  1
   1699   1698   1704   3450     1  0.0000000  0.0000000  3
   1699   1698   1704   1705     1  0.0000000  0.6508444  3
   1699   1698   1704   1706     1  0.0000000  0.6508444  3
   1700   1698   1704   3450     1  0.0000000  1.0460000  1
   1700   1698   1704   3450     1  0.0000000  0.0000000  3
   1700   1698   1704   1705     1  0.0000000  0.6508444  3
   1700   1698   1704   1706     1  0.0000000  0.6508444  3
   1704   3450   3441   3442     1  0.0000000  1.6038667  3
   1704   3450   3441   3443     1  0.0000000  1.6038667  3
   1705   1704   3450   3441     1  0.0000000  1.6038667  3
   1706   1704   3450   3441     1  0.0000000  1.6038667  3
   1707   3479   3470   3471     1  0.0000000  1.6038667  3
   1707   3479   3470   3472     1  0.0000000  1.6038667  3
   1708   1707   3479   3470     1  0.0000000  1.6038667  3
   1709   1707   3479   3470     1  0.0000000  1.6038667  3
   1711   1712   1724   1725     1  0.0000000  0.6508444  3
   1711   1712   1724   1726     1  0.0000000  0.6508444  3
   1711   1715   1727   1728     1  0.0000000  0.6508444  3
   1711   1715   1727   1729     1  0.0000000  0.6508444  3
   1711   1718   1721   1722     1  0.0000000  0.6508444  3
   1711   1718   1721   1723     1  0.0000000  0.6508444  3
   1712   1711   1715   1716     1  0.0000000  1.2552000  3
   1712   1711   1715   1717     1  0.0000000  1.2552000  3
   1712   1711   1718   1719     1  0.0000000  1.2552000  3
   1712   1711   1718   1720     1  0.0000000  1.2552000  3
   1712   1724   1736   1737     1  0.0000000  0.6508444  3
   1712   1724   1736   1738     1  0.0000000  0.6508444  3
   1713   1712   1711   1715     1  0.0000000  1.2552000  3
   1713   1712   1711   1718     1  0.0000000  1.2552000  3
   1713   1712   1724   1736     1  0.0000000  0.6508444  3
   1713   1712   1724   1725     1  0.0000000  0.6508444  3
   1713   1712   1724   1726     1  0.0000000  0.6508444  3
   1714   1712   1711   1715     1  0.0000000  1.2552000  3
   1714   1712   1711   1718     1  0.0000000  1.2552000  3
   1714   1712   1724   1736     1  0.0000000  0.6508444  3
   1714   1712   1724   1725     1  0.0000000  0.6508444  3
   1714   1712   1724   1726     1  0.0000000  0.6508444  3
   1715   1711   1718   1719     1  0.0000000  1.2552000  3
   1715   1711   1718   1720     1  0.0000000  1.2552000  3
   1715   1727   1733   1734     1  0.0000000  0.6508444  3
   1715   1727   1733   1735     1  0.0000000  0.6508444  3
   1716   1715   1711   1718     1  0.0000000  1.2552000  3
   1716   1715   1727   1733     1  0.0000000  0.6508444  3
   1716   1715   1727   1728     1  0.0000000  0.6508444  3
   1716   1715   1727   1729     1  0.0000000  0.6508444  3
   1717   1715   1711   1718     1  0.0000000  1.2552000  3
   1717   1715   1727   1733     1  0.0000000  0.6508444  3
   1717   1715   1727   1728     1  0.0000000  0.6508444  3
   1717   1715   1727   1729     1  0.0000000  0.6508444  3
   1718   1721   1730   1731     1  0.0000000  0.6508444  3
   1718   1721   1730   1732     1  0.0000000  0.6508444  3
   1719   1718   1721   1730     1  0.0000000  0.6508444  3
   1719   1718   1721   1722     1  0.0000000  0.6508444  3
   1719   1718   1721   1723     1  0.0000000  0.6508444  3
   1720   1718   1721   1730     1  0.0000000  0.6508444  3
   1720   1718   1721   1722     1  0.0000000  0.6508444  3
   1720   1718   1721   1723     1  0.0000000  0.6508444  3
   1722   1721   1730   1739     1  0.0000000  1.0460000  1
   1722   1721   1730   1739     1  0.0000000  0.0000000  3
   1722   1721   1730   1731     1  0.0000000  0.6508444  3
   1722   1721   1730   1732     1  0.0000000  0.6508444  3
   1723   1721   1730   1739     1  0.0000000  1.0460000  1
   1723   1721   1730   1739     1  0.0000000  0.0000000  3
   1723   1721   1730   1731     1  0.0000000  0.6508444  3
   1723   1721   1730   1732     1  0.0000000  0.6508444  3
   1725   1724   1736   3537     1  0.0000000  1.0460000  1
   1725   1724   1736   3537     1  0.0000000  0.0000000  3
   1725   1724   1736   1737     1  0.0000000  0.6508444  3
   1725   1724   1736   1738     1  0.0000000  0.6508444  3
   1726   1724   1736   3537     1  0.0000000  1.0460000  1
   1726   1724   1736   3537     1  0.0000000  0.0000000  3
   1726   1724   1736   1737     1  0.0000000  0.6508444  3
   1726   1724   1736   1738     1  0.0000000  0.6508444  3
   1728   1727   1733   3508     1  0.0000000  1.0460000  1
   1728   1727   1733   3508     1  0.0000000  0.0000000  3
   1728   1727   1733   1734     1  0.0000000  0.6508444  3
   1728   1727   1733   1735     1  0.0000000  0.6508444  3
   1729   1727   1733   3508     1  0.0000000  1.0460000  1
   1729   1727   1733   3508     1  0.0000000  0.0000000  3
   1729   1727   1733   1734     1  0.0000000  0.6508444  3
   1729   1727   1733   1735     1  0.0000000  0.6508444  3
   1733   3508   3499   3500     1  0.0000000  1.6038667  3
   1733   3508   3499   3501     1  0.0000000  1.6038667  3
   1734   1733   3508   3499     1  0.0000000  1.6038667  3
   1735   1733   3508   3499     1  0.0000000  1.6038667  3
   1736   3537   3528   3529     1  0.0000000  1.6038667  3
   1736   3537   3528   3530     1  0.0000000  1.6038667  3
   1737   1736   3537   3528     1  0.0000000  1.6038667  3
   1738   1736   3537   3528     1  0.0000000  1.6038667  3
   1740   1741   1753   1754     1  0.0000000  0.6508444  3
   1740   1741   1753   1755     1  0.0000000  0.6508444  3
   1740   1744   1756   1757     1  0.0000000  0.6508444  3
   1740   1744   1756   1758     1  0.0000000  0.6508444  3
   1740   1747   1750   1751     1  0.0000000  0.6508444  3
   1740   1747   1750   1752     1  0.0000000  0.6508444  3
   1741   1740   1744   1745     1  0.0000000  1.2552000  3
   1741   1740   1744   1746     1  0.0000000  1.2552000  3
   1741   1740   1747   1748     1  0.0000000  1.2552000  3
   1741   1740   1747   1749     1  0.0000000  1.2552000  3
   1741   1753   1765   1766     1  0.0000000  0.6508444  3
   1741   1753   1765   1767     1  0.0000000  0.6508444  3
   1742   1741   1740   1744     1  0.0000000  1.2552000  3
   1742   1741   1740   1747     1  0.0000000  1.2552000  3
   1742   1741   1753   1765     1  0.0000000  0.6508444  3
   1742   1741   1753   1754     1  0.0000000  0.6508444  3
   1742   1741   1753   1755     1  0.0000000  0.6508444  3
   1743   1741   1740   1744     1  0.0000000  1.2552000  3
   1743   1741   1740   1747     1  0.0000000  1.2552000  3
   1743   1741   1753   1765     1  0.0000000  0.6508444  3
   1743   1741   1753   1754     1  0.0000000  0.6508444  3
   1743   1741   1753   1755     1  0.0000000  0.6508444  3
   1744   1740   1747   1748     1  0.0000000  1.2552000  3
   1744   1740   1747   1749     1  0.0000000  1.2552000  3
   1744   1756   1762   1763     1  0.0000000  0.6508444  3
   1744   1756   1762   1764     1  0.0000000  0.6508444  3
   1745   1744   1740   1747     1  0.0000000  1.2552000  3
   1745   1744   1756   1762     1  0.0000000  0.6508444  3
   1745   1744   1756   1757     1  0.0000000  0.6508444  3
   1745   1744   1756   1758     1  0.0000000  0.6508444  3
   1746   1744   1740   1747     1  0.0000000  1.2552000  3
   1746   1744   1756   1762     1  0.0000000  0.6508444  3
   1746   1744   1756   1757     1  0.0000000  0.6508444  3
   1746   1744   1756   1758     1  0.0000000  0.6508444  3
   1747   1750   1759   1760     1  0.0000000  0.6508444  3
   1747   1750   1759   1761     1  0.0000000  0.6508444  3
   1748   1747   1750   1759     1  0.0000000  0.6508444  3
   1748   1747   1750   1751     1  0.0000000  0.6508444  3
   1748   1747   1750   1752     1  0.0000000  0.6508444  3
   1749   1747   1750   1759     1  0.0000000  0.6508444  3
   1749   1747   1750   1751     1  0.0000000  0.6508444  3
   1749   1747   1750   1752     1  0.0000000  0.6508444  3
   1751   1750   1759   1768     1  0.0000000  1.0460000  1
   1751   1750   1759   1768     1  0.0000000  0.0000000  3
   1751   1750   1759   1760     1  0.0000000  0.6508444  3
   1751   1750   1759   1761     1  0.0000000  0.6508444  3
   1752   1750   1759   1768     1  0.0000000  1.0460000  1
   1752   1750   1759   1768     1  0.0000000  0.0000000  3
   1752   1750   1759   1760     1  0.0000000  0.6508444  3
   1752   1750   1759   1761     1  0.0000000  0.6508444  3
   1754   1753   1765   3595     1  0.0000000  1.0460000  1
   1754   1753   1765   3595     1  0.0000000  0.0000000  3
   1754   1753   1765   1766     1  0.0000000  0.6508444  3
   1754   1753   1765   1767     1  0.0000000  0.6508444  3
   1755   1753   1765   3595     1  0.0000000  1.0460000  1
   1755   1753   1765   3595     1  0.0000000  0.0000000  3
   1755   1753   1765   1766     1  0.0000000  0.6508444  3
   1755   1753   1765   1767     1  0.0000000  0.6508444  3
   1757   1756   1762   3566     1  0.0000000  1.0460000  1
   1757   1756   1762   3566     1  0.0000000  0.0000000  3
   1757   1756   1762   1763     1  0.0000000  0.6508444  3
   1757   1756   1762   1764     1  0.0000000  0.6508444  3
   1758   1756   1762   3566     1  0.0000000  1.0460000  1
   1758   1756   1762   3566     1  0.0000000  0.0000000  3
   1758   1756   1762   1763     1  0.0000000  0.6508444  3
   1758   1756   1762   1764     1  0.0000000  0.6508444  3
   1762   3566   3557   3558     1  0.0000000  1.6038667  3
   1762   3566   3557   3559     1  0.0000000  1.6038667  3
   1763   1762   3566   3557     1  0.0000000  1.6038667  3
   1764   1762   3566   3557     1  0.0000000  1.6038667  3
   1765   3595   3586   3587     1  0.0000000  1.6038667  3
   1765   3595   3586   3588     1  0.0000000  1.6038667  3
   1766   1765   3595   3586     1  0.0000000  1.6038667  3
   1767   1765   3595   3586     1  0.0000000  1.6038667  3
   1769   1770   1782   1783     1  0.0000000  0.6508444  3
   1769   1770   1782   1784     1  0.0000000  0.6508444  3
   1769   1773   1785   1786     1  0.0000000  0.6508444  3
   1769   1773   1785   1787     1  0.0000000  0.6508444  3
   1769   1776   1779   1780     1  0.0000000  0.6508444  3
   1769   1776   1779   1781     1  0.0000000  0.6508444  3
   1770   1769   1773   1774     1  0.0000000  1.2552000  3
   1770   1769   1773   1775     1  0.0000000  1.2552000  3
   1770   1769   1776   1777     1  0.0000000  1.2552000  3
   1770   1769   1776   1778     1  0.0000000  1.2552000  3
   1770   1782   1794   1795     1  0.0000000  0.6508444  3
   1770   1782   1794   1796     1  0.0000000  0.6508444  3
   1771   1770   1769   1773     1  0.0000000  1.2552000  3
   1771   1770   1769   1776     1  0.0000000  1.2552000  3
   1771   1770   1782   1794     1  0.0000000  0.6508444  3
   1771   1770   1782   1783     1  0.0000000  0.6508444  3
   1771   1770   1782   1784     1  0.0000000  0.6508444  3
   1772   1770   1769   1773     1  0.0000000  1.2552000  3
   1772   1770   1769   1776     1  0.0000000  1.2552000  3
   1772   1770   1782   1794     1  0.0000000  0.6508444  3
   1772   1770   1782   1783     1  0.0000000  0.6508444  3
   1772   1770   1782   1784     1  0.0000000  0.6508444  3
   1773   1769   1776   1777     1  0.0000000  1.2552000  3
   1773   1769   1776   1778     1  0.0000000  1.2552000  3
   1773   1785   1791   1792     1  0.0000000  0.6508444  3
   1773   1785   1791   1793     1  0.0000000  0.6508444  3
   1774   1773   1769   1776     1  0.0000000  1.2552000  3
   1774   1773   1785   1791     1  0.0000000  0.6508444  3
   1774   1773   1785   1786     1  0.0000000  0.6508444  3
   1774   1773   1785   1787     1  0.0000000  0.6508444  3
   1775   1773   1769   1776     1  0.0000000  1.2552000  3
   1775   1773   1785   1791     1  0.0000000  0.6508444  3
   1775   1773   1785   1786     1  0.0000000  0.6508444  3
   1775   1773   1785   1787     1  0.0000000  0.6508444  3
   1776   1779   1788   1789     1  0.0000000  0.6508444  3
   1776   1779   1788   1790     1  0.0000000  0.6508444  3
   1777   1776   1779   1788     1  0.0000000  0.6508444  3
   1777   1776   1779   1780     1  0.0000000  0.6508444  3
   1777   1776   1779   1781     1  0.0000000  0.6508444  3
   1778   1776   1779   1788     1  0.0000000  0.6508444  3
   1778   1776   1779   1780     1  0.0000000  0.6508444  3
   1778   1776   1779   1781     1  0.0000000  0.6508444  3
   1780   1779   1788   1797     1  0.0000000  1.0460000  1
   1780   1779   1788   1797     1  0.0000000  0.0000000  3
   1780   1779   1788   1789     1  0.0000000  0.6508444  3
   1780   1779   1788   1790     1  0.0000000  0.6508444  3
   1781   1779   1788   1797     1  0.0000000  1.0460000  1
   1781   1779   1788   1797     1  0.0000000  0.0000000  3
   1781   1779   1788   1789     1  0.0000000  0.6508444  3
   1781   1779   1788   1790     1  0.0000000  0.6508444  3
   1783   1782   1794   3653     1  0.0000000  1.0460000  1
   1783   1782   1794   3653     1  0.0000000  0.0000000  3
   1783   1782   1794   1795     1  0.0000000  0.6508444  3
   1783   1782   1794   1796     1  0.0000000  0.6508444  3
   1784   1782   1794   3653     1  0.0000000  1.0460000  1
   1784   1782   1794   3653     1  0.0000000  0.0000000  3
   1784   1782   1794   1795     1  0.0000000  0.6508444  3
   1784   1782   1794   1796     1  0.0000000  0.6508444  3
   1786   1785   1791   3624     1  0.0000000  1.0460000  1
   1786   1785   1791   3624     1  0.0000000  0.0000000  3
   1786   1785   1791   1792     1  0.0000000  0.6508444  3
   1786   1785   1791   1793     1  0.0000000  0.6508444  3
   1787   1785   1791   3624     1  0.0000000  1.0460000  1
   1787   1785   1791   3624     1  0.0000000  0.0000000  3
   1787   1785   1791   1792     1  0.0000000  0.6508444  3
   1787   1785   1791   1793     1  0.0000000  0.6508444  3
   1791   3624   3615   3616     1  0.0000000  1.6038667  3
   1791   3624   3615   3617     1  0.0000000  1.6038667  3
   1792   1791   3624   3615     1  0.0000000  1.6038667  3
   1793   1791   3624   3615     1  0.0000000  1.6038667  3
   1794   3653   3644   3645     1  0.0000000  1.6038667  3
   1794   3653   3644   3646     1  0.0000000  1.6038667  3
   1795   1794   3653   3644     1  0.0000000  1.6038667  3
   1796   1794   3653   3644     1  0.0000000  1.6038667  3
   1798   1799   1811   1812     1  0.0000000  0.6508444  3
   1798   1799   1811   1813     1  0.0000000  0.6508444  3
   1798   1802   1814   1815     1  0.0000000  0.6508444  3
   1798   1802   1814   1816     1  0.0000000  0.6508444  3
   1798   1805   1808   1809     1  0.0000000  0.6508444  3
   1798   1805   1808   1810     1  0.0000000  0.6508444  3
   1799   1798   1802   1803     1  0.0000000  1.2552000  3
   1799   1798   1802   1804     1  0.0000000  1.2552000  3
   1799   1798   1805   1806     1  0.0000000  1.2552000  3
   1799   1798   1805   1807     1  0.0000000  1.2552000  3
   1799   1811   1823   1824     1  0.0000000  0.6508444  3
   1799   1811   1823   1825     1  0.0000000  0.6508444  3
   1800   1799   1798   1802     1  0.0000000  1.2552000  3
   1800   1799   1798   1805     1  0.0000000  1.2552000  3
   1800   1799   1811   1823     1  0.0000000  0.6508444  3
   1800   1799   1811   1812     1  0.0000000  0.6508444  3
   1800   1799   1811   1813     1  0.0000000  0.6508444  3
   1801   1799   1798   1802     1  0.0000000  1.2552000  3
   1801   1799   1798   1805     1  0.0000000  1.2552000  3
   1801   1799   1811   1823     1  0.0000000  0.6508444  3
   1801   1799   1811   1812     1  0.0000000  0.6508444  3
   1801   1799   1811   1813     1  0.0000000  0.6508444  3
   1802   1798   1805   1806     1  0.0000000  1.2552000  3
   1802   1798   1805   1807     1  0.0000000  1.2552000  3
   1802   1814   1820   1821     1  0.0000000  0.6508444  3
   1802   1814   1820   1822     1  0.0000000  0.6508444  3
   1803   1802   1798   1805     1  0.0000000  1.2552000  3
   1803   1802   1814   1820     1  0.0000000  0.6508444  3
   1803   1802   1814   1815     1  0.0000000  0.6508444  3
   1803   1802   1814   1816     1  0.0000000  0.6508444  3
   1804   1802   1798   1805     1  0.0000000  1.2552000  3
   1804   1802   1814   1820     1  0.0000000  0.6508444  3
   1804   1802   1814   1815     1  0.0000000  0.6508444  3
   1804   1802   1814   1816     1  0.0000000  0.6508444  3
   1805   1808   1817   1818     1  0.0000000  0.6508444  3
   1805   1808   1817   1819     1  0.0000000  0.6508444  3
   1806   1805   1808   1817     1  0.0000000  0.6508444  3
   1806   1805   1808   1809     1  0.0000000  0.6508444  3
   1806   1805   1808   1810     1  0.0000000  0.6508444  3
   1807   1805   1808   1817     1  0.0000000  0.6508444  3
   1807   1805   1808   1809     1  0.0000000  0.6508444  3
   1807   1805   1808   1810     1  0.0000000  0.6508444  3
   1809   1808   1817   1826     1  0.0000000  1.0460000  1
   1809   1808   1817   1826     1  0.0000000  0.0000000  3
   1809   1808   1817   1818     1  0.0000000  0.6508444  3
   1809   1808   1817   1819     1  0.0000000  0.6508444  3
   1810   1808   1817   1826     1  0.0000000  1.0460000  1
   1810   1808   1817   1826     1  0.0000000  0.0000000  3
   1810   1808   1817   1818     1  0.0000000  0.6508444  3
   1810   1808   1817   1819     1  0.0000000  0.6508444  3
   1812   1811   1823   3711     1  0.0000000  1.0460000  1
   1812   1811   1823   3711     1  0.0000000  0.0000000  3
   1812   1811   1823   1824     1  0.0000000  0.6508444  3
   1812   1811   1823   1825     1  0.0000000  0.6508444  3
   1813   1811   1823   3711     1  0.0000000  1.0460000  1
   1813   1811   1823   3711     1  0.0000000  0.0000000  3
   1813   1811   1823   1824     1  0.0000000  0.6508444  3
   1813   1811   1823   1825     1  0.0000000  0.6508444  3
   1815   1814   1820   3682     1  0.0000000  1.0460000  1
   1815   1814   1820   3682     1  0.0000000  0.0000000  3
   1815   1814   1820   1821     1  0.0000000  0.6508444  3
   1815   1814   1820   1822     1  0.0000000  0.6508444  3
   1816   1814   1820   3682     1  0.0000000  1.0460000  1
   1816   1814   1820   3682     1  0.0000000  0.0000000  3
   1816   1814   1820   1821     1  0.0000000  0.6508444  3
   1816   1814   1820   1822     1  0.0000000  0.6508444  3
   1820   3682   3673   3674     1  0.0000000  1.6038667  3
   1820   3682   3673   3675     1  0.0000000  1.6038667  3
   1821   1820   3682   3673     1  0.0000000  1.6038667  3
   1822   1820   3682   3673     1  0.0000000  1.6038667  3
   1823   3711   3702   3703     1  0.0000000  1.6038667  3
   1823   3711   3702   3704     1  0.0000000  1.6038667  3
   1824   1823   3711   3702     1  0.0000000  1.6038667  3
   1825   1823   3711   3702     1  0.0000000  1.6038667  3
   1827   1828   1840   1841     1  0.0000000  0.6508444  3
   1827   1828   1840   1842     1  0.0000000  0.6508444  3
   1827   1831   1843   1844     1  0.0000000  0.6508444  3
   1827   1831   1843   1845     1  0.0000000  0.6508444  3
   1827   1834   1837   1838     1  0.0000000  0.6508444  3
   1827   1834   1837   1839     1  0.0000000  0.6508444  3
   1828   1827   1831   1832     1  0.0000000  1.2552000  3
   1828   1827   1831   1833     1  0.0000000  1.2552000  3
   1828   1827   1834   1835     1  0.0000000  1.2552000  3
   1828   1827   1834   1836     1  0.0000000  1.2552000  3
   1828   1840   1852   1853     1  0.0000000  0.6508444  3
   1828   1840   1852   1854     1  0.0000000  0.6508444  3
   1829   1828   1827   1831     1  0.0000000  1.2552000  3
   1829   1828   1827   1834     1  0.0000000  1.2552000  3
   1829   1828   1840   1852     1  0.0000000  0.6508444  3
   1829   1828   1840   1841     1  0.0000000  0.6508444  3
   1829   1828   1840   1842     1  0.0000000  0.6508444  3
   1830   1828   1827   1831     1  0.0000000  1.2552000  3
   1830   1828   1827   1834     1  0.0000000  1.2552000  3
   1830   1828   1840   1852     1  0.0000000  0.6508444  3
   1830   1828   1840   1841     1  0.0000000  0.6508444  3
   1830   1828   1840   1842     1  0.0000000  0.6508444  3
   1831   1827   1834   1835     1  0.0000000  1.2552000  3
   1831   1827   1834   1836     1  0.0000000  1.2552000  3
   1831   1843   1849   1850     1  0.0000000  0.6508444  3
   1831   1843   1849   1851     1  0.0000000  0.6508444  3
   1832   1831   1827   1834     1  0.0000000  1.2552000  3
   1832   1831   1843   1849     1  0.0000000  0.6508444  3
   1832   1831   1843   1844     1  0.0000000  0.6508444  3
   1832   1831   1843   1845     1  0.0000000  0.6508444  3
   1833   1831   1827   1834     1  0.0000000  1.2552000  3
   1833   1831   1843   1849     1  0.0000000  0.6508444  3
   1833   1831   1843   1844     1  0.0000000  0.6508444  3
   1833   1831   1843   1845     1  0.0000000  0.6508444  3
   1834   1837   1846   1847     1  0.0000000  0.6508444  3
   1834   1837   1846   1848     1  0.0000000  0.6508444  3
   1835   1834   1837   1846     1  0.0000000  0.6508444  3
   1835   1834   1837   1838     1  0.0000000  0.6508444  3
   1835   1834   1837   1839     1  0.0000000  0.6508444  3
   1836   1834   1837   1846     1  0.0000000  0.6508444  3
   1836   1834   1837   1838     1  0.0000000  0.6508444  3
   1836   1834   1837   1839     1  0.0000000  0.6508444  3
   1838   1837   1846   1855     1  0.0000000  1.0460000  1
   1838   1837   1846   1855     1  0.0000000  0.0000000  3
   1838   1837   1846   1847     1  0.0000000  0.6508444  3
   1838   1837   1846   1848     1  0.0000000  0.6508444  3
   1839   1837   1846   1855     1  0.0000000  1.0460000  1
   1839   1837   1846   1855     1  0.0000000  0.0000000  3
   1839   1837   1846   1847     1  0.0000000  0.6508444  3
   1839   1837   1846   1848     1  0.0000000  0.6508444  3
   1841   1840   1852   3769     1  0.0000000  1.0460000  1
   1841   1840   1852   3769     1  0.0000000  0.0000000  3
   1841   1840   1852   1853     1  0.0000000  0.6508444  3
   1841   1840   1852   1854     1  0.0000000  0.6508444  3
   1842   1840   1852   3769     1  0.0000000  1.0460000  1
   1842   1840   1852   3769     1  0.0000000  0.0000000  3
   1842   1840   1852   1853     1  0.0000000  0.6508444  3
   1842   1840   1852   1854     1  0.0000000  0.6508444  3
   1844   1843   1849   3740     1  0.0000000  1.0460000  1
   1844   1843   1849   3740     1  0.0000000  0.0000000  3
   1844   1843   1849   1850     1  0.0000000  0.6508444  3
   1844   1843   1849   1851     1  0.0000000  0.6508444  3
   1845   1843   1849   3740     1  0.0000000  1.0460000  1
   1845   1843   1849   3740     1  0.0000000  0.0000000  3
   1845   1843   1849   1850     1  0.0000000  0.6508444  3
   1845   1843   1849   1851     1  0.0000000  0.6508444  3
   1849   3740   3731   3732     1  0.0000000  1.6038667  3
   1849   3740   3731   3733     1  0.0000000  1.6038667  3
   1850   1849   3740   3731     1  0.0000000  1.6038667  3
   1851   1849   3740   3731     1  0.0000000  1.6038667  3
   1852   3769   3760   3761     1  0.0000000  1.6038667  3
   1852   3769   3760   3762     1  0.0000000  1.6038667  3
   1853   1852   3769   3760     1  0.0000000  1.6038667  3
   1854   1852   3769   3760     1  0.0000000  1.6038667  3
   1856   1857   1869   1870     1  0.0000000  0.6508444  3
   1856   1857   1869   1871     1  0.0000000  0.6508444  3
   1856   1860   1872   1873     1  0.0000000  0.6508444  3
   1856   1860   1872   1874     1  0.0000000  0.6508444  3
   1856   1863   1866   1867     1  0.0000000  0.6508444  3
   1856   1863   1866   1868     1  0.0000000  0.6508444  3
   1857   1856   1860   1861     1  0.0000000  1.2552000  3
   1857   1856   1860   1862     1  0.0000000  1.2552000  3
   1857   1856   1863   1864     1  0.0000000  1.2552000  3
   1857   1856   1863   1865     1  0.0000000  1.2552000  3
   1857   1869   1881   1882     1  0.0000000  0.6508444  3
   1857   1869   1881   1883     1  0.0000000  0.6508444  3
   1858   1857   1856   1860     1  0.0000000  1.2552000  3
   1858   1857   1856   1863     1  0.0000000  1.2552000  3
   1858   1857   1869   1881     1  0.0000000  0.6508444  3
   1858   1857   1869   1870     1  0.0000000  0.6508444  3
   1858   1857   1869   1871     1  0.0000000  0.6508444  3
   1859   1857   1856   1860     1  0.0000000  1.2552000  3
   1859   1857   1856   1863     1  0.0000000  1.2552000  3
   1859   1857   1869   1881     1  0.0000000  0.6508444  3
   1859   1857   1869   1870     1  0.0000000  0.6508444  3
   1859   1857   1869   1871     1  0.0000000  0.6508444  3
   1860   1856   1863   1864     1  0.0000000  1.2552000  3
   1860   1856   1863   1865     1  0.0000000  1.2552000  3
   1860   1872   1878   1879     1  0.0000000  0.6508444  3
   1860   1872   1878   1880     1  0.0000000  0.6508444  3
   1861   1860   1856   1863     1  0.0000000  1.2552000  3
   1861   1860   1872   1878     1  0.0000000  0.6508444  3
   1861   1860   1872   1873     1  0.0000000  0.6508444  3
   1861   1860   1872   1874     1  0.0000000  0.6508444  3
   1862   1860   1856   1863     1  0.0000000  1.2552000  3
   1862   1860   1872   1878     1  0.0000000  0.6508444  3
   1862   1860   1872   1873     1  0.0000000  0.6508444  3
   1862   1860   1872   1874     1  0.0000000  0.6508444  3
   1863   1866   1875   1876     1  0.0000000  0.6508444  3
   1863   1866   1875   1877     1  0.0000000  0.6508444  3
   1864   1863   1866   1875     1  0.0000000  0.6508444  3
   1864   1863   1866   1867     1  0.0000000  0.6508444  3
   1864   1863   1866   1868     1  0.0000000  0.6508444  3
   1865   1863   1866   1875     1  0.0000000  0.6508444  3
   1865   1863   1866   1867     1  0.0000000  0.6508444  3
   1865   1863   1866   1868     1  0.0000000  0.6508444  3
   1867   1866   1875   1884     1  0.0000000  1.0460000  1
   1867   1866   1875   1884     1  0.0000000  0.0000000  3
   1867   1866   1875   1876     1  0.0000000  0.6508444  3
   1867   1866   1875   1877     1  0.0000000  0.6508444  3
   1868   1866   1875   1884     1  0.0000000  1.0460000  1
   1868   1866   1875   1884     1  0.0000000  0.0000000  3
   1868   1866   1875   1876     1  0.0000000  0.6508444  3
   1868   1866   1875   1877     1  0.0000000  0.6508444  3
   1870   1869   1881   3827     1  0.0000000  1.0460000  1
   1870   1869   1881   3827     1  0.0000000  0.0000000  3
   1870   1869   1881   1882     1  0.0000000  0.6508444  3
   1870   1869   1881   1883     1  0.0000000  0.6508444  3
   1871   1869   1881   3827     1  0.0000000  1.0460000  1
   1871   1869   1881   3827     1  0.0000000  0.0000000  3
   1871   1869   1881   1882     1  0.0000000  0.6508444  3
   1871   1869   1881   1883     1  0.0000000  0.6508444  3
   1873   1872   1878   3798     1  0.0000000  1.0460000  1
   1873   1872   1878   3798     1  0.0000000  0.0000000  3
   1873   1872   1878   1879     1  0.0000000  0.6508444  3
   1873   1872   1878   1880     1  0.0000000  0.6508444  3
   1874   1872   1878   3798     1  0.0000000  1.0460000  1
   1874   1872   1878   3798     1  0.0000000  0.0000000  3
   1874   1872   1878   1879     1  0.0000000  0.6508444  3
   1874   1872   1878   1880     1  0.0000000  0.6508444  3
   1878   3798   3789   3790     1  0.0000000  1.6038667  3
   1878   3798   3789   3791     1  0.0000000  1.6038667  3
   1879   1878   3798   3789     1  0.0000000  1.6038667  3
   1880   1878   3798   3789     1  0.0000000  1.6038667  3
   1881   3827   3818   3819     1  0.0000000  1.6038667  3
   1881   3827   3818   3820     1  0.0000000  1.6038667  3
   1882   1881   3827   3818     1  0.0000000  1.6038667  3
   1883   1881   3827   3818     1  0.0000000  1.6038667  3
   1885   1886   1898   1899     1  0.0000000  0.6508444  3
   1885   1886   1898   1900     1  0.0000000  0.6508444  3
   1885   1889   1901   1902     1  0.0000000  0.6508444  3
   1885   1889   1901   1903     1  0.0000000  0.6508444  3
   1885   1892   1895   1896     1  0.0000000  0.6508444  3
   1885   1892   1895   1897     1  0.0000000  0.6508444  3
   1886   1885   1889   1890     1  0.0000000  1.2552000  3
   1886   1885   1889   1891     1  0.0000000  1.2552000  3
   1886   1885   1892   1893     1  0.0000000  1.2552000  3
   1886   1885   1892   1894     1  0.0000000  1.2552000  3
   1886   1898   1910   1911     1  0.0000000  0.6508444  3
   1886   1898   1910   1912     1  0.0000000  0.6508444  3
   1887   1886   1885   1889     1  0.0000000  1.2552000  3
   1887   1886   1885   1892     1  0.0000000  1.2552000  3
   1887   1886   1898   1910     1  0.0000000  0.6508444  3
   1887   1886   1898   1899     1  0.0000000  0.6508444  3
   1887   1886   1898   1900     1  0.0000000  0.6508444  3
   1888   1886   1885   1889     1  0.0000000  1.2552000  3
   1888   1886   1885   1892     1  0.0000000  1.2552000  3
   1888   1886   1898   1910     1  0.0000000  0.6508444  3
   1888   1886   1898   1899     1  0.0000000  0.6508444  3
   1888   1886   1898   1900     1  0.0000000  0.6508444  3
   1889   1885   1892   1893     1  0.0000000  1.2552000  3
   1889   1885   1892   1894     1  0.0000000  1.2552000  3
   1889   1901   1907   1908     1  0.0000000  0.6508444  3
   1889   1901   1907   1909     1  0.0000000  0.6508444  3
   1890   1889   1885   1892     1  0.0000000  1.2552000  3
   1890   1889   1901   1907     1  0.0000000  0.6508444  3
   1890   1889   1901   1902     1  0.0000000  0.6508444  3
   1890   1889   1901   1903     1  0.0000000  0.6508444  3
   1891   1889   1885   1892     1  0.0000000  1.2552000  3
   1891   1889   1901   1907     1  0.0000000  0.6508444  3
   1891   1889   1901   1902     1  0.0000000  0.6508444  3
   1891   1889   1901   1903     1  0.0000000  0.6508444  3
   1892   1895   1904   1905     1  0.0000000  0.6508444  3
   1892   1895   1904   1906     1  0.0000000  0.6508444  3
   1893   1892   1895   1904     1  0.0000000  0.6508444  3
   1893   1892   1895   1896     1  0.0000000  0.6508444  3
   1893   1892   1895   1897     1  0.0000000  0.6508444  3
   1894   1892   1895   1904     1  0.0000000  0.6508444  3
   1894   1892   1895   1896     1  0.0000000  0.6508444  3
   1894   1892   1895   1897     1  0.0000000  0.6508444  3
   1896   1895   1904   1913     1  0.0000000  1.0460000  1
   1896   1895   1904   1913     1  0.0000000  0.0000000  3
   1896   1895   1904   1905     1  0.0000000  0.6508444  3
   1896   1895   1904   1906     1  0.0000000  0.6508444  3
   1897   1895   1904   1913     1  0.0000000  1.0460000  1
   1897   1895   1904   1913     1  0.0000000  0.0000000  3
   1897   1895   1904   1905     1  0.0000000  0.6508444  3
   1897   1895   1904   1906     1  0.0000000  0.6508444  3
   1899   1898   1910   3885     1  0.0000000  1.0460000  1
   1899   1898   1910   3885     1  0.0000000  0.0000000  3
   1899   1898   1910   1911     1  0.0000000  0.6508444  3
   1899   1898   1910   1912     1  0.0000000  0.6508444  3
   1900   1898   1910   3885     1  0.0000000  1.0460000  1
   1900   1898   1910   3885     1  0.0000000  0.0000000  3
   1900   1898   1910   1911     1  0.0000000  0.6508444  3
   1900   1898   1910   1912     1  0.0000000  0.6508444  3
   1902   1901   1907   3856     1  0.0000000  1.0460000  1
   1902   1901   1907   3856     1  0.0000000  0.0000000  3
   1902   1901   1907   1908     1  0.0000000  0.6508444  3
   1902   1901   1907   1909     1  0.0000000  0.6508444  3
   1903   1901   1907   3856     1  0.0000000  1.0460000  1
   1903   1901   1907   3856     1  0.0000000  0.0000000  3
   1903   1901   1907   1908     1  0.0000000  0.6508444  3
   1903   1901   1907   1909     1  0.0000000  0.6508444  3
   1907   3856   3847   3848     1  0.0000000  1.6038667  3
   1907   3856   3847   3849     1  0.0000000  1.6038667  3
   1908   1907   3856   3847     1  0.0000000  1.6038667  3
   1909   1907   3856   3847     1  0.0000000  1.6038667  3
   1910   3885   3876   3877     1  0.0000000  1.6038667  3
   1910   3885   3876   3878     1  0.0000000  1.6038667  3
   1911   1910   3885   3876     1  0.0000000  1.6038667  3
   1912   1910   3885   3876     1  0.0000000  1.6038667  3
   1914   1915   1927   1928     1  0.0000000  0.6508444  3
   1914   1915   1927   1929     1  0.0000000  0.6508444  3
   1914   1918   1930   1931     1  0.0000000  0.6508444  3
   1914   1918   1930   1932     1  0.0000000  0.6508444  3
   1914   1921   1924   1925     1  0.0000000  0.6508444  3
   1914   1921   1924   1926     1  0.0000000  0.6508444  3
   1915   1914   1918   1919     1  0.0000000  1.2552000  3
   1915   1914   1918   1920     1  0.0000000  1.2552000  3
   1915   1914   1921   1922     1  0.0000000  1.2552000  3
   1915   1914   1921   1923     1  0.0000000  1.2552000  3
   1915   1927   1939   1940     1  0.0000000  0.6508444  3
   1915   1927   1939   1941     1  0.0000000  0.6508444  3
   1916   1915   1914   1918     1  0.0000000  1.2552000  3
   1916   1915   1914   1921     1  0.0000000  1.2552000  3
   1916   1915   1927   1939     1  0.0000000  0.6508444  3
   1916   1915   1927   1928     1  0.0000000  0.6508444  3
   1916   1915   1927   1929     1  0.0000000  0.6508444  3
   1917   1915   1914   1918     1  0.0000000  1.2552000  3
   1917   1915   1914   1921     1  0.0000000  1.2552000  3
   1917   1915   1927   1939     1  0.0000000  0.6508444  3
   1917   1915   1927   1928     1  0.0000000  0.6508444  3
   1917   1915   1927   1929     1  0.0000000  0.6508444  3
   1918   1914   1921   1922     1  0.0000000  1.2552000  3
   1918   1914   1921   1923     1  0.0000000  1.2552000  3
   1918   1930   1936   1937     1  0.0000000  0.6508444  3
   1918   1930   1936   1938     1  0.0000000  0.6508444  3
   1919   1918   1914   1921     1  0.0000000  1.2552000  3
   1919   1918   1930   1936     1  0.0000000  0.6508444  3
   1919   1918   1930   1931     1  0.0000000  0.6508444  3
   1919   1918   1930   1932     1  0.0000000  0.6508444  3
   1920   1918   1914   1921     1  0.0000000  1.2552000  3
   1920   1918   1930   1936     1  0.0000000  0.6508444  3
   1920   1918   1930   1931     1  0.0000000  0.6508444  3
   1920   1918   1930   1932     1  0.0000000  0.6508444  3
   1921   1924   1933   1934     1  0.0000000  0.6508444  3
   1921   1924   1933   1935     1  0.0000000  0.6508444  3
   1922   1921   1924   1933     1  0.0000000  0.6508444  3
   1922   1921   1924   1925     1  0.0000000  0.6508444  3
   1922   1921   1924   1926     1  0.0000000  0.6508444  3
   1923   1921   1924   1933     1  0.0000000  0.6508444  3
   1923   1921   1924   1925     1  0.0000000  0.6508444  3
   1923   1921   1924   1926     1  0.0000000  0.6508444  3
   1925   1924   1933   1942     1  0.0000000  1.0460000  1
   1925   1924   1933   1942     1  0.0000000  0.0000000  3
   1925   1924   1933   1934     1  0.0000000  0.6508444  3
   1925   1924   1933   1935     1  0.0000000  0.6508444  3
   1926   1924   1933   1942     1  0.0000000  1.0460000  1
   1926   1924   1933   1942     1  0.0000000  0.0000000  3
   1926   1924   1933   1934     1  0.0000000  0.6508444  3
   1926   1924   1933   1935     1  0.0000000  0.6508444  3
   1928   1927   1939   3943     1  0.0000000  1.0460000  1
   1928   1927   1939   3943     1  0.0000000  0.0000000  3
   1928   1927   1939   1940     1  0.0000000  0.6508444  3
   1928   1927   1939   1941     1  0.0000000  0.6508444  3
   1929   1927   1939   3943     1  0.0000000  1.0460000  1
   1929   1927   1939   3943     1  0.0000000  0.0000000  3
   1929   1927   1939   1940     1  0.0000000  0.6508444  3
   1929   1927   1939   1941     1  0.0000000  0.6508444  3
   1931   1930   1936   3914     1  0.0000000  1.0460000  1
   1931   1930   1936   3914     1  0.0000000  0.0000000  3
   1931   1930   1936   1937     1  0.0000000  0.6508444  3
   1931   1930   1936   1938     1  0.0000000  0.6508444  3
   1932   1930   1936   3914     1  0.0000000  1.0460000  1
   1932   1930   1936   3914     1  0.0000000  0.0000000  3
   1932   1930   1936   1937     1  0.0000000  0.6508444  3
   1932   1930   1936   1938     1  0.0000000  0.6508444  3
   1936   3914   3905   3906     1  0.0000000  1.6038667  3
   1936   3914   3905   3907     1  0.0000000  1.6038667  3
   1937   1936   3914   3905     1  0.0000000  1.6038667  3
   1938   1936   3914   3905     1  0.0000000  1.6038667  3
   1939   3943   3934   3935     1  0.0000000  1.6038667  3
   1939   3943   3934   3936     1  0.0000000  1.6038667  3
   1940   1939   3943   3934     1  0.0000000  1.6038667  3
   1941   1939   3943   3934     1  0.0000000  1.6038667  3
   1943   1944   1956   1957     1  0.0000000  0.6508444  3
   1943   1944   1956   1958     1  0.0000000  0.6508444  3
   1943   1947   1959   1960     1  0.0000000  0.6508444  3
   1943   1947   1959   1961     1  0.0000000  0.6508444  3
   1943   1950   1953   1954     1  0.0000000  0.6508444  3
   1943   1950   1953   1955     1  0.0000000  0.6508444  3
   1944   1943   1947   1948     1  0.0000000  1.2552000  3
   1944   1943   1947   1949     1  0.0000000  1.2552000  3
   1944   1943   1950   1951     1  0.0000000  1.2552000  3
   1944   1943   1950   1952     1  0.0000000  1.2552000  3
   1944   1956   1968   1969     1  0.0000000  0.6508444  3
   1944   1956   1968   1970     1  0.0000000  0.6508444  3
   1945   1944   1943   1947     1  0.0000000  1.2552000  3
   1945   1944   1943   1950     1  0.0000000  1.2552000  3
   1945   1944   1956   1968     1  0.0000000  0.6508444  3
   1945   1944   1956   1957     1  0.0000000  0.6508444  3
   1945   1944   1956   1958     1  0.0000000  0.6508444  3
   1946   1944   1943   1947     1  0.0000000  1.2552000  3
   1946   1944   1943   1950     1  0.0000000  1.2552000  3
   1946   1944   1956   1968     1  0.0000000  0.6508444  3
   1946   1944   1956   1957     1  0.0000000  0.6508444  3
   1946   1944   1956   1958     1  0.0000000  0.6508444  3
   1947   1943   1950   1951     1  0.0000000  1.2552000  3
   1947   1943   1950   1952     1  0.0000000  1.2552000  3
   1947   1959   1965   1966     1  0.0000000  0.6508444  3
   1947   1959   1965   1967     1  0.0000000  0.6508444  3
   1948   1947   1943   1950     1  0.0000000  1.2552000  3
   1948   1947   1959   1965     1  0.0000000  0.6508444  3
   1948   1947   1959   1960     1  0.0000000  0.6508444  3
   1948   1947   1959   1961     1  0.0000000  0.6508444  3
   1949   1947   1943   1950     1  0.0000000  1.2552000  3
   1949   1947   1959   1965     1  0.0000000  0.6508444  3
   1949   1947   1959   1960     1  0.0000000  0.6508444  3
   1949   1947   1959   1961     1  0.0000000  0.6508444  3
   1950   1953   1962   1963     1  0.0000000  0.6508444  3
   1950   1953   1962   1964     1  0.0000000  0.6508444  3
   1951   1950   1953   1962     1  0.0000000  0.6508444  3
   1951   1950   1953   1954     1  0.0000000  0.6508444  3
   1951   1950   1953   1955     1  0.0000000  0.6508444  3
   1952   1950   1953   1962     1  0.0000000  0.6508444  3
   1952   1950   1953   1954     1  0.0000000  0.6508444  3
   1952   1950   1953   1955     1  0.0000000  0.6508444  3
   1954   1953   1962   1971     1  0.0000000  1.0460000  1
   1954   1953   1962   1971     1  0.0000000  0.0000000  3
   1954   1953   1962   1963     1  0.0000000  0.6508444  3
   1954   1953   1962   1964     1  0.0000000  0.6508444  3
   1955   1953   1962   1971     1  0.0000000  1.0460000  1
   1955   1953   1962   1971     1  0.0000000  0.0000000  3
   1955   1953   1962   1963     1  0.0000000  0.6508444  3
   1955   1953   1962   1964     1  0.0000000  0.6508444  3
   1957   1956   1968   4001     1  0.0000000  1.0460000  1
   1957   1956   1968   4001     1  0.0000000  0.0000000  3
   1957   1956   1968   1969     1  0.0000000  0.6508444  3
   1957   1956   1968   1970     1  0.0000000  0.6508444  3
   1958   1956   1968   4001     1  0.0000000  1.0460000  1
   1958   1956   1968   4001     1  0.0000000  0.0000000  3
   1958   1956   1968   1969     1  0.0000000  0.6508444  3
   1958   1956   1968   1970     1  0.0000000  0.6508444  3
   1960   1959   1965   3972     1  0.0000000  1.0460000  1
   1960   1959   1965   3972     1  0.0000000  0.0000000  3
   1960   1959   1965   1966     1  0.0000000  0.6508444  3
   1960   1959   1965   1967     1  0.0000000  0.6508444  3
   1961   1959   1965   3972     1  0.0000000  1.0460000  1
   1961   1959   1965   3972     1  0.0000000  0.0000000  3
   1961   1959   1965   1966     1  0.0000000  0.6508444  3
   1961   1959   1965   1967     1  0.0000000  0.6508444  3
   1965   3972   3963   3964     1  0.0000000  1.6038667  3
   1965   3972   3963   3965     1  0.0000000  1.6038667  3
   1966   1965   3972   3963     1  0.0000000  1.6038667  3
   1967   1965   3972   3963     1  0.0000000  1.6038667  3
   1968   4001   3992   3993     1  0.0000000  1.6038667  3
   1968   4001   3992   3994     1  0.0000000  1.6038667  3
   1969   1968   4001   3992     1  0.0000000  1.6038667  3
   1970   1968   4001   3992     1  0.0000000  1.6038667  3
   1972   1973   1985   1986     1  0.0000000  0.6508444  3
   1972   1973   1985   1987     1  0.0000000  0.6508444  3
   1972   1976   1988   1989     1  0.0000000  0.6508444  3
   1972   1976   1988   1990     1  0.0000000  0.6508444  3
   1972   1979   1982   1983     1  0.0000000  0.6508444  3
   1972   1979   1982   1984     1  0.0000000  0.6508444  3
   1973   1972   1976   1977     1  0.0000000  1.2552000  3
   1973   1972   1976   1978     1  0.0000000  1.2552000  3
   1973   1972   1979   1980     1  0.0000000  1.2552000  3
   1973   1972   1979   1981     1  0.0000000  1.2552000  3
   1973   1985   1997   1998     1  0.0000000  0.6508444  3
   1973   1985   1997   1999     1  0.0000000  0.6508444  3
   1974   1973   1972   1976     1  0.0000000  1.2552000  3
   1974   1973   1972   1979     1  0.0000000  1.2552000  3
   1974   1973   1985   1997     1  0.0000000  0.6508444  3
   1974   1973   1985   1986     1  0.0000000  0.6508444  3
   1974   1973   1985   1987     1  0.0000000  0.6508444  3
   1975   1973   1972   1976     1  0.0000000  1.2552000  3
   1975   1973   1972   1979     1  0.0000000  1.2552000  3
   1975   1973   1985   1997     1  0.0000000  0.6508444  3
   1975   1973   1985   1986     1  0.0000000  0.6508444  3
   1975   1973   1985   1987     1  0.0000000  0.6508444  3
   1976   1972   1979   1980     1  0.0000000  1.2552000  3
   1976   1972   1979   1981     1  0.0000000  1.2552000  3
   1976   1988   1994   1995     1  0.0000000  0.6508444  3
   1976   1988   1994   1996     1  0.0000000  0.6508444  3
   1977   1976   1972   1979     1  0.0000000  1.2552000  3
   1977   1976   1988   1994     1  0.0000000  0.6508444  3
   1977   1976   1988   1989     1  0.0000000  0.6508444  3
   1977   1976   1988   1990     1  0.0000000  0.6508444  3
   1978   1976   1972   1979     1  0.0000000  1.2552000  3
   1978   1976   1988   1994     1  0.0000000  0.6508444  3
   1978   1976   1988   1989     1  0.0000000  0.6508444  3
   1978   1976   1988   1990     1  0.0000000  0.6508444  3
   1979   1982   1991   1992     1  0.0000000  0.6508444  3
   1979   1982   1991   1993     1  0.0000000  0.6508444  3
   1980   1979   1982   1991     1  0.0000000  0.6508444  3
   1980   1979   1982   1983     1  0.0000000  0.6508444  3
   1980   1979   1982   1984     1  0.0000000  0.6508444  3
   1981   1979   1982   1991     1  0.0000000  0.6508444  3
   1981   1979   1982   1983     1  0.0000000  0.6508444  3
   1981   1979   1982   1984     1  0.0000000  0.6508444  3
   1983   1982   1991   2000     1  0.0000000  1.0460000  1
   1983   1982   1991   2000     1  0.0000000  0.0000000  3
   1983   1982   1991   1992     1  0.0000000  0.6508444  3
   1983   1982   1991   1993     1  0.0000000  0.6508444  3
   1984   1982   1991   2000     1  0.0000000  1.0460000  1
   1984   1982   1991   2000     1  0.0000000  0.0000000  3
   1984   1982   1991   1992     1  0.0000000  0.6508444  3
   1984   1982   1991   1993     1  0.0000000  0.6508444  3
   1986   1985   1997   4059     1  0.0000000  1.0460000  1
   1986   1985   1997   4059     1  0.0000000  0.0000000  3
   1986   1985   1997   1998     1  0.0000000  0.6508444  3
   1986   1985   1997   1999     1  0.0000000  0.6508444  3
   1987   1985   1997   4059     1  0.0000000  1.0460000  1
   1987   1985   1997   4059     1  0.0000000  0.0000000  3
   1987   1985   1997   1998     1  0.0000000  0.6508444  3
   1987   1985   1997   1999     1  0.0000000  0.6508444  3
   1989   1988   1994   4030     1  0.0000000  1.0460000  1
   1989   1988   1994   4030     1  0.0000000  0.0000000  3
   1989   1988   1994   1995     1  0.0000000  0.6508444  3
   1989   1988   1994   1996     1  0.0000000  0.6508444  3
   1990   1988   1994   4030     1  0.0000000  1.0460000  1
   1990   1988   1994   4030     1  0.0000000  0.0000000  3
   1990   1988   1994   1995     1  0.0000000  0.6508444  3
   1990   1988   1994   1996     1  0.0000000  0.6508444  3
   1994   4030   4021   4022     1  0.0000000  1.6038667  3
   1994   4030   4021   4023     1  0.0000000  1.6038667  3
   1995   1994   4030   4021     1  0.0000000  1.6038667  3
   1996   1994   4030   4021     1  0.0000000  1.6038667  3
   1997   4059   4050   4051     1  0.0000000  1.6038667  3
   1997   4059   4050   4052     1  0.0000000  1.6038667  3
   1998   1997   4059   4050     1  0.0000000  1.6038667  3
   1999   1997   4059   4050     1  0.0000000  1.6038667  3
   2001   2002   2014   2015     1  0.0000000  0.6508444  3
   2001   2002   2014   2016     1  0.0000000  0.6508444  3
   2001   2005   2017   2018     1  0.0000000  0.6508444  3
   2001   2005   2017   2019     1  0.0000000  0.6508444  3
   2001   2008   2011   2012     1  0.0000000  0.6508444  3
   2001   2008   2011   2013     1  0.0000000  0.6508444  3
   2002   2001   2005   2006     1  0.0000000  1.2552000  3
   2002   2001   2005   2007     1  0.0000000  1.2552000  3
   2002   2001   2008   2009     1  0.0000000  1.2552000  3
   2002   2001   2008   2010     1  0.0000000  1.2552000  3
   2002   2014   2026   2027     1  0.0000000  0.6508444  3
   2002   2014   2026   2028     1  0.0000000  0.6508444  3
   2003   2002   2001   2005     1  0.0000000  1.2552000  3
   2003   2002   2001   2008     1  0.0000000  1.2552000  3
   2003   2002   2014   2026     1  0.0000000  0.6508444  3
   2003   2002   2014   2015     1  0.0000000  0.6508444  3
   2003   2002   2014   2016     1  0.0000000  0.6508444  3
   2004   2002   2001   2005     1  0.0000000  1.2552000  3
   2004   2002   2001   2008     1  0.0000000  1.2552000  3
   2004   2002   2014   2026     1  0.0000000  0.6508444  3
   2004   2002   2014   2015     1  0.0000000  0.6508444  3
   2004   2002   2014   2016     1  0.0000000  0.6508444  3
   2005   2001   2008   2009     1  0.0000000  1.2552000  3
   2005   2001   2008   2010     1  0.0000000  1.2552000  3
   2005   2017   2023   2024     1  0.0000000  0.6508444  3
   2005   2017   2023   2025     1  0.0000000  0.6508444  3
   2006   2005   2001   2008     1  0.0000000  1.2552000  3
   2006   2005   2017   2023     1  0.0000000  0.6508444  3
   2006   2005   2017   2018     1  0.0000000  0.6508444  3
   2006   2005   2017   2019     1  0.0000000  0.6508444  3
   2007   2005   2001   2008     1  0.0000000  1.2552000  3
   2007   2005   2017   2023     1  0.0000000  0.6508444  3
   2007   2005   2017   2018     1  0.0000000  0.6508444  3
   2007   2005   2017   2019     1  0.0000000  0.6508444  3
   2008   2011   2020   2021     1  0.0000000  0.6508444  3
   2008   2011   2020   2022     1  0.0000000  0.6508444  3
   2009   2008   2011   2020     1  0.0000000  0.6508444  3
   2009   2008   2011   2012     1  0.0000000  0.6508444  3
   2009   2008   2011   2013     1  0.0000000  0.6508444  3
   2010   2008   2011   2020     1  0.0000000  0.6508444  3
   2010   2008   2011   2012     1  0.0000000  0.6508444  3
   2010   2008   2011   2013     1  0.0000000  0.6508444  3
   2012   2011   2020   2029     1  0.0000000  1.0460000  1
   2012   2011   2020   2029     1  0.0000000  0.0000000  3
   2012   2011   2020   2021     1  0.0000000  0.6508444  3
   2012   2011   2020   2022     1  0.0000000  0.6508444  3
   2013   2011   2020   2029     1  0.0000000  1.0460000  1
   2013   2011   2020   2029     1  0.0000000  0.0000000  3
   2013   2011   2020   2021     1  0.0000000  0.6508444  3
   2013   2011   2020   2022     1  0.0000000  0.6508444  3
   2015   2014   2026   4117     1  0.0000000  1.0460000  1
   2015   2014   2026   4117     1  0.0000000  0.0000000  3
   2015   2014   2026   2027     1  0.0000000  0.6508444  3
   2015   2014   2026   2028     1  0.0000000  0.6508444  3
   2016   2014   2026   4117     1  0.0000000  1.0460000  1
   2016   2014   2026   4117     1  0.0000000  0.0000000  3
   2016   2014   2026   2027     1  0.0000000  0.6508444  3
   2016   2014   2026   2028     1  0.0000000  0.6508444  3
   2018   2017   2023   4088     1  0.0000000  1.0460000  1
   2018   2017   2023   4088     1  0.0000000  0.0000000  3
   2018   2017   2023   2024     1  0.0000000  0.6508444  3
   2018   2017   2023   2025     1  0.0000000  0.6508444  3
   2019   2017   2023   4088     1  0.0000000  1.0460000  1
   2019   2017   2023   4088     1  0.0000000  0.0000000  3
   2019   2017   2023   2024     1  0.0000000  0.6508444  3
   2019   2017   2023   2025     1  0.0000000  0.6508444  3
   2023   4088   4079   4080     1  0.0000000  1.6038667  3
   2023   4088   4079   4081     1  0.0000000  1.6038667  3
   2024   2023   4088   4079     1  0.0000000  1.6038667  3
   2025   2023   4088   4079     1  0.0000000  1.6038667  3
   2026   4117   4108   4109     1  0.0000000  1.6038667  3
   2026   4117   4108   4110     1  0.0000000  1.6038667  3
   2027   2026   4117   4108     1  0.0000000  1.6038667  3
   2028   2026   4117   4108     1  0.0000000  1.6038667  3
   2030   2031   2043   2044     1  0.0000000  0.6508444  3
   2030   2031   2043   2045     1  0.0000000  0.6508444  3
   2030   2034   2046   2047     1  0.0000000  0.6508444  3
   2030   2034   2046   2048     1  0.0000000  0.6508444  3
   2030   2037   2040   2041     1  0.0000000  0.6508444  3
   2030   2037   2040   2042     1  0.0000000  0.6508444  3
   2031   2030   2034   2035     1  0.0000000  1.2552000  3
   2031   2030   2034   2036     1  0.0000000  1.2552000  3
   2031   2030   2037   2038     1  0.0000000  1.2552000  3
   2031   2030   2037   2039     1  0.0000000  1.2552000  3
   2031   2043   2055   2056     1  0.0000000  0.6508444  3
   2031   2043   2055   2057     1  0.0000000  0.6508444  3
   2032   2031   2030   2034     1  0.0000000  1.2552000  3
   2032   2031   2030   2037     1  0.0000000  1.2552000  3
   2032   2031   2043   2055     1  0.0000000  0.6508444  3
   2032   2031   2043   2044     1  0.0000000  0.6508444  3
   2032   2031   2043   2045     1  0.0000000  0.6508444  3
   2033   2031   2030   2034     1  0.0000000  1.2552000  3
   2033   2031   2030   2037     1  0.0000000  1.2552000  3
   2033   2031   2043   2055     1  0.0000000  0.6508444  3
   2033   2031   2043   2044     1  0.0000000  0.6508444  3
   2033   2031   2043   2045     1  0.0000000  0.6508444  3
   2034   2030   2037   2038     1  0.0000000  1.2552000  3
   2034   2030   2037   2039     1  0.0000000  1.2552000  3
   2034   2046   2052   2053     1  0.0000000  0.6508444  3
   2034   2046   2052   2054     1  0.0000000  0.6508444  3
   2035   2034   2030   2037     1  0.0000000  1.2552000  3
   2035   2034   2046   2052     1  0.0000000  0.6508444  3
   2035   2034   2046   2047     1  0.0000000  0.6508444  3
   2035   2034   2046   2048     1  0.0000000  0.6508444  3
   2036   2034   2030   2037     1  0.0000000  1.2552000  3
   2036   2034   2046   2052     1  0.0000000  0.6508444  3
   2036   2034   2046   2047     1  0.0000000  0.6508444  3
   2036   2034   2046   2048     1  0.0000000  0.6508444  3
   2037   2040   2049   2050     1  0.0000000  0.6508444  3
   2037   2040   2049   2051     1  0.0000000  0.6508444  3
   2038   2037   2040   2049     1  0.0000000  0.6508444  3
   2038   2037   2040   2041     1  0.0000000  0.6508444  3
   2038   2037   2040   2042     1  0.0000000  0.6508444  3
   2039   2037   2040   2049     1  0.0000000  0.6508444  3
   2039   2037   2040   2041     1  0.0000000  0.6508444  3
   2039   2037   2040   2042     1  0.0000000  0.6508444  3
   2041   2040   2049   2058     1  0.0000000  1.0460000  1
   2041   2040   2049   2058     1  0.0000000  0.0000000  3
   2041   2040   2049   2050     1  0.0000000  0.6508444  3
   2041   2040   2049   2051     1  0.0000000  0.6508444  3
   2042   2040   2049   2058     1  0.0000000  1.0460000  1
   2042   2040   2049   2058     1  0.0000000  0.0000000  3
   2042   2040   2049   2050     1  0.0000000  0.6508444  3
   2042   2040   2049   2051     1  0.0000000  0.6508444  3
   2044   2043   2055   4175     1  0.0000000  1.0460000  1
   2044   2043   2055   4175     1  0.0000000  0.0000000  3
   2044   2043   2055   2056     1  0.0000000  0.6508444  3
   2044   2043   2055   2057     1  0.0000000  0.6508444  3
   2045   2043   2055   4175     1  0.0000000  1.0460000  1
   2045   2043   2055   4175     1  0.0000000  0.0000000  3
   2045   2043   2055   2056     1  0.0000000  0.6508444  3
   2045   2043   2055   2057     1  0.0000000  0.6508444  3
   2047   2046   2052   4146     1  0.0000000  1.0460000  1
   2047   2046   2052   4146     1  0.0000000  0.0000000  3
   2047   2046   2052   2053     1  0.0000000  0.6508444  3
   2047   2046   2052   2054     1  0.0000000  0.6508444  3
   2048   2046   2052   4146     1  0.0000000  1.0460000  1
   2048   2046   2052   4146     1  0.0000000  0.0000000  3
   2048   2046   2052   2053     1  0.0000000  0.6508444  3
   2048   2046   2052   2054     1  0.0000000  0.6508444  3
   2052   4146   4137   4138     1  0.0000000  1.6038667  3
   2052   4146   4137   4139     1  0.0000000  1.6038667  3
   2053   2052   4146   4137     1  0.0000000  1.6038667  3
   2054   2052   4146   4137     1  0.0000000  1.6038667  3
   2055   4175   4166   4167     1  0.0000000  1.6038667  3
   2055   4175   4166   4168     1  0.0000000  1.6038667  3
   2056   2055   4175   4166     1  0.0000000  1.6038667  3
   2057   2055   4175   4166     1  0.0000000  1.6038667  3
   2059   2060   2072   2073     1  0.0000000  0.6508444  3
   2059   2060   2072   2074     1  0.0000000  0.6508444  3
   2059   2063   2075   2076     1  0.0000000  0.6508444  3
   2059   2063   2075   2077     1  0.0000000  0.6508444  3
   2059   2066   2069   2070     1  0.0000000  0.6508444  3
   2059   2066   2069   2071     1  0.0000000  0.6508444  3
   2060   2059   2063   2064     1  0.0000000  1.2552000  3
   2060   2059   2063   2065     1  0.0000000  1.2552000  3
   2060   2059   2066   2067     1  0.0000000  1.2552000  3
   2060   2059   2066   2068     1  0.0000000  1.2552000  3
   2060   2072   2084   2085     1  0.0000000  0.6508444  3
   2060   2072   2084   2086     1  0.0000000  0.6508444  3
   2061   2060   2059   2063     1  0.0000000  1.2552000  3
   2061   2060   2059   2066     1  0.0000000  1.2552000  3
   2061   2060   2072   2084     1  0.0000000  0.6508444  3
   2061   2060   2072   2073     1  0.0000000  0.6508444  3
   2061   2060   2072   2074     1  0.0000000  0.6508444  3
   2062   2060   2059   2063     1  0.0000000  1.2552000  3
   2062   2060   2059   2066     1  0.0000000  1.2552000  3
   2062   2060   2072   2084     1  0.0000000  0.6508444  3
   2062   2060   2072   2073     1  0.0000000  0.6508444  3
   2062   2060   2072   2074     1  0.0000000  0.6508444  3
   2063   2059   2066   2067     1  0.0000000  1.2552000  3
   2063   2059   2066   2068     1  0.0000000  1.2552000  3
   2063   2075   2081   2082     1  0.0000000  0.6508444  3
   2063   2075   2081   2083     1  0.0000000  0.6508444  3
   2064   2063   2059   2066     1  0.0000000  1.2552000  3
   2064   2063   2075   2081     1  0.0000000  0.6508444  3
   2064   2063   2075   2076     1  0.0000000  0.6508444  3
   2064   2063   2075   2077     1  0.0000000  0.6508444  3
   2065   2063   2059   2066     1  0.0000000  1.2552000  3
   2065   2063   2075   2081     1  0.0000000  0.6508444  3
   2065   2063   2075   2076     1  0.0000000  0.6508444  3
   2065   2063   2075   2077     1  0.0000000  0.6508444  3
   2066   2069   2078   2079     1  0.0000000  0.6508444  3
   2066   2069   2078   2080     1  0.0000000  0.6508444  3
   2067   2066   2069   2078     1  0.0000000  0.6508444  3
   2067   2066   2069   2070     1  0.0000000  0.6508444  3
   2067   2066   2069   2071     1  0.0000000  0.6508444  3
   2068   2066   2069   2078     1  0.0000000  0.6508444  3
   2068   2066   2069   2070     1  0.0000000  0.6508444  3
   2068   2066   2069   2071     1  0.0000000  0.6508444  3
   2070   2069   2078   2087     1  0.0000000  1.0460000  1
   2070   2069   2078   2087     1  0.0000000  0.0000000  3
   2070   2069   2078   2079     1  0.0000000  0.6508444  3
   2070   2069   2078   2080     1  0.0000000  0.6508444  3
   2071   2069   2078   2087     1  0.0000000  1.0460000  1
   2071   2069   2078   2087     1  0.0000000  0.0000000  3
   2071   2069   2078   2079     1  0.0000000  0.6508444  3
   2071   2069   2078   2080     1  0.0000000  0.6508444  3
   2073   2072   2084   4233     1  0.0000000  1.0460000  1
   2073   2072   2084   4233     1  0.0000000  0.0000000  3
   2073   2072   2084   2085     1  0.0000000  0.6508444  3
   2073   2072   2084   2086     1  0.0000000  0.6508444  3
   2074   2072   2084   4233     1  0.0000000  1.0460000  1
   2074   2072   2084   4233     1  0.0000000  0.0000000  3
   2074   2072   2084   2085     1  0.0000000  0.6508444  3
   2074   2072   2084   2086     1  0.0000000  0.6508444  3
   2076   2075   2081   4204     1  0.0000000  1.0460000  1
   2076   2075   2081   4204     1  0.0000000  0.0000000  3
   2076   2075   2081   2082     1  0.0000000  0.6508444  3
   2076   2075   2081   2083     1  0.0000000  0.6508444  3
   2077   2075   2081   4204     1  0.0000000  1.0460000  1
   2077   2075   2081   4204     1  0.0000000  0.0000000  3
   2077   2075   2081   2082     1  0.0000000  0.6508444  3
   2077   2075   2081   2083     1  0.0000000  0.6508444  3
   2081   4204   4195   4196     1  0.0000000  1.6038667  3
   2081   4204   4195   4197     1  0.0000000  1.6038667  3
   2082   2081   4204   4195     1  0.0000000  1.6038667  3
   2083   2081   4204   4195     1  0.0000000  1.6038667  3
   2084   4233   4224   4225     1  0.0000000  1.6038667  3
   2084   4233   4224   4226     1  0.0000000  1.6038667  3
   2085   2084   4233   4224     1  0.0000000  1.6038667  3
   2086   2084   4233   4224     1  0.0000000  1.6038667  3
   2088   2089   2101   2102     1  0.0000000  0.6508444  3
   2088   2089   2101   2103     1  0.0000000  0.6508444  3
   2088   2092   2104   2105     1  0.0000000  0.6508444  3
   2088   2092   2104   2106     1  0.0000000  0.6508444  3
   2088   2095   2098   2099     1  0.0000000  0.6508444  3
   2088   2095   2098   2100     1  0.0000000  0.6508444  3
   2089   2088   2092   2093     1  0.0000000  1.2552000  3
   2089   2088   2092   2094     1  0.0000000  1.2552000  3
   2089   2088   2095   2096     1  0.0000000  1.2552000  3
   2089   2088   2095   2097     1  0.0000000  1.2552000  3
   2089   2101   2113   2114     1  0.0000000  0.6508444  3
   2089   2101   2113   2115     1  0.0000000  0.6508444  3
   2090   2089   2088   2092     1  0.0000000  1.2552000  3
   2090   2089   2088   2095     1  0.0000000  1.2552000  3
   2090   2089   2101   2113     1  0.0000000  0.6508444  3
   2090   2089   2101   2102     1  0.0000000  0.6508444  3
   2090   2089   2101   2103     1  0.0000000  0.6508444  3
   2091   2089   2088   2092     1  0.0000000  1.2552000  3
   2091   2089   2088   2095     1  0.0000000  1.2552000  3
   2091   2089   2101   2113     1  0.0000000  0.6508444  3
   2091   2089   2101   2102     1  0.0000000  0.6508444  3
   2091   2089   2101   2103     1  0.0000000  0.6508444  3
   2092   2088   2095   2096     1  0.0000000  1.2552000  3
   2092   2088   2095   2097     1  0.0000000  1.2552000  3
   2092   2104   2110   2111     1  0.0000000  0.6508444  3
   2092   2104   2110   2112     1  0.0000000  0.6508444  3
   2093   2092   2088   2095     1  0.0000000  1.2552000  3
   2093   2092   2104   2110     1  0.0000000  0.6508444  3
   2093   2092   2104   2105     1  0.0000000  0.6508444  3
   2093   2092   2104   2106     1  0.0000000  0.6508444  3
   2094   2092   2088   2095     1  0.0000000  1.2552000  3
   2094   2092   2104   2110     1  0.0000000  0.6508444  3
   2094   2092   2104   2105     1  0.0000000  0.6508444  3
   2094   2092   2104   2106     1  0.0000000  0.6508444  3
   2095   2098   2107   2108     1  0.0000000  0.6508444  3
   2095   2098   2107   2109     1  0.0000000  0.6508444  3
   2096   2095   2098   2107     1  0.0000000  0.6508444  3
   2096   2095   2098   2099     1  0.0000000  0.6508444  3
   2096   2095   2098   2100     1  0.0000000  0.6508444  3
   2097   2095   2098   2107     1  0.0000000  0.6508444  3
   2097   2095   2098   2099     1  0.0000000  0.6508444  3
   2097   2095   2098   2100     1  0.0000000  0.6508444  3
   2099   2098   2107   2116     1  0.0000000  1.0460000  1
   2099   2098   2107   2116     1  0.0000000  0.0000000  3
   2099   2098   2107   2108     1  0.0000000  0.6508444  3
   2099   2098   2107   2109     1  0.0000000  0.6508444  3
   2100   2098   2107   2116     1  0.0000000  1.0460000  1
   2100   2098   2107   2116     1  0.0000000  0.0000000  3
   2100   2098   2107   2108     1  0.0000000  0.6508444  3
   2100   2098   2107   2109     1  0.0000000  0.6508444  3
   2102   2101   2113   4291     1  0.0000000  1.0460000  1
   2102   2101   2113   4291     1  0.0000000  0.0000000  3
   2102   2101   2113   2114     1  0.0000000  0.6508444  3
   2102   2101   2113   2115     1  0.0000000  0.6508444  3
   2103   2101   2113   4291     1  0.0000000  1.0460000  1
   2103   2101   2113   4291     1  0.0000000  0.0000000  3
   2103   2101   2113   2114     1  0.0000000  0.6508444  3
   2103   2101   2113   2115     1  0.0000000  0.6508444  3
   2105   2104   2110   4262     1  0.0000000  1.0460000  1
   2105   2104   2110   4262     1  0.0000000  0.0000000  3
   2105   2104   2110   2111     1  0.0000000  0.6508444  3
   2105   2104   2110   2112     1  0.0000000  0.6508444  3
   2106   2104   2110   4262     1  0.0000000  1.0460000  1
   2106   2104   2110   4262     1  0.0000000  0.0000000  3
   2106   2104   2110   2111     1  0.0000000  0.6508444  3
   2106   2104   2110   2112     1  0.0000000  0.6508444  3
   2110   4262   4253   4254     1  0.0000000  1.6038667  3
   2110   4262   4253   4255     1  0.0000000  1.6038667  3
   2111   2110   4262   4253     1  0.0000000  1.6038667  3
   2112   2110   4262   4253     1  0.0000000  1.6038667  3
   2113   4291   4282   4283     1  0.0000000  1.6038667  3
   2113   4291   4282   4284     1  0.0000000  1.6038667  3
   2114   2113   4291   4282     1  0.0000000  1.6038667  3
   2115   2113   4291   4282     1  0.0000000  1.6038667  3
   2117   2118   2130   2131     1  0.0000000  0.6508444  3
   2117   2118   2130   2132     1  0.0000000  0.6508444  3
   2117   2121   2133   2134     1  0.0000000  0.6508444  3
   2117   2121   2133   2135     1  0.0000000  0.6508444  3
   2117   2124   2127   2128     1  0.0000000  0.6508444  3
   2117   2124   2127   2129     1  0.0000000  0.6508444  3
   2118   2117   2121   2122     1  0.0000000  1.2552000  3
   2118   2117   2121   2123     1  0.0000000  1.2552000  3
   2118   2117   2124   2125     1  0.0000000  1.2552000  3
   2118   2117   2124   2126     1  0.0000000  1.2552000  3
   2118   2130   2142   2143     1  0.0000000  0.6508444  3
   2118   2130   2142   2144     1  0.0000000  0.6508444  3
   2119   2118   2117   2121     1  0.0000000  1.2552000  3
   2119   2118   2117   2124     1  0.0000000  1.2552000  3
   2119   2118   2130   2142     1  0.0000000  0.6508444  3
   2119   2118   2130   2131     1  0.0000000  0.6508444  3
   2119   2118   2130   2132     1  0.0000000  0.6508444  3
   2120   2118   2117   2121     1  0.0000000  1.2552000  3
   2120   2118   2117   2124     1  0.0000000  1.2552000  3
   2120   2118   2130   2142     1  0.0000000  0.6508444  3
   2120   2118   2130   2131     1  0.0000000  0.6508444  3
   2120   2118   2130   2132     1  0.0000000  0.6508444  3
   2121   2117   2124   2125     1  0.0000000  1.2552000  3
   2121   2117   2124   2126     1  0.0000000  1.2552000  3
   2121   2133   2139   2140     1  0.0000000  0.6508444  3
   2121   2133   2139   2141     1  0.0000000  0.6508444  3
   2122   2121   2117   2124     1  0.0000000  1.2552000  3
   2122   2121   2133   2139     1  0.0000000  0.6508444  3
   2122   2121   2133   2134     1  0.0000000  0.6508444  3
   2122   2121   2133   2135     1  0.0000000  0.6508444  3
   2123   2121   2117   2124     1  0.0000000  1.2552000  3
   2123   2121   2133   2139     1  0.0000000  0.6508444  3
   2123   2121   2133   2134     1  0.0000000  0.6508444  3
   2123   2121   2133   2135     1  0.0000000  0.6508444  3
   2124   2127   2136   2137     1  0.0000000  0.6508444  3
   2124   2127   2136   2138     1  0.0000000  0.6508444  3
   2125   2124   2127   2136     1  0.0000000  0.6508444  3
   2125   2124   2127   2128     1  0.0000000  0.6508444  3
   2125   2124   2127   2129     1  0.0000000  0.6508444  3
   2126   2124   2127   2136     1  0.0000000  0.6508444  3
   2126   2124   2127   2128     1  0.0000000  0.6508444  3
   2126   2124   2127   2129     1  0.0000000  0.6508444  3
   2128   2127   2136   2145     1  0.0000000  1.0460000  1
   2128   2127   2136   2145     1  0.0000000  0.0000000  3
   2128   2127   2136   2137     1  0.0000000  0.6508444  3
   2128   2127   2136   2138     1  0.0000000  0.6508444  3
   2129   2127   2136   2145     1  0.0000000  1.0460000  1
   2129   2127   2136   2145     1  0.0000000  0.0000000  3
   2129   2127   2136   2137     1  0.0000000  0.6508444  3
   2129   2127   2136   2138     1  0.0000000  0.6508444  3
   2131   2130   2142   4349     1  0.0000000  1.0460000  1
   2131   2130   2142   4349     1  0.0000000  0.0000000  3
   2131   2130   2142   2143     1  0.0000000  0.6508444  3
   2131   2130   2142   2144     1  0.0000000  0.6508444  3
   2132   2130   2142   4349     1  0.0000000  1.0460000  1
   2132   2130   2142   4349     1  0.0000000  0.0000000  3
   2132   2130   2142   2143     1  0.0000000  0.6508444  3
   2132   2130   2142   2144     1  0.0000000  0.6508444  3
   2134   2133   2139   4320     1  0.0000000  1.0460000  1
   2134   2133   2139   4320     1  0.0000000  0.0000000  3
   2134   2133   2139   2140     1  0.0000000  0.6508444  3
   2134   2133   2139   2141     1  0.0000000  0.6508444  3
   2135   2133   2139   4320     1  0.0000000  1.0460000  1
   2135   2133   2139   4320     1  0.0000000  0.0000000  3
   2135   2133   2139   2140     1  0.0000000  0.6508444  3
   2135   2133   2139   2141     1  0.0000000  0.6508444  3
   2139   4320   4311   4312     1  0.0000000  1.6038667  3
   2139   4320   4311   4313     1  0.0000000  1.6038667  3
   2140   2139   4320   4311     1  0.0000000  1.6038667  3
   2141   2139   4320   4311     1  0.0000000  1.6038667  3
   2142   4349   4340   4341     1  0.0000000  1.6038667  3
   2142   4349   4340   4342     1  0.0000000  1.6038667  3
   2143   2142   4349   4340     1  0.0000000  1.6038667  3
   2144   2142   4349   4340     1  0.0000000  1.6038667  3
   2146   2147   2159   2160     1  0.0000000  0.6508444  3
   2146   2147   2159   2161     1  0.0000000  0.6508444  3
   2146   2150   2162   2163     1  0.0000000  0.6508444  3
   2146   2150   2162   2164     1  0.0000000  0.6508444  3
   2146   2153   2156   2157     1  0.0000000  0.6508444  3
   2146   2153   2156   2158     1  0.0000000  0.6508444  3
   2147   2146   2150   2151     1  0.0000000  1.2552000  3
   2147   2146   2150   2152     1  0.0000000  1.2552000  3
   2147   2146   2153   2154     1  0.0000000  1.2552000  3
   2147   2146   2153   2155     1  0.0000000  1.2552000  3
   2147   2159   2171   2172     1  0.0000000  0.6508444  3
   2147   2159   2171   2173     1  0.0000000  0.6508444  3
   2148   2147   2146   2150     1  0.0000000  1.2552000  3
   2148   2147   2146   2153     1  0.0000000  1.2552000  3
   2148   2147   2159   2171     1  0.0000000  0.6508444  3
   2148   2147   2159   2160     1  0.0000000  0.6508444  3
   2148   2147   2159   2161     1  0.0000000  0.6508444  3
   2149   2147   2146   2150     1  0.0000000  1.2552000  3
   2149   2147   2146   2153     1  0.0000000  1.2552000  3
   2149   2147   2159   2171     1  0.0000000  0.6508444  3
   2149   2147   2159   2160     1  0.0000000  0.6508444  3
   2149   2147   2159   2161     1  0.0000000  0.6508444  3
   2150   2146   2153   2154     1  0.0000000  1.2552000  3
   2150   2146   2153   2155     1  0.0000000  1.2552000  3
   2150   2162   2168   2169     1  0.0000000  0.6508444  3
   2150   2162   2168   2170     1  0.0000000  0.6508444  3
   2151   2150   2146   2153     1  0.0000000  1.2552000  3
   2151   2150   2162   2168     1  0.0000000  0.6508444  3
   2151   2150   2162   2163     1  0.0000000  0.6508444  3
   2151   2150   2162   2164     1  0.0000000  0.6508444  3
   2152   2150   2146   2153     1  0.0000000  1.2552000  3
   2152   2150   2162   2168     1  0.0000000  0.6508444  3
   2152   2150   2162   2163     1  0.0000000  0.6508444  3
   2152   2150   2162   2164     1  0.0000000  0.6508444  3
   2153   2156   2165   2166     1  0.0000000  0.6508444  3
   2153   2156   2165   2167     1  0.0000000  0.6508444  3
   2154   2153   2156   2165     1  0.0000000  0.6508444  3
   2154   2153   2156   2157     1  0.0000000  0.6508444  3
   2154   2153   2156   2158     1  0.0000000  0.6508444  3
   2155   2153   2156   2165     1  0.0000000  0.6508444  3
   2155   2153   2156   2157     1  0.0000000  0.6508444  3
   2155   2153   2156   2158     1  0.0000000  0.6508444  3
   2157   2156   2165   2174     1  0.0000000  1.0460000  1
   2157   2156   2165   2174     1  0.0000000  0.0000000  3
   2157   2156   2165   2166     1  0.0000000  0.6508444  3
   2157   2156   2165   2167     1  0.0000000  0.6508444  3
   2158   2156   2165   2174     1  0.0000000  1.0460000  1
   2158   2156   2165   2174     1  0.0000000  0.0000000  3
   2158   2156   2165   2166     1  0.0000000  0.6508444  3
   2158   2156   2165   2167     1  0.0000000  0.6508444  3
   2160   2159   2171   4407     1  0.0000000  1.0460000  1
   2160   2159   2171   4407     1  0.0000000  0.0000000  3
   2160   2159   2171   2172     1  0.0000000  0.6508444  3
   2160   2159   2171   2173     1  0.0000000  0.6508444  3
   2161   2159   2171   4407     1  0.0000000  1.0460000  1
   2161   2159   2171   4407     1  0.0000000  0.0000000  3
   2161   2159   2171   2172     1  0.0000000  0.6508444  3
   2161   2159   2171   2173     1  0.0000000  0.6508444  3
   2163   2162   2168   4378     1  0.0000000  1.0460000  1
   2163   2162   2168   4378     1  0.0000000  0.0000000  3
   2163   2162   2168   2169     1  0.0000000  0.6508444  3
   2163   2162   2168   2170     1  0.0000000  0.6508444  3
   2164   2162   2168   4378     1  0.0000000  1.0460000  1
   2164   2162   2168   4378     1  0.0000000  0.0000000  3
   2164   2162   2168   2169     1  0.0000000  0.6508444  3
   2164   2162   2168   2170     1  0.0000000  0.6508444  3
   2168   4378   4369   4370     1  0.0000000  1.6038667  3
   2168   4378   4369   4371     1  0.0000000  1.6038667  3
   2169   2168   4378   4369     1  0.0000000  1.6038667  3
   2170   2168   4378   4369     1  0.0000000  1.6038667  3
   2171   4407   4398   4399     1  0.0000000  1.6038667  3
   2171   4407   4398   4400     1  0.0000000  1.6038667  3
   2172   2171   4407   4398     1  0.0000000  1.6038667  3
   2173   2171   4407   4398     1  0.0000000  1.6038667  3
   2175   2176   2188   2189     1  0.0000000  0.6508444  3
   2175   2176   2188   2190     1  0.0000000  0.6508444  3
   2175   2179   2191   2192     1  0.0000000  0.6508444  3
   2175   2179   2191   2193     1  0.0000000  0.6508444  3
   2175   2182   2185   2186     1  0.0000000  0.6508444  3
   2175   2182   2185   2187     1  0.0000000  0.6508444  3
   2176   2175   2179   2180     1  0.0000000  1.2552000  3
   2176   2175   2179   2181     1  0.0000000  1.2552000  3
   2176   2175   2182   2183     1  0.0000000  1.2552000  3
   2176   2175   2182   2184     1  0.0000000  1.2552000  3
   2176   2188   2200   2201     1  0.0000000  0.6508444  3
   2176   2188   2200   2202     1  0.0000000  0.6508444  3
   2177   2176   2175   2179     1  0.0000000  1.2552000  3
   2177   2176   2175   2182     1  0.0000000  1.2552000  3
   2177   2176   2188   2200     1  0.0000000  0.6508444  3
   2177   2176   2188   2189     1  0.0000000  0.6508444  3
   2177   2176   2188   2190     1  0.0000000  0.6508444  3
   2178   2176   2175   2179     1  0.0000000  1.2552000  3
   2178   2176   2175   2182     1  0.0000000  1.2552000  3
   2178   2176   2188   2200     1  0.0000000  0.6508444  3
   2178   2176   2188   2189     1  0.0000000  0.6508444  3
   2178   2176   2188   2190     1  0.0000000  0.6508444  3
   2179   2175   2182   2183     1  0.0000000  1.2552000  3
   2179   2175   2182   2184     1  0.0000000  1.2552000  3
   2179   2191   2197   2198     1  0.0000000  0.6508444  3
   2179   2191   2197   2199     1  0.0000000  0.6508444  3
   2180   2179   2175   2182     1  0.0000000  1.2552000  3
   2180   2179   2191   2197     1  0.0000000  0.6508444  3
   2180   2179   2191   2192     1  0.0000000  0.6508444  3
   2180   2179   2191   2193     1  0.0000000  0.6508444  3
   2181   2179   2175   2182     1  0.0000000  1.2552000  3
   2181   2179   2191   2197     1  0.0000000  0.6508444  3
   2181   2179   2191   2192     1  0.0000000  0.6508444  3
   2181   2179   2191   2193     1  0.0000000  0.6508444  3
   2182   2185   2194   2195     1  0.0000000  0.6508444  3
   2182   2185   2194   2196     1  0.0000000  0.6508444  3
   2183   2182   2185   2194     1  0.0000000  0.6508444  3
   2183   2182   2185   2186     1  0.0000000  0.6508444  3
   2183   2182   2185   2187     1  0.0000000  0.6508444  3
   2184   2182   2185   2194     1  0.0000000  0.6508444  3
   2184   2182   2185   2186     1  0.0000000  0.6508444  3
   2184   2182   2185   2187     1  0.0000000  0.6508444  3
   2186   2185   2194   2203     1  0.0000000  1.0460000  1
   2186   2185   2194   2203     1  0.0000000  0.0000000  3
   2186   2185   2194   2195     1  0.0000000  0.6508444  3
   2186   2185   2194   2196     1  0.0000000  0.6508444  3
   2187   2185   2194   2203     1  0.0000000  1.0460000  1
   2187   2185   2194   2203     1  0.0000000  0.0000000  3
   2187   2185   2194   2195     1  0.0000000  0.6508444  3
   2187   2185   2194   2196     1  0.0000000  0.6508444  3
   2189   2188   2200   4465     1  0.0000000  1.0460000  1
   2189   2188   2200   4465     1  0.0000000  0.0000000  3
   2189   2188   2200   2201     1  0.0000000  0.6508444  3
   2189   2188   2200   2202     1  0.0000000  0.6508444  3
   2190   2188   2200   4465     1  0.0000000  1.0460000  1
   2190   2188   2200   4465     1  0.0000000  0.0000000  3
   2190   2188   2200   2201     1  0.0000000  0.6508444  3
   2190   2188   2200   2202     1  0.0000000  0.6508444  3
   2192   2191   2197   4436     1  0.0000000  1.0460000  1
   2192   2191   2197   4436     1  0.0000000  0.0000000  3
   2192   2191   2197   2198     1  0.0000000  0.6508444  3
   2192   2191   2197   2199     1  0.0000000  0.6508444  3
   2193   2191   2197   4436     1  0.0000000  1.0460000  1
   2193   2191   2197   4436     1  0.0000000  0.0000000  3
   2193   2191   2197   2198     1  0.0000000  0.6508444  3
   2193   2191   2197   2199     1  0.0000000  0.6508444  3
   2197   4436   4427   4428     1  0.0000000  1.6038667  3
   2197   4436   4427   4429     1  0.0000000  1.6038667  3
   2198   2197   4436   4427     1  0.0000000  1.6038667  3
   2199   2197   4436   4427     1  0.0000000  1.6038667  3
   2200   4465   4456   4457     1  0.0000000  1.6038667  3
   2200   4465   4456   4458     1  0.0000000  1.6038667  3
   2201   2200   4465   4456     1  0.0000000  1.6038667  3
   2202   2200   4465   4456     1  0.0000000  1.6038667  3
   2204   2205   2217   2218     1  0.0000000  0.6508444  3
   2204   2205   2217   2219     1  0.0000000  0.6508444  3
   2204   2208   2220   2221     1  0.0000000  0.6508444  3
   2204   2208   2220   2222     1  0.0000000  0.6508444  3
   2204   2211   2214   2215     1  0.0000000  0.6508444  3
   2204   2211   2214   2216     1  0.0000000  0.6508444  3
   2205   2204   2208   2209     1  0.0000000  1.2552000  3
   2205   2204   2208   2210     1  0.0000000  1.2552000  3
   2205   2204   2211   2212     1  0.0000000  1.2552000  3
   2205   2204   2211   2213     1  0.0000000  1.2552000  3
   2205   2217   2229   2230     1  0.0000000  0.6508444  3
   2205   2217   2229   2231     1  0.0000000  0.6508444  3
   2206   2205   2204   2208     1  0.0000000  1.2552000  3
   2206   2205   2204   2211     1  0.0000000  1.2552000  3
   2206   2205   2217   2229     1  0.0000000  0.6508444  3
   2206   2205   2217   2218     1  0.0000000  0.6508444  3
   2206   2205   2217   2219     1  0.0000000  0.6508444  3
   2207   2205   2204   2208     1  0.0000000  1.2552000  3
   2207   2205   2204   2211     1  0.0000000  1.2552000  3
   2207   2205   2217   2229     1  0.0000000  0.6508444  3
   2207   2205   2217   2218     1  0.0000000  0.6508444  3
   2207   2205   2217   2219     1  0.0000000  0.6508444  3
   2208   2204   2211   2212     1  0.0000000  1.2552000  3
   2208   2204   2211   2213     1  0.0000000  1.2552000  3
   2208   2220   2226   2227     1  0.0000000  0.6508444  3
   2208   2220   2226   2228     1  0.0000000  0.6508444  3
   2209   2208   2204   2211     1  0.0000000  1.2552000  3
   2209   2208   2220   2226     1  0.0000000  0.6508444  3
   2209   2208   2220   2221     1  0.0000000  0.6508444  3
   2209   2208   2220   2222     1  0.0000000  0.6508444  3
   2210   2208   2204   2211     1  0.0000000  1.2552000  3
   2210   2208   2220   2226     1  0.0000000  0.6508444  3
   2210   2208   2220   2221     1  0.0000000  0.6508444  3
   2210   2208   2220   2222     1  0.0000000  0.6508444  3
   2211   2214   2223   2224     1  0.0000000  0.6508444  3
   2211   2214   2223   2225     1  0.0000000  0.6508444  3
   2212   2211   2214   2223     1  0.0000000  0.6508444  3
   2212   2211   2214   2215     1  0.0000000  0.6508444  3
   2212   2211   2214   2216     1  0.0000000  0.6508444  3
   2213   2211   2214   2223     1  0.0000000  0.6508444  3
   2213   2211   2214   2215     1  0.0000000  0.6508444  3
   2213   2211   2214   2216     1  0.0000000  0.6508444  3
   2215   2214   2223   2232     1  0.0000000  1.0460000  1
   2215   2214   2223   2232     1  0.0000000  0.0000000  3
   2215   2214   2223   2224     1  0.0000000  0.6508444  3
   2215   2214   2223   2225     1  0.0000000  0.6508444  3
   2216   2214   2223   2232     1  0.0000000  1.0460000  1
   2216   2214   2223   2232     1  0.0000000  0.0000000  3
   2216   2214   2223   2224     1  0.0000000  0.6508444  3
   2216   2214   2223   2225     1  0.0000000  0.6508444  3
   2218   2217   2229   4523     1  0.0000000  1.0460000  1
   2218   2217   2229   4523     1  0.0000000  0.0000000  3
   2218   2217   2229   2230     1  0.0000000  0.6508444  3
   2218   2217   2229   2231     1  0.0000000  0.6508444  3
   2219   2217   2229   4523     1  0.0000000  1.0460000  1
   2219   2217   2229   4523     1  0.0000000  0.0000000  3
   2219   2217   2229   2230     1  0.0000000  0.6508444  3
   2219   2217   2229   2231     1  0.0000000  0.6508444  3
   2221   2220   2226   4494     1  0.0000000  1.0460000  1
   2221   2220   2226   4494     1  0.0000000  0.0000000  3
   2221   2220   2226   2227     1  0.0000000  0.6508444  3
   2221   2220   2226   2228     1  0.0000000  0.6508444  3
   2222   2220   2226   4494     1  0.0000000  1.0460000  1
   2222   2220   2226   4494     1  0.0000000  0.0000000  3
   2222   2220   2226   2227     1  0.0000000  0.6508444  3
   2222   2220   2226   2228     1  0.0000000  0.6508444  3
   2226   4494   4485   4486     1  0.0000000  1.6038667  3
   2226   4494   4485   4487     1  0.0000000  1.6038667  3
   2227   2226   4494   4485     1  0.0000000  1.6038667  3
   2228   2226   4494   4485     1  0.0000000  1.6038667  3
   2229   4523   4514   4515     1  0.0000000  1.6038667  3
   2229   4523   4514   4516     1  0.0000000  1.6038667  3
   2230   2229   4523   4514     1  0.0000000  1.6038667  3
   2231   2229   4523   4514     1  0.0000000  1.6038667  3
   2233   2234   2246   2247     1  0.0000000  0.6508444  3
   2233   2234   2246   2248     1  0.0000000  0.6508444  3
   2233   2237   2249   2250     1  0.0000000  0.6508444  3
   2233   2237   2249   2251     1  0.0000000  0.6508444  3
   2233   2240   2243   2244     1  0.0000000  0.6508444  3
   2233   2240   2243   2245     1  0.0000000  0.6508444  3
   2234   2233   2237   2238     1  0.0000000  1.2552000  3
   2234   2233   2237   2239     1  0.0000000  1.2552000  3
   2234   2233   2240   2241     1  0.0000000  1.2552000  3
   2234   2233   2240   2242     1  0.0000000  1.2552000  3
   2234   2246   2258   2259     1  0.0000000  0.6508444  3
   2234   2246   2258   2260     1  0.0000000  0.6508444  3
   2235   2234   2233   2237     1  0.0000000  1.2552000  3
   2235   2234   2233   2240     1  0.0000000  1.2552000  3
   2235   2234   2246   2258     1  0.0000000  0.6508444  3
   2235   2234   2246   2247     1  0.0000000  0.6508444  3
   2235   2234   2246   2248     1  0.0000000  0.6508444  3
   2236   2234   2233   2237     1  0.0000000  1.2552000  3
   2236   2234   2233   2240     1  0.0000000  1.2552000  3
   2236   2234   2246   2258     1  0.0000000  0.6508444  3
   2236   2234   2246   2247     1  0.0000000  0.6508444  3
   2236   2234   2246   2248     1  0.0000000  0.6508444  3
   2237   2233   2240   2241     1  0.0000000  1.2552000  3
   2237   2233   2240   2242     1  0.0000000  1.2552000  3
   2237   2249   2255   2256     1  0.0000000  0.6508444  3
   2237   2249   2255   2257     1  0.0000000  0.6508444  3
   2238   2237   2233   2240     1  0.0000000  1.2552000  3
   2238   2237   2249   2255     1  0.0000000  0.6508444  3
   2238   2237   2249   2250     1  0.0000000  0.6508444  3
   2238   2237   2249   2251     1  0.0000000  0.6508444  3
   2239   2237   2233   2240     1  0.0000000  1.2552000  3
   2239   2237   2249   2255     1  0.0000000  0.6508444  3
   2239   2237   2249   2250     1  0.0000000  0.6508444  3
   2239   2237   2249   2251     1  0.0000000  0.6508444  3
   2240   2243   2252   2253     1  0.0000000  0.6508444  3
   2240   2243   2252   2254     1  0.0000000  0.6508444  3
   2241   2240   2243   2252     1  0.0000000  0.6508444  3
   2241   2240   2243   2244     1  0.0000000  0.6508444  3
   2241   2240   2243   2245     1  0.0000000  0.6508444  3
   2242   2240   2243   2252     1  0.0000000  0.6508444  3
   2242   2240   2243   2244     1  0.0000000  0.6508444  3
   2242   2240   2243   2245     1  0.0000000  0.6508444  3
   2244   2243   2252   2261     1  0.0000000  1.0460000  1
   2244   2243   2252   2261     1  0.0000000  0.0000000  3
   2244   2243   2252   2253     1  0.0000000  0.6508444  3
   2244   2243   2252   2254     1  0.0000000  0.6508444  3
   2245   2243   2252   2261     1  0.0000000  1.0460000  1
   2245   2243   2252   2261     1  0.0000000  0.0000000  3
   2245   2243   2252   2253     1  0.0000000  0.6508444  3
   2245   2243   2252   2254     1  0.0000000  0.6508444  3
   2247   2246   2258   4581     1  0.0000000  1.0460000  1
   2247   2246   2258   4581     1  0.0000000  0.0000000  3
   2247   2246   2258   2259     1  0.0000000  0.6508444  3
   2247   2246   2258   2260     1  0.0000000  0.6508444  3
   2248   2246   2258   4581     1  0.0000000  1.0460000  1
   2248   2246   2258   4581     1  0.0000000  0.0000000  3
   2248   2246   2258   2259     1  0.0000000  0.6508444  3
   2248   2246   2258   2260     1  0.0000000  0.6508444  3
   2250   2249   2255   4552     1  0.0000000  1.0460000  1
   2250   2249   2255   4552     1  0.0000000  0.0000000  3
   2250   2249   2255   2256     1  0.0000000  0.6508444  3
   2250   2249   2255   2257     1  0.0000000  0.6508444  3
   2251   2249   2255   4552     1  0.0000000  1.0460000  1
   2251   2249   2255   4552     1  0.0000000  0.0000000  3
   2251   2249   2255   2256     1  0.0000000  0.6508444  3
   2251   2249   2255   2257     1  0.0000000  0.6508444  3
   2255   4552   4543   4544     1  0.0000000  1.6038667  3
   2255   4552   4543   4545     1  0.0000000  1.6038667  3
   2256   2255   4552   4543     1  0.0000000  1.6038667  3
   2257   2255   4552   4543     1  0.0000000  1.6038667  3
   2258   4581   4572   4573     1  0.0000000  1.6038667  3
   2258   4581   4572   4574     1  0.0000000  1.6038667  3
   2259   2258   4581   4572     1  0.0000000  1.6038667  3
   2260   2258   4581   4572     1  0.0000000  1.6038667  3
   2262   2263   2275   2276     1  0.0000000  0.6508444  3
   2262   2263   2275   2277     1  0.0000000  0.6508444  3
   2262   2266   2278   2279     1  0.0000000  0.6508444  3
   2262   2266   2278   2280     1  0.0000000  0.6508444  3
   2262   2269   2272   2273     1  0.0000000  0.6508444  3
   2262   2269   2272   2274     1  0.0000000  0.6508444  3
   2263   2262   2266   2267     1  0.0000000  1.2552000  3
   2263   2262   2266   2268     1  0.0000000  1.2552000  3
   2263   2262   2269   2270     1  0.0000000  1.2552000  3
   2263   2262   2269   2271     1  0.0000000  1.2552000  3
   2263   2275   2287   2288     1  0.0000000  0.6508444  3
   2263   2275   2287   2289     1  0.0000000  0.6508444  3
   2264   2263   2262   2266     1  0.0000000  1.2552000  3
   2264   2263   2262   2269     1  0.0000000  1.2552000  3
   2264   2263   2275   2287     1  0.0000000  0.6508444  3
   2264   2263   2275   2276     1  0.0000000  0.6508444  3
   2264   2263   2275   2277     1  0.0000000  0.6508444  3
   2265   2263   2262   2266     1  0.0000000  1.2552000  3
   2265   2263   2262   2269     1  0.0000000  1.2552000  3
   2265   2263   2275   2287     1  0.0000000  0.6508444  3
   2265   2263   2275   2276     1  0.0000000  0.6508444  3
   2265   2263   2275   2277     1  0.0000000  0.6508444  3
   2266   2262   2269   2270     1  0.0000000  1.2552000  3
   2266   2262   2269   2271     1  0.0000000  1.2552000  3
   2266   2278   2284   2285     1  0.0000000  0.6508444  3
   2266   2278   2284   2286     1  0.0000000  0.6508444  3
   2267   2266   2262   2269     1  0.0000000  1.2552000  3
   2267   2266   2278   2284     1  0.0000000  0.6508444  3
   2267   2266   2278   2279     1  0.0000000  0.6508444  3
   2267   2266   2278   2280     1  0.0000000  0.6508444  3
   2268   2266   2262   2269     1  0.0000000  1.2552000  3
   2268   2266   2278   2284     1  0.0000000  0.6508444  3
   2268   2266   2278   2279     1  0.0000000  0.6508444  3
   2268   2266   2278   2280     1  0.0000000  0.6508444  3
   2269   2272   2281   2282     1  0.0000000  0.6508444  3
   2269   2272   2281   2283     1  0.0000000  0.6508444  3
   2270   2269   2272   2281     1  0.0000000  0.6508444  3
   2270   2269   2272   2273     1  0.0000000  0.6508444  3
   2270   2269   2272   2274     1  0.0000000  0.6508444  3
   2271   2269   2272   2281     1  0.0000000  0.6508444  3
   2271   2269   2272   2273     1  0.0000000  0.6508444  3
   2271   2269   2272   2274     1  0.0000000  0.6508444  3
   2273   2272   2281   2290     1  0.0000000  1.0460000  1
   2273   2272   2281   2290     1  0.0000000  0.0000000  3
   2273   2272   2281   2282     1  0.0000000  0.6508444  3
   2273   2272   2281   2283     1  0.0000000  0.6508444  3
   2274   2272   2281   2290     1  0.0000000  1.0460000  1
   2274   2272   2281   2290     1  0.0000000  0.0000000  3
   2274   2272   2281   2282     1  0.0000000  0.6508444  3
   2274   2272   2281   2283     1  0.0000000  0.6508444  3
   2276   2275   2287   4639     1  0.0000000  1.0460000  1
   2276   2275   2287   4639     1  0.0000000  0.0000000  3
   2276   2275   2287   2288     1  0.0000000  0.6508444  3
   2276   2275   2287   2289     1  0.0000000  0.6508444  3
   2277   2275   2287   4639     1  0.0000000  1.0460000  1
   2277   2275   2287   4639     1  0.0000000  0.0000000  3
   2277   2275   2287   2288     1  0.0000000  0.6508444  3
   2277   2275   2287   2289     1  0.0000000  0.6508444  3
   2279   2278   2284   4610     1  0.0000000  1.0460000  1
   2279   2278   2284   4610     1  0.0000000  0.0000000  3
   2279   2278   2284   2285     1  0.0000000  0.6508444  3
   2279   2278   2284   2286     1  0.0000000  0.6508444  3
   2280   2278   2284   4610     1  0.0000000  1.0460000  1
   2280   2278   2284   4610     1  0.0000000  0.0000000  3
   2280   2278   2284   2285     1  0.0000000  0.6508444  3
   2280   2278   2284   2286     1  0.0000000  0.6508444  3
   2284   4610   4601   4602     1  0.0000000  1.6038667  3
   2284   4610   4601   4603     1  0.0000000  1.6038667  3
   2285   2284   4610   4601     1  0.0000000  1.6038667  3
   2286   2284   4610   4601     1  0.0000000  1.6038667  3
   2287   4639   4630   4631     1  0.0000000  1.6038667  3
   2287   4639   4630   4632     1  0.0000000  1.6038667  3
   2288   2287   4639   4630     1  0.0000000  1.6038667  3
   2289   2287   4639   4630     1  0.0000000  1.6038667  3
   2291   2292   2304   2305     1  0.0000000  0.6508444  3
   2291   2292   2304   2306     1  0.0000000  0.6508444  3
   2291   2295   2307   2308     1  0.0000000  0.6508444  3
   2291   2295   2307   2309     1  0.0000000  0.6508444  3
   2291   2298   2301   2302     1  0.0000000  0.6508444  3
   2291   2298   2301   2303     1  0.0000000  0.6508444  3
   2292   2291   2295   2296     1  0.0000000  1.2552000  3
   2292   2291   2295   2297     1  0.0000000  1.2552000  3
   2292   2291   2298   2299     1  0.0000000  1.2552000  3
   2292   2291   2298   2300     1  0.0000000  1.2552000  3
   2292   2304   2316   2317     1  0.0000000  0.6508444  3
   2292   2304   2316   2318     1  0.0000000  0.6508444  3
   2293   2292   2291   2295     1  0.0000000  1.2552000  3
   2293   2292   2291   2298     1  0.0000000  1.2552000  3
   2293   2292   2304   2316     1  0.0000000  0.6508444  3
   2293   2292   2304   2305     1  0.0000000  0.6508444  3
   2293   2292   2304   2306     1  0.0000000  0.6508444  3
   2294   2292   2291   2295     1  0.0000000  1.2552000  3
   2294   2292   2291   2298     1  0.0000000  1.2552000  3
   2294   2292   2304   2316     1  0.0000000  0.6508444  3
   2294   2292   2304   2305     1  0.0000000  0.6508444  3
   2294   2292   2304   2306     1  0.0000000  0.6508444  3
   2295   2291   2298   2299     1  0.0000000  1.2552000  3
   2295   2291   2298   2300     1  0.0000000  1.2552000  3
   2295   2307   2313   2314     1  0.0000000  0.6508444  3
   2295   2307   2313   2315     1  0.0000000  0.6508444  3
   2296   2295   2291   2298     1  0.0000000  1.2552000  3
   2296   2295   2307   2313     1  0.0000000  0.6508444  3
   2296   2295   2307   2308     1  0.0000000  0.6508444  3
   2296   2295   2307   2309     1  0.0000000  0.6508444  3
   2297   2295   2291   2298     1  0.0000000  1.2552000  3
   2297   2295   2307   2313     1  0.0000000  0.6508444  3
   2297   2295   2307   2308     1  0.0000000  0.6508444  3
   2297   2295   2307   2309     1  0.0000000  0.6508444  3
   2298   2301   2310   2311     1  0.0000000  0.6508444  3
   2298   2301   2310   2312     1  0.0000000  0.6508444  3
   2299   2298   2301   2310     1  0.0000000  0.6508444  3
   2299   2298   2301   2302     1  0.0000000  0.6508444  3
   2299   2298   2301   2303     1  0.0000000  0.6508444  3
   2300   2298   2301   2310     1  0.0000000  0.6508444  3
   2300   2298   2301   2302     1  0.0000000  0.6508444  3
   2300   2298   2301   2303     1  0.0000000  0.6508444  3
   2302   2301   2310   2319     1  0.0000000  1.0460000  1
   2302   2301   2310   2319     1  0.0000000  0.0000000  3
   2302   2301   2310   2311     1  0.0000000  0.6508444  3
   2302   2301   2310   2312     1  0.0000000  0.6508444  3
   2303   2301   2310   2319     1  0.0000000  1.0460000  1
   2303   2301   2310   2319     1  0.0000000  0.0000000  3
   2303   2301   2310   2311     1  0.0000000  0.6508444  3
   2303   2301   2310   2312     1  0.0000000  0.6508444  3
   2305   2304   2316   4697     1  0.0000000  1.0460000  1
   2305   2304   2316   4697     1  0.0000000  0.0000000  3
   2305   2304   2316   2317     1  0.0000000  0.6508444  3
   2305   2304   2316   2318     1  0.0000000  0.6508444  3
   2306   2304   2316   4697     1  0.0000000  1.0460000  1
   2306   2304   2316   4697     1  0.0000000  0.0000000  3
   2306   2304   2316   2317     1  0.0000000  0.6508444  3
   2306   2304   2316   2318     1  0.0000000  0.6508444  3
   2308   2307   2313   4668     1  0.0000000  1.0460000  1
   2308   2307   2313   4668     1  0.0000000  0.0000000  3
   2308   2307   2313   2314     1  0.0000000  0.6508444  3
   2308   2307   2313   2315     1  0.0000000  0.6508444  3
   2309   2307   2313   4668     1  0.0000000  1.0460000  1
   2309   2307   2313   4668     1  0.0000000  0.0000000  3
   2309   2307   2313   2314     1  0.0000000  0.6508444  3
   2309   2307   2313   2315     1  0.0000000  0.6508444  3
   2313   4668   4659   4660     1  0.0000000  1.6038667  3
   2313   4668   4659   4661     1  0.0000000  1.6038667  3
   2314   2313   4668   4659     1  0.0000000  1.6038667  3
   2315   2313   4668   4659     1  0.0000000  1.6038667  3
   2316   4697   4688   4689     1  0.0000000  1.6038667  3
   2316   4697   4688   4690     1  0.0000000  1.6038667  3
   2317   2316   4697   4688     1  0.0000000  1.6038667  3
   2318   2316   4697   4688     1  0.0000000  1.6038667  3
   2320   2321   2333   2334     1  0.0000000  0.6508444  3
   2320   2321   2333   2335     1  0.0000000  0.6508444  3
   2320   2324   2336   2337     1  0.0000000  0.6508444  3
   2320   2324   2336   2338     1  0.0000000  0.6508444  3
   2320   2327   2330   2331     1  0.0000000  0.6508444  3
   2320   2327   2330   2332     1  0.0000000  0.6508444  3
   2321   2320   2324   2325     1  0.0000000  1.2552000  3
   2321   2320   2324   2326     1  0.0000000  1.2552000  3
   2321   2320   2327   2328     1  0.0000000  1.2552000  3
   2321   2320   2327   2329     1  0.0000000  1.2552000  3
   2321   2333   2345   2346     1  0.0000000  0.6508444  3
   2321   2333   2345   2347     1  0.0000000  0.6508444  3
   2322   2321   2320   2324     1  0.0000000  1.2552000  3
   2322   2321   2320   2327     1  0.0000000  1.2552000  3
   2322   2321   2333   2345     1  0.0000000  0.6508444  3
   2322   2321   2333   2334     1  0.0000000  0.6508444  3
   2322   2321   2333   2335     1  0.0000000  0.6508444  3
   2323   2321   2320   2324     1  0.0000000  1.2552000  3
   2323   2321   2320   2327     1  0.0000000  1.2552000  3
   2323   2321   2333   2345     1  0.0000000  0.6508444  3
   2323   2321   2333   2334     1  0.0000000  0.6508444  3
   2323   2321   2333   2335     1  0.0000000  0.6508444  3
   2324   2320   2327   2328     1  0.0000000  1.2552000  3
   2324   2320   2327   2329     1  0.0000000  1.2552000  3
   2324   2336   2342   2343     1  0.0000000  0.6508444  3
   2324   2336   2342   2344     1  0.0000000  0.6508444  3
   2325   2324   2320   2327     1  0.0000000  1.2552000  3
   2325   2324   2336   2342     1  0.0000000  0.6508444  3
   2325   2324   2336   2337     1  0.0000000  0.6508444  3
   2325   2324   2336   2338     1  0.0000000  0.6508444  3
   2326   2324   2320   2327     1  0.0000000  1.2552000  3
   2326   2324   2336   2342     1  0.0000000  0.6508444  3
   2326   2324   2336   2337     1  0.0000000  0.6508444  3
   2326   2324   2336   2338     1  0.0000000  0.6508444  3
   2327   2330   2339   2340     1  0.0000000  0.6508444  3
   2327   2330   2339   2341     1  0.0000000  0.6508444  3
   2328   2327   2330   2339     1  0.0000000  0.6508444  3
   2328   2327   2330   2331     1  0.0000000  0.6508444  3
   2328   2327   2330   2332     1  0.0000000  0.6508444  3
   2329   2327   2330   2339     1  0.0000000  0.6508444  3
   2329   2327   2330   2331     1  0.0000000  0.6508444  3
   2329   2327   2330   2332     1  0.0000000  0.6508444  3
   2331   2330   2339   2348     1  0.0000000  1.0460000  1
   2331   2330   2339   2348     1  0.0000000  0.0000000  3
   2331   2330   2339   2340     1  0.0000000  0.6508444  3
   2331   2330   2339   2341     1  0.0000000  0.6508444  3
   2332   2330   2339   2348     1  0.0000000  1.0460000  1
   2332   2330   2339   2348     1  0.0000000  0.0000000  3
   2332   2330   2339   2340     1  0.0000000  0.6508444  3
   2332   2330   2339   2341     1  0.0000000  0.6508444  3
   2334   2333   2345   4755     1  0.0000000  1.0460000  1
   2334   2333   2345   4755     1  0.0000000  0.0000000  3
   2334   2333   2345   2346     1  0.0000000  0.6508444  3
   2334   2333   2345   2347     1  0.0000000  0.6508444  3
   2335   2333   2345   4755     1  0.0000000  1.0460000  1
   2335   2333   2345   4755     1  0.0000000  0.0000000  3
   2335   2333   2345   2346     1  0.0000000  0.6508444  3
   2335   2333   2345   2347     1  0.0000000  0.6508444  3
   2337   2336   2342   4726     1  0.0000000  1.0460000  1
   2337   2336   2342   4726     1  0.0000000  0.0000000  3
   2337   2336   2342   2343     1  0.0000000  0.6508444  3
   2337   2336   2342   2344     1  0.0000000  0.6508444  3
   2338   2336   2342   4726     1  0.0000000  1.0460000  1
   2338   2336   2342   4726     1  0.0000000  0.0000000  3
   2338   2336   2342   2343     1  0.0000000  0.6508444  3
   2338   2336   2342   2344     1  0.0000000  0.6508444  3
   2342   4726   4717   4718     1  0.0000000  1.6038667  3
   2342   4726   4717   4719     1  0.0000000  1.6038667  3
   2343   2342   4726   4717     1  0.0000000  1.6038667  3
   2344   2342   4726   4717     1  0.0000000  1.6038667  3
   2345   4755   4746   4747     1  0.0000000  1.6038667  3
   2345   4755   4746   4748     1  0.0000000  1.6038667  3
   2346   2345   4755   4746     1  0.0000000  1.6038667  3
   2347   2345   4755   4746     1  0.0000000  1.6038667  3
   2349   2350   2362   2363     1  0.0000000  0.6508444  3
   2349   2350   2362   2364     1  0.0000000  0.6508444  3
   2349   2353   2365   2366     1  0.0000000  0.6508444  3
   2349   2353   2365   2367     1  0.0000000  0.6508444  3
   2349   2356   2359   2360     1  0.0000000  0.6508444  3
   2349   2356   2359   2361     1  0.0000000  0.6508444  3
   2350   2349   2353   2354     1  0.0000000  1.2552000  3
   2350   2349   2353   2355     1  0.0000000  1.2552000  3
   2350   2349   2356   2357     1  0.0000000  1.2552000  3
   2350   2349   2356   2358     1  0.0000000  1.2552000  3
   2350   2362   2374   2375     1  0.0000000  0.6508444  3
   2350   2362   2374   2376     1  0.0000000  0.6508444  3
   2351   2350   2349   2353     1  0.0000000  1.2552000  3
   2351   2350   2349   2356     1  0.0000000  1.2552000  3
   2351   2350   2362   2374     1  0.0000000  0.6508444  3
   2351   2350   2362   2363     1  0.0000000  0.6508444  3
   2351   2350   2362   2364     1  0.0000000  0.6508444  3
   2352   2350   2349   2353     1  0.0000000  1.2552000  3
   2352   2350   2349   2356     1  0.0000000  1.2552000  3
   2352   2350   2362   2374     1  0.0000000  0.6508444  3
   2352   2350   2362   2363     1  0.0000000  0.6508444  3
   2352   2350   2362   2364     1  0.0000000  0.6508444  3
   2353   2349   2356   2357     1  0.0000000  1.2552000  3
   2353   2349   2356   2358     1  0.0000000  1.2552000  3
   2353   2365   2371   2372     1  0.0000000  0.6508444  3
   2353   2365   2371   2373     1  0.0000000  0.6508444  3
   2354   2353   2349   2356     1  0.0000000  1.2552000  3
   2354   2353   2365   2371     1  0.0000000  0.6508444  3
   2354   2353   2365   2366     1  0.0000000  0.6508444  3
   2354   2353   2365   2367     1  0.0000000  0.6508444  3
   2355   2353   2349   2356     1  0.0000000  1.2552000  3
   2355   2353   2365   2371     1  0.0000000  0.6508444  3
   2355   2353   2365   2366     1  0.0000000  0.6508444  3
   2355   2353   2365   2367     1  0.0000000  0.6508444  3
   2356   2359   2368   2369     1  0.0000000  0.6508444  3
   2356   2359   2368   2370     1  0.0000000  0.6508444  3
   2357   2356   2359   2368     1  0.0000000  0.6508444  3
   2357   2356   2359   2360     1  0.0000000  0.6508444  3
   2357   2356   2359   2361     1  0.0000000  0.6508444  3
   2358   2356   2359   2368     1  0.0000000  0.6508444  3
   2358   2356   2359   2360     1  0.0000000  0.6508444  3
   2358   2356   2359   2361     1  0.0000000  0.6508444  3
   2360   2359   2368   2377     1  0.0000000  1.0460000  1
   2360   2359   2368   2377     1  0.0000000  0.0000000  3
   2360   2359   2368   2369     1  0.0000000  0.6508444  3
   2360   2359   2368   2370     1  0.0000000  0.6508444  3
   2361   2359   2368   2377     1  0.0000000  1.0460000  1
   2361   2359   2368   2377     1  0.0000000  0.0000000  3
   2361   2359   2368   2369     1  0.0000000  0.6508444  3
   2361   2359   2368   2370     1  0.0000000  0.6508444  3
   2363   2362   2374   4813     1  0.0000000  1.0460000  1
   2363   2362   2374   4813     1  0.0000000  0.0000000  3
   2363   2362   2374   2375     1  0.0000000  0.6508444  3
   2363   2362   2374   2376     1  0.0000000  0.6508444  3
   2364   2362   2374   4813     1  0.0000000  1.0460000  1
   2364   2362   2374   4813     1  0.0000000  0.0000000  3
   2364   2362   2374   2375     1  0.0000000  0.6508444  3
   2364   2362   2374   2376     1  0.0000000  0.6508444  3
   2366   2365   2371   4784     1  0.0000000  1.0460000  1
   2366   2365   2371   4784     1  0.0000000  0.0000000  3
   2366   2365   2371   2372     1  0.0000000  0.6508444  3
   2366   2365   2371   2373     1  0.0000000  0.6508444  3
   2367   2365   2371   4784     1  0.0000000  1.0460000  1
   2367   2365   2371   4784     1  0.0000000  0.0000000  3
   2367   2365   2371   2372     1  0.0000000  0.6508444  3
   2367   2365   2371   2373     1  0.0000000  0.6508444  3
   2371   4784   4775   4776     1  0.0000000  1.6038667  3
   2371   4784   4775   4777     1  0.0000000  1.6038667  3
   2372   2371   4784   4775     1  0.0000000  1.6038667  3
   2373   2371   4784   4775     1  0.0000000  1.6038667  3
   2374   4813   4804   4805     1  0.0000000  1.6038667  3
   2374   4813   4804   4806     1  0.0000000  1.6038667  3
   2375   2374   4813   4804     1  0.0000000  1.6038667  3
   2376   2374   4813   4804     1  0.0000000  1.6038667  3
   2378   2379   2391   2392     1  0.0000000  0.6508444  3
   2378   2379   2391   2393     1  0.0000000  0.6508444  3
   2378   2382   2394   2395     1  0.0000000  0.6508444  3
   2378   2382   2394   2396     1  0.0000000  0.6508444  3
   2378   2385   2388   2389     1  0.0000000  0.6508444  3
   2378   2385   2388   2390     1  0.0000000  0.6508444  3
   2379   2378   2382   2383     1  0.0000000  1.2552000  3
   2379   2378   2382   2384     1  0.0000000  1.2552000  3
   2379   2378   2385   2386     1  0.0000000  1.2552000  3
   2379   2378   2385   2387     1  0.0000000  1.2552000  3
   2379   2391   2403   2404     1  0.0000000  0.6508444  3
   2379   2391   2403   2405     1  0.0000000  0.6508444  3
   2380   2379   2378   2382     1  0.0000000  1.2552000  3
   2380   2379   2378   2385     1  0.0000000  1.2552000  3
   2380   2379   2391   2403     1  0.0000000  0.6508444  3
   2380   2379   2391   2392     1  0.0000000  0.6508444  3
   2380   2379   2391   2393     1  0.0000000  0.6508444  3
   2381   2379   2378   2382     1  0.0000000  1.2552000  3
   2381   2379   2378   2385     1  0.0000000  1.2552000  3
   2381   2379   2391   2403     1  0.0000000  0.6508444  3
   2381   2379   2391   2392     1  0.0000000  0.6508444  3
   2381   2379   2391   2393     1  0.0000000  0.6508444  3
   2382   2378   2385   2386     1  0.0000000  1.2552000  3
   2382   2378   2385   2387     1  0.0000000  1.2552000  3
   2382   2394   2400   2401     1  0.0000000  0.6508444  3
   2382   2394   2400   2402     1  0.0000000  0.6508444  3
   2383   2382   2378   2385     1  0.0000000  1.2552000  3
   2383   2382   2394   2400     1  0.0000000  0.6508444  3
   2383   2382   2394   2395     1  0.0000000  0.6508444  3
   2383   2382   2394   2396     1  0.0000000  0.6508444  3
   2384   2382   2378   2385     1  0.0000000  1.2552000  3
   2384   2382   2394   2400     1  0.0000000  0.6508444  3
   2384   2382   2394   2395     1  0.0000000  0.6508444  3
   2384   2382   2394   2396     1  0.0000000  0.6508444  3
   2385   2388   2397   2398     1  0.0000000  0.6508444  3
   2385   2388   2397   2399     1  0.0000000  0.6508444  3
   2386   2385   2388   2397     1  0.0000000  0.6508444  3
   2386   2385   2388   2389     1  0.0000000  0.6508444  3
   2386   2385   2388   2390     1  0.0000000  0.6508444  3
   2387   2385   2388   2397     1  0.0000000  0.6508444  3
   2387   2385   2388   2389     1  0.0000000  0.6508444  3
   2387   2385   2388   2390     1  0.0000000  0.6508444  3
   2389   2388   2397   2406     1  0.0000000  1.0460000  1
   2389   2388   2397   2406     1  0.0000000  0.0000000  3
   2389   2388   2397   2398     1  0.0000000  0.6508444  3
   2389   2388   2397   2399     1  0.0000000  0.6508444  3
   2390   2388   2397   2406     1  0.0000000  1.0460000  1
   2390   2388   2397   2406     1  0.0000000  0.0000000  3
   2390   2388   2397   2398     1  0.0000000  0.6508444  3
   2390   2388   2397   2399     1  0.0000000  0.6508444  3
   2392   2391   2403   4871     1  0.0000000  1.0460000  1
   2392   2391   2403   4871     1  0.0000000  0.0000000  3
   2392   2391   2403   2404     1  0.0000000  0.6508444  3
   2392   2391   2403   2405     1  0.0000000  0.6508444  3
   2393   2391   2403   4871     1  0.0000000  1.0460000  1
   2393   2391   2403   4871     1  0.0000000  0.0000000  3
   2393   2391   2403   2404     1  0.0000000  0.6508444  3
   2393   2391   2403   2405     1  0.0000000  0.6508444  3
   2395   2394   2400   4842     1  0.0000000  1.0460000  1
   2395   2394   2400   4842     1  0.0000000  0.0000000  3
   2395   2394   2400   2401     1  0.0000000  0.6508444  3
   2395   2394   2400   2402     1  0.0000000  0.6508444  3
   2396   2394   2400   4842     1  0.0000000  1.0460000  1
   2396   2394   2400   4842     1  0.0000000  0.0000000  3
   2396   2394   2400   2401     1  0.0000000  0.6508444  3
   2396   2394   2400   2402     1  0.0000000  0.6508444  3
   2400   4842   4833   4834     1  0.0000000  1.6038667  3
   2400   4842   4833   4835     1  0.0000000  1.6038667  3
   2401   2400   4842   4833     1  0.0000000  1.6038667  3
   2402   2400   4842   4833     1  0.0000000  1.6038667  3
   2403   4871   4862   4863     1  0.0000000  1.6038667  3
   2403   4871   4862   4864     1  0.0000000  1.6038667  3
   2404   2403   4871   4862     1  0.0000000  1.6038667  3
   2405   2403   4871   4862     1  0.0000000  1.6038667  3
   2407   2408   2420   2421     1  0.0000000  0.6508444  3
   2407   2408   2420   2422     1  0.0000000  0.6508444  3
   2407   2411   2423   2424     1  0.0000000  0.6508444  3
   2407   2411   2423   2425     1  0.0000000  0.6508444  3
   2407   2414   2417   2418     1  0.0000000  0.6508444  3
   2407   2414   2417   2419     1  0.0000000  0.6508444  3
   2408   2407   2411   2412     1  0.0000000  1.2552000  3
   2408   2407   2411   2413     1  0.0000000  1.2552000  3
   2408   2407   2414   2415     1  0.0000000  1.2552000  3
   2408   2407   2414   2416     1  0.0000000  1.2552000  3
   2408   2420   2432   2433     1  0.0000000  0.6508444  3
   2408   2420   2432   2434     1  0.0000000  0.6508444  3
   2409   2408   2407   2411     1  0.0000000  1.2552000  3
   2409   2408   2407   2414     1  0.0000000  1.2552000  3
   2409   2408   2420   2432     1  0.0000000  0.6508444  3
   2409   2408   2420   2421     1  0.0000000  0.6508444  3
   2409   2408   2420   2422     1  0.0000000  0.6508444  3
   2410   2408   2407   2411     1  0.0000000  1.2552000  3
   2410   2408   2407   2414     1  0.0000000  1.2552000  3
   2410   2408   2420   2432     1  0.0000000  0.6508444  3
   2410   2408   2420   2421     1  0.0000000  0.6508444  3
   2410   2408   2420   2422     1  0.0000000  0.6508444  3
   2411   2407   2414   2415     1  0.0000000  1.2552000  3
   2411   2407   2414   2416     1  0.0000000  1.2552000  3
   2411   2423   2429   2430     1  0.0000000  0.6508444  3
   2411   2423   2429   2431     1  0.0000000  0.6508444  3
   2412   2411   2407   2414     1  0.0000000  1.2552000  3
   2412   2411   2423   2429     1  0.0000000  0.6508444  3
   2412   2411   2423   2424     1  0.0000000  0.6508444  3
   2412   2411   2423   2425     1  0.0000000  0.6508444  3
   2413   2411   2407   2414     1  0.0000000  1.2552000  3
   2413   2411   2423   2429     1  0.0000000  0.6508444  3
   2413   2411   2423   2424     1  0.0000000  0.6508444  3
   2413   2411   2423   2425     1  0.0000000  0.6508444  3
   2414   2417   2426   2427     1  0.0000000  0.6508444  3
   2414   2417   2426   2428     1  0.0000000  0.6508444  3
   2415   2414   2417   2426     1  0.0000000  0.6508444  3
   2415   2414   2417   2418     1  0.0000000  0.6508444  3
   2415   2414   2417   2419     1  0.0000000  0.6508444  3
   2416   2414   2417   2426     1  0.0000000  0.6508444  3
   2416   2414   2417   2418     1  0.0000000  0.6508444  3
   2416   2414   2417   2419     1  0.0000000  0.6508444  3
   2418   2417   2426   2435     1  0.0000000  1.0460000  1
   2418   2417   2426   2435     1  0.0000000  0.0000000  3
   2418   2417   2426   2427     1  0.0000000  0.6508444  3
   2418   2417   2426   2428     1  0.0000000  0.6508444  3
   2419   2417   2426   2435     1  0.0000000  1.0460000  1
   2419   2417   2426   2435     1  0.0000000  0.0000000  3
   2419   2417   2426   2427     1  0.0000000  0.6508444  3
   2419   2417   2426   2428     1  0.0000000  0.6508444  3
   2421   2420   2432   4929     1  0.0000000  1.0460000  1
   2421   2420   2432   4929     1  0.0000000  0.0000000  3
   2421   2420   2432   2433     1  0.0000000  0.6508444  3
   2421   2420   2432   2434     1  0.0000000  0.6508444  3
   2422   2420   2432   4929     1  0.0000000  1.0460000  1
   2422   2420   2432   4929     1  0.0000000  0.0000000  3
   2422   2420   2432   2433     1  0.0000000  0.6508444  3
   2422   2420   2432   2434     1  0.0000000  0.6508444  3
   2424   2423   2429   4900     1  0.0000000  1.0460000  1
   2424   2423   2429   4900     1  0.0000000  0.0000000  3
   2424   2423   2429   2430     1  0.0000000  0.6508444  3
   2424   2423   2429   2431     1  0.0000000  0.6508444  3
   2425   2423   2429   4900     1  0.0000000  1.0460000  1
   2425   2423   2429   4900     1  0.0000000  0.0000000  3
   2425   2423   2429   2430     1  0.0000000  0.6508444  3
   2425   2423   2429   2431     1  0.0000000  0.6508444  3
   2429   4900   4891   4892     1  0.0000000  1.6038667  3
   2429   4900   4891   4893     1  0.0000000  1.6038667  3
   2430   2429   4900   4891     1  0.0000000  1.6038667  3
   2431   2429   4900   4891     1  0.0000000  1.6038667  3
   2432   4929   4920   4921     1  0.0000000  1.6038667  3
   2432   4929   4920   4922     1  0.0000000  1.6038667  3
   2433   2432   4929   4920     1  0.0000000  1.6038667  3
   2434   2432   4929   4920     1  0.0000000  1.6038667  3
   2436   2437   2449   2450     1  0.0000000  0.6508444  3
   2436   2437   2449   2451     1  0.0000000  0.6508444  3
   2436   2440   2452   2453     1  0.0000000  0.6508444  3
   2436   2440   2452   2454     1  0.0000000  0.6508444  3
   2436   2443   2446   2447     1  0.0000000  0.6508444  3
   2436   2443   2446   2448     1  0.0000000  0.6508444  3
   2437   2436   2440   2441     1  0.0000000  1.2552000  3
   2437   2436   2440   2442     1  0.0000000  1.2552000  3
   2437   2436   2443   2444     1  0.0000000  1.2552000  3
   2437   2436   2443   2445     1  0.0000000  1.2552000  3
   2437   2449   2461   2462     1  0.0000000  0.6508444  3
   2437   2449   2461   2463     1  0.0000000  0.6508444  3
   2438   2437   2436   2440     1  0.0000000  1.2552000  3
   2438   2437   2436   2443     1  0.0000000  1.2552000  3
   2438   2437   2449   2461     1  0.0000000  0.6508444  3
   2438   2437   2449   2450     1  0.0000000  0.6508444  3
   2438   2437   2449   2451     1  0.0000000  0.6508444  3
   2439   2437   2436   2440     1  0.0000000  1.2552000  3
   2439   2437   2436   2443     1  0.0000000  1.2552000  3
   2439   2437   2449   2461     1  0.0000000  0.6508444  3
   2439   2437   2449   2450     1  0.0000000  0.6508444  3
   2439   2437   2449   2451     1  0.0000000  0.6508444  3
   2440   2436   2443   2444     1  0.0000000  1.2552000  3
   2440   2436   2443   2445     1  0.0000000  1.2552000  3
   2440   2452   2458   2459     1  0.0000000  0.6508444  3
   2440   2452   2458   2460     1  0.0000000  0.6508444  3
   2441   2440   2436   2443     1  0.0000000  1.2552000  3
   2441   2440   2452   2458     1  0.0000000  0.6508444  3
   2441   2440   2452   2453     1  0.0000000  0.6508444  3
   2441   2440   2452   2454     1  0.0000000  0.6508444  3
   2442   2440   2436   2443     1  0.0000000  1.2552000  3
   2442   2440   2452   2458     1  0.0000000  0.6508444  3
   2442   2440   2452   2453     1  0.0000000  0.6508444  3
   2442   2440   2452   2454     1  0.0000000  0.6508444  3
   2443   2446   2455   2456     1  0.0000000  0.6508444  3
   2443   2446   2455   2457     1  0.0000000  0.6508444  3
   2444   2443   2446   2455     1  0.0000000  0.6508444  3
   2444   2443   2446   2447     1  0.0000000  0.6508444  3
   2444   2443   2446   2448     1  0.0000000  0.6508444  3
   2445   2443   2446   2455     1  0.0000000  0.6508444  3
   2445   2443   2446   2447     1  0.0000000  0.6508444  3
   2445   2443   2446   2448     1  0.0000000  0.6508444  3
   2447   2446   2455   2464     1  0.0000000  1.0460000  1
   2447   2446   2455   2464     1  0.0000000  0.0000000  3
   2447   2446   2455   2456     1  0.0000000  0.6508444  3
   2447   2446   2455   2457     1  0.0000000  0.6508444  3
   2448   2446   2455   2464     1  0.0000000  1.0460000  1
   2448   2446   2455   2464     1  0.0000000  0.0000000  3
   2448   2446   2455   2456     1  0.0000000  0.6508444  3
   2448   2446   2455   2457     1  0.0000000  0.6508444  3
   2450   2449   2461   4987     1  0.0000000  1.0460000  1
   2450   2449   2461   4987     1  0.0000000  0.0000000  3
   2450   2449   2461   2462     1  0.0000000  0.6508444  3
   2450   2449   2461   2463     1  0.0000000  0.6508444  3
   2451   2449   2461   4987     1  0.0000000  1.0460000  1
   2451   2449   2461   4987     1  0.0000000  0.0000000  3
   2451   2449   2461   2462     1  0.0000000  0.6508444  3
   2451   2449   2461   2463     1  0.0000000  0.6508444  3
   2453   2452   2458   4958     1  0.0000000  1.0460000  1
   2453   2452   2458   4958     1  0.0000000  0.0000000  3
   2453   2452   2458   2459     1  0.0000000  0.6508444  3
   2453   2452   2458   2460     1  0.0000000  0.6508444  3
   2454   2452   2458   4958     1  0.0000000  1.0460000  1
   2454   2452   2458   4958     1  0.0000000  0.0000000  3
   2454   2452   2458   2459     1  0.0000000  0.6508444  3
   2454   2452   2458   2460     1  0.0000000  0.6508444  3
   2458   4958   4949   4950     1  0.0000000  1.6038667  3
   2458   4958   4949   4951     1  0.0000000  1.6038667  3
   2459   2458   4958   4949     1  0.0000000  1.6038667  3
   2460   2458   4958   4949     1  0.0000000  1.6038667  3
   2461   4987   4978   4979     1  0.0000000  1.6038667  3
   2461   4987   4978   4980     1  0.0000000  1.6038667  3
   2462   2461   4987   4978     1  0.0000000  1.6038667  3
   2463   2461   4987   4978     1  0.0000000  1.6038667  3
   2465   2466   2478   2479     1  0.0000000  0.6508444  3
   2465   2466   2478   2480     1  0.0000000  0.6508444  3
   2465   2469   2481   2482     1  0.0000000  0.6508444  3
   2465   2469   2481   2483     1  0.0000000  0.6508444  3
   2465   2472   2475   2476     1  0.0000000  0.6508444  3
   2465   2472   2475   2477     1  0.0000000  0.6508444  3
   2466   2465   2469   2470     1  0.0000000  1.2552000  3
   2466   2465   2469   2471     1  0.0000000  1.2552000  3
   2466   2465   2472   2473     1  0.0000000  1.2552000  3
   2466   2465   2472   2474     1  0.0000000  1.2552000  3
   2466   2478   2490   2491     1  0.0000000  0.6508444  3
   2466   2478   2490   2492     1  0.0000000  0.6508444  3
   2467   2466   2465   2469     1  0.0000000  1.2552000  3
   2467   2466   2465   2472     1  0.0000000  1.2552000  3
   2467   2466   2478   2490     1  0.0000000  0.6508444  3
   2467   2466   2478   2479     1  0.0000000  0.6508444  3
   2467   2466   2478   2480     1  0.0000000  0.6508444  3
   2468   2466   2465   2469     1  0.0000000  1.2552000  3
   2468   2466   2465   2472     1  0.0000000  1.2552000  3
   2468   2466   2478   2490     1  0.0000000  0.6508444  3
   2468   2466   2478   2479     1  0.0000000  0.6508444  3
   2468   2466   2478   2480     1  0.0000000  0.6508444  3
   2469   2465   2472   2473     1  0.0000000  1.2552000  3
   2469   2465   2472   2474     1  0.0000000  1.2552000  3
   2469   2481   2487   2488     1  0.0000000  0.6508444  3
   2469   2481   2487   2489     1  0.0000000  0.6508444  3
   2470   2469   2465   2472     1  0.0000000  1.2552000  3
   2470   2469   2481   2487     1  0.0000000  0.6508444  3
   2470   2469   2481   2482     1  0.0000000  0.6508444  3
   2470   2469   2481   2483     1  0.0000000  0.6508444  3
   2471   2469   2465   2472     1  0.0000000  1.2552000  3
   2471   2469   2481   2487     1  0.0000000  0.6508444  3
   2471   2469   2481   2482     1  0.0000000  0.6508444  3
   2471   2469   2481   2483     1  0.0000000  0.6508444  3
   2472   2475   2484   2485     1  0.0000000  0.6508444  3
   2472   2475   2484   2486     1  0.0000000  0.6508444  3
   2473   2472   2475   2484     1  0.0000000  0.6508444  3
   2473   2472   2475   2476     1  0.0000000  0.6508444  3
   2473   2472   2475   2477     1  0.0000000  0.6508444  3
   2474   2472   2475   2484     1  0.0000000  0.6508444  3
   2474   2472   2475   2476     1  0.0000000  0.6508444  3
   2474   2472   2475   2477     1  0.0000000  0.6508444  3
   2476   2475   2484   2493     1  0.0000000  1.0460000  1
   2476   2475   2484   2493     1  0.0000000  0.0000000  3
   2476   2475   2484   2485     1  0.0000000  0.6508444  3
   2476   2475   2484   2486     1  0.0000000  0.6508444  3
   2477   2475   2484   2493     1  0.0000000  1.0460000  1
   2477   2475   2484   2493     1  0.0000000  0.0000000  3
   2477   2475   2484   2485     1  0.0000000  0.6508444  3
   2477   2475   2484   2486     1  0.0000000  0.6508444  3
   2479   2478   2490   5045     1  0.0000000  1.0460000  1
   2479   2478   2490   5045     1  0.0000000  0.0000000  3
   2479   2478   2490   2491     1  0.0000000  0.6508444  3
   2479   2478   2490   2492     1  0.0000000  0.6508444  3
   2480   2478   2490   5045     1  0.0000000  1.0460000  1
   2480   2478   2490   5045     1  0.0000000  0.0000000  3
   2480   2478   2490   2491     1  0.0000000  0.6508444  3
   2480   2478   2490   2492     1  0.0000000  0.6508444  3
   2482   2481   2487   5016     1  0.0000000  1.0460000  1
   2482   2481   2487   5016     1  0.0000000  0.0000000  3
   2482   2481   2487   2488     1  0.0000000  0.6508444  3
   2482   2481   2487   2489     1  0.0000000  0.6508444  3
   2483   2481   2487   5016     1  0.0000000  1.0460000  1
   2483   2481   2487   5016     1  0.0000000  0.0000000  3
   2483   2481   2487   2488     1  0.0000000  0.6508444  3
   2483   2481   2487   2489     1  0.0000000  0.6508444  3
   2487   5016   5007   5008     1  0.0000000  1.6038667  3
   2487   5016   5007   5009     1  0.0000000  1.6038667  3
   2488   2487   5016   5007     1  0.0000000  1.6038667  3
   2489   2487   5016   5007     1  0.0000000  1.6038667  3
   2490   5045   5036   5037     1  0.0000000  1.6038667  3
   2490   5045   5036   5038     1  0.0000000  1.6038667  3
   2491   2490   5045   5036     1  0.0000000  1.6038667  3
   2492   2490   5045   5036     1  0.0000000  1.6038667  3
   2494   2495   2507   2508     1  0.0000000  0.6508444  3
   2494   2495   2507   2509     1  0.0000000  0.6508444  3
   2494   2498   2510   2511     1  0.0000000  0.6508444  3
   2494   2498   2510   2512     1  0.0000000  0.6508444  3
   2494   2501   2504   2505     1  0.0000000  0.6508444  3
   2494   2501   2504   2506     1  0.0000000  0.6508444  3
   2495   2494   2498   2499     1  0.0000000  1.2552000  3
   2495   2494   2498   2500     1  0.0000000  1.2552000  3
   2495   2494   2501   2502     1  0.0000000  1.2552000  3
   2495   2494   2501   2503     1  0.0000000  1.2552000  3
   2495   2507   2519   2520     1  0.0000000  0.6508444  3
   2495   2507   2519   2521     1  0.0000000  0.6508444  3
   2496   2495   2494   2498     1  0.0000000  1.2552000  3
   2496   2495   2494   2501     1  0.0000000  1.2552000  3
   2496   2495   2507   2519     1  0.0000000  0.6508444  3
   2496   2495   2507   2508     1  0.0000000  0.6508444  3
   2496   2495   2507   2509     1  0.0000000  0.6508444  3
   2497   2495   2494   2498     1  0.0000000  1.2552000  3
   2497   2495   2494   2501     1  0.0000000  1.2552000  3
   2497   2495   2507   2519     1  0.0000000  0.6508444  3
   2497   2495   2507   2508     1  0.0000000  0.6508444  3
   2497   2495   2507   2509     1  0.0000000  0.6508444  3
   2498   2494   2501   2502     1  0.0000000  1.2552000  3
   2498   2494   2501   2503     1  0.0000000  1.2552000  3
   2498   2510   2516   2517     1  0.0000000  0.6508444  3
   2498   2510   2516   2518     1  0.0000000  0.6508444  3
   2499   2498   2494   2501     1  0.0000000  1.2552000  3
   2499   2498   2510   2516     1  0.0000000  0.6508444  3
   2499   2498   2510   2511     1  0.0000000  0.6508444  3
   2499   2498   2510   2512     1  0.0000000  0.6508444  3
   2500   2498   2494   2501     1  0.0000000  1.2552000  3
   2500   2498   2510   2516     1  0.0000000  0.6508444  3
   2500   2498   2510   2511     1  0.0000000  0.6508444  3
   2500   2498   2510   2512     1  0.0000000  0.6508444  3
   2501   2504   2513   2514     1  0.0000000  0.6508444  3
   2501   2504   2513   2515     1  0.0000000  0.6508444  3
   2502   2501   2504   2513     1  0.0000000  0.6508444  3
   2502   2501   2504   2505     1  0.0000000  0.6508444  3
   2502   2501   2504   2506     1  0.0000000  0.6508444  3
   2503   2501   2504   2513     1  0.0000000  0.6508444  3
   2503   2501   2504   2505     1  0.0000000  0.6508444  3
   2503   2501   2504   2506     1  0.0000000  0.6508444  3
   2505   2504   2513   2522     1  0.0000000  1.0460000  1
   2505   2504   2513   2522     1  0.0000000  0.0000000  3
   2505   2504   2513   2514     1  0.0000000  0.6508444  3
   2505   2504   2513   2515     1  0.0000000  0.6508444  3
   2506   2504   2513   2522     1  0.0000000  1.0460000  1
   2506   2504   2513   2522     1  0.0000000  0.0000000  3
   2506   2504   2513   2514     1  0.0000000  0.6508444  3
   2506   2504   2513   2515     1  0.0000000  0.6508444  3
   2508   2507   2519   5103     1  0.0000000  1.0460000  1
   2508   2507   2519   5103     1  0.0000000  0.0000000  3
   2508   2507   2519   2520     1  0.0000000  0.6508444  3
   2508   2507   2519   2521     1  0.0000000  0.6508444  3
   2509   2507   2519   5103     1  0.0000000  1.0460000  1
   2509   2507   2519   5103     1  0.0000000  0.0000000  3
   2509   2507   2519   2520     1  0.0000000  0.6508444  3
   2509   2507   2519   2521     1  0.0000000  0.6508444  3
   2511   2510   2516   5074     1  0.0000000  1.0460000  1
   2511   2510   2516   5074     1  0.0000000  0.0000000  3
   2511   2510   2516   2517     1  0.0000000  0.6508444  3
   2511   2510   2516   2518     1  0.0000000  0.6508444  3
   2512   2510   2516   5074     1  0.0000000  1.0460000  1
   2512   2510   2516   5074     1  0.0000000  0.0000000  3
   2512   2510   2516   2517     1  0.0000000  0.6508444  3
   2512   2510   2516   2518     1  0.0000000  0.6508444  3
   2516   5074   5065   5066     1  0.0000000  1.6038667  3
   2516   5074   5065   5067     1  0.0000000  1.6038667  3
   2517   2516   5074   5065     1  0.0000000  1.6038667  3
   2518   2516   5074   5065     1  0.0000000  1.6038667  3
   2519   5103   5094   5095     1  0.0000000  1.6038667  3
   2519   5103   5094   5096     1  0.0000000  1.6038667  3
   2520   2519   5103   5094     1  0.0000000  1.6038667  3
   2521   2519   5103   5094     1  0.0000000  1.6038667  3
   2523   2524   2536   2537     1  0.0000000  0.6508444  3
   2523   2524   2536   2538     1  0.0000000  0.6508444  3
   2523   2527   2539   2540     1  0.0000000  0.6508444  3
   2523   2527   2539   2541     1  0.0000000  0.6508444  3
   2523   2530   2533   2534     1  0.0000000  0.6508444  3
   2523   2530   2533   2535     1  0.0000000  0.6508444  3
   2524   2523   2527   2528     1  0.0000000  1.2552000  3
   2524   2523   2527   2529     1  0.0000000  1.2552000  3
   2524   2523   2530   2531     1  0.0000000  1.2552000  3
   2524   2523   2530   2532     1  0.0000000  1.2552000  3
   2524   2536   2548   2549     1  0.0000000  0.6508444  3
   2524   2536   2548   2550     1  0.0000000  0.6508444  3
   2525   2524   2523   2527     1  0.0000000  1.2552000  3
   2525   2524   2523   2530     1  0.0000000  1.2552000  3
   2525   2524   2536   2548     1  0.0000000  0.6508444  3
   2525   2524   2536   2537     1  0.0000000  0.6508444  3
   2525   2524   2536   2538     1  0.0000000  0.6508444  3
   2526   2524   2523   2527     1  0.0000000  1.2552000  3
   2526   2524   2523   2530     1  0.0000000  1.2552000  3
   2526   2524   2536   2548     1  0.0000000  0.6508444  3
   2526   2524   2536   2537     1  0.0000000  0.6508444  3
   2526   2524   2536   2538     1  0.0000000  0.6508444  3
   2527   2523   2530   2531     1  0.0000000  1.2552000  3
   2527   2523   2530   2532     1  0.0000000  1.2552000  3
   2527   2539   2545   2546     1  0.0000000  0.6508444  3
   2527   2539   2545   2547     1  0.0000000  0.6508444  3
   2528   2527   2523   2530     1  0.0000000  1.2552000  3
   2528   2527   2539   2545     1  0.0000000  0.6508444  3
   2528   2527   2539   2540     1  0.0000000  0.6508444  3
   2528   2527   2539   2541     1  0.0000000  0.6508444  3
   2529   2527   2523   2530     1  0.0000000  1.2552000  3
   2529   2527   2539   2545     1  0.0000000  0.6508444  3
   2529   2527   2539   2540     1  0.0000000  0.6508444  3
   2529   2527   2539   2541     1  0.0000000  0.6508444  3
   2530   2533   2542   2543     1  0.0000000  0.6508444  3
   2530   2533   2542   2544     1  0.0000000  0.6508444  3
   2531   2530   2533   2542     1  0.0000000  0.6508444  3
   2531   2530   2533   2534     1  0.0000000  0.6508444  3
   2531   2530   2533   2535     1  0.0000000  0.6508444  3
   2532   2530   2533   2542     1  0.0000000  0.6508444  3
   2532   2530   2533   2534     1  0.0000000  0.6508444  3
   2532   2530   2533   2535     1  0.0000000  0.6508444  3
   2534   2533   2542   2551     1  0.0000000  1.0460000  1
   2534   2533   2542   2551     1  0.0000000  0.0000000  3
   2534   2533   2542   2543     1  0.0000000  0.6508444  3
   2534   2533   2542   2544     1  0.0000000  0.6508444  3
   2535   2533   2542   2551     1  0.0000000  1.0460000  1
   2535   2533   2542   2551     1  0.0000000  0.0000000  3
   2535   2533   2542   2543     1  0.0000000  0.6508444  3
   2535   2533   2542   2544     1  0.0000000  0.6508444  3
   2537   2536   2548   5161     1  0.0000000  1.0460000  1
   2537   2536   2548   5161     1  0.0000000  0.0000000  3
   2537   2536   2548   2549     1  0.0000000  0.6508444  3
   2537   2536   2548   2550     1  0.0000000  0.6508444  3
   2538   2536   2548   5161     1  0.0000000  1.0460000  1
   2538   2536   2548   5161     1  0.0000000  0.0000000  3
   2538   2536   2548   2549     1  0.0000000  0.6508444  3
   2538   2536   2548   2550     1  0.0000000  0.6508444  3
   2540   2539   2545   5132     1  0.0000000  1.0460000  1
   2540   2539   2545   5132     1  0.0000000  0.0000000  3
   2540   2539   2545   2546     1  0.0000000  0.6508444  3
   2540   2539   2545   2547     1  0.0000000  0.6508444  3
   2541   2539   2545   5132     1  0.0000000  1.0460000  1
   2541   2539   2545   5132     1  0.0000000  0.0000000  3
   2541   2539   2545   2546     1  0.0000000  0.6508444  3
   2541   2539   2545   2547     1  0.0000000  0.6508444  3
   2545   5132   5123   5124     1  0.0000000  1.6038667  3
   2545   5132   5123   5125     1  0.0000000  1.6038667  3
   2546   2545   5132   5123     1  0.0000000  1.6038667  3
   2547   2545   5132   5123     1  0.0000000  1.6038667  3
   2548   5161   5152   5153     1  0.0000000  1.6038667  3
   2548   5161   5152   5154     1  0.0000000  1.6038667  3
   2549   2548   5161   5152     1  0.0000000  1.6038667  3
   2550   2548   5161   5152     1  0.0000000  1.6038667  3
   2552   2553   2565   2566     1  0.0000000  0.6508444  3
   2552   2553   2565   2567     1  0.0000000  0.6508444  3
   2552   2556   2568   2569     1  0.0000000  0.6508444  3
   2552   2556   2568   2570     1  0.0000000  0.6508444  3
   2552   2559   2562   2563     1  0.0000000  0.6508444  3
   2552   2559   2562   2564     1  0.0000000  0.6508444  3
   2553   2552   2556   2557     1  0.0000000  1.2552000  3
   2553   2552   2556   2558     1  0.0000000  1.2552000  3
   2553   2552   2559   2560     1  0.0000000  1.2552000  3
   2553   2552   2559   2561     1  0.0000000  1.2552000  3
   2553   2565   2577   2578     1  0.0000000  0.6508444  3
   2553   2565   2577   2579     1  0.0000000  0.6508444  3
   2554   2553   2552   2556     1  0.0000000  1.2552000  3
   2554   2553   2552   2559     1  0.0000000  1.2552000  3
   2554   2553   2565   2577     1  0.0000000  0.6508444  3
   2554   2553   2565   2566     1  0.0000000  0.6508444  3
   2554   2553   2565   2567     1  0.0000000  0.6508444  3
   2555   2553   2552   2556     1  0.0000000  1.2552000  3
   2555   2553   2552   2559     1  0.0000000  1.2552000  3
   2555   2553   2565   2577     1  0.0000000  0.6508444  3
   2555   2553   2565   2566     1  0.0000000  0.6508444  3
   2555   2553   2565   2567     1  0.0000000  0.6508444  3
   2556   2552   2559   2560     1  0.0000000  1.2552000  3
   2556   2552   2559   2561     1  0.0000000  1.2552000  3
   2556   2568   2574   2575     1  0.0000000  0.6508444  3
   2556   2568   2574   2576     1  0.0000000  0.6508444  3
   2557   2556   2552   2559     1  0.0000000  1.2552000  3
   2557   2556   2568   2574     1  0.0000000  0.6508444  3
   2557   2556   2568   2569     1  0.0000000  0.6508444  3
   2557   2556   2568   2570     1  0.0000000  0.6508444  3
   2558   2556   2552   2559     1  0.0000000  1.2552000  3
   2558   2556   2568   2574     1  0.0000000  0.6508444  3
   2558   2556   2568   2569     1  0.0000000  0.6508444  3
   2558   2556   2568   2570     1  0.0000000  0.6508444  3
   2559   2562   2571   2572     1  0.0000000  0.6508444  3
   2559   2562   2571   2573     1  0.0000000  0.6508444  3
   2560   2559   2562   2571     1  0.0000000  0.6508444  3
   2560   2559   2562   2563     1  0.0000000  0.6508444  3
   2560   2559   2562   2564     1  0.0000000  0.6508444  3
   2561   2559   2562   2571     1  0.0000000  0.6508444  3
   2561   2559   2562   2563     1  0.0000000  0.6508444  3
   2561   2559   2562   2564     1  0.0000000  0.6508444  3
   2563   2562   2571   2580     1  0.0000000  1.0460000  1
   2563   2562   2571   2580     1  0.0000000  0.0000000  3
   2563   2562   2571   2572     1  0.0000000  0.6508444  3
   2563   2562   2571   2573     1  0.0000000  0.6508444  3
   2564   2562   2571   2580     1  0.0000000  1.0460000  1
   2564   2562   2571   2580     1  0.0000000  0.0000000  3
   2564   2562   2571   2572     1  0.0000000  0.6508444  3
   2564   2562   2571   2573     1  0.0000000  0.6508444  3
   2566   2565   2577   5219     1  0.0000000  1.0460000  1
   2566   2565   2577   5219     1  0.0000000  0.0000000  3
   2566   2565   2577   2578     1  0.0000000  0.6508444  3
   2566   2565   2577   2579     1  0.0000000  0.6508444  3
   2567   2565   2577   5219     1  0.0000000  1.0460000  1
   2567   2565   2577   5219     1  0.0000000  0.0000000  3
   2567   2565   2577   2578     1  0.0000000  0.6508444  3
   2567   2565   2577   2579     1  0.0000000  0.6508444  3
   2569   2568   2574   5190     1  0.0000000  1.0460000  1
   2569   2568   2574   5190     1  0.0000000  0.0000000  3
   2569   2568   2574   2575     1  0.0000000  0.6508444  3
   2569   2568   2574   2576     1  0.0000000  0.6508444  3
   2570   2568   2574   5190     1  0.0000000  1.0460000  1
   2570   2568   2574   5190     1  0.0000000  0.0000000  3
   2570   2568   2574   2575     1  0.0000000  0.6508444  3
   2570   2568   2574   2576     1  0.0000000  0.6508444  3
   2574   5190   5181   5182     1  0.0000000  1.6038667  3
   2574   5190   5181   5183     1  0.0000000  1.6038667  3
   2575   2574   5190   5181     1  0.0000000  1.6038667  3
   2576   2574   5190   5181     1  0.0000000  1.6038667  3
   2577   5219   5210   5211     1  0.0000000  1.6038667  3
   2577   5219   5210   5212     1  0.0000000  1.6038667  3
   2578   2577   5219   5210     1  0.0000000  1.6038667  3
   2579   2577   5219   5210     1  0.0000000  1.6038667  3
   2581   2582   2594   2595     1  0.0000000  0.6508444  3
   2581   2582   2594   2596     1  0.0000000  0.6508444  3
   2581   2585   2597   2598     1  0.0000000  0.6508444  3
   2581   2585   2597   2599     1  0.0000000  0.6508444  3
   2581   2588   2591   2592     1  0.0000000  0.6508444  3
   2581   2588   2591   2593     1  0.0000000  0.6508444  3
   2582   2581   2585   2586     1  0.0000000  1.2552000  3
   2582   2581   2585   2587     1  0.0000000  1.2552000  3
   2582   2581   2588   2589     1  0.0000000  1.2552000  3
   2582   2581   2588   2590     1  0.0000000  1.2552000  3
   2582   2594   2606   2607     1  0.0000000  0.6508444  3
   2582   2594   2606   2608     1  0.0000000  0.6508444  3
   2583   2582   2581   2585     1  0.0000000  1.2552000  3
   2583   2582   2581   2588     1  0.0000000  1.2552000  3
   2583   2582   2594   2606     1  0.0000000  0.6508444  3
   2583   2582   2594   2595     1  0.0000000  0.6508444  3
   2583   2582   2594   2596     1  0.0000000  0.6508444  3
   2584   2582   2581   2585     1  0.0000000  1.2552000  3
   2584   2582   2581   2588     1  0.0000000  1.2552000  3
   2584   2582   2594   2606     1  0.0000000  0.6508444  3
   2584   2582   2594   2595     1  0.0000000  0.6508444  3
   2584   2582   2594   2596     1  0.0000000  0.6508444  3
   2585   2581   2588   2589     1  0.0000000  1.2552000  3
   2585   2581   2588   2590     1  0.0000000  1.2552000  3
   2585   2597   2603   2604     1  0.0000000  0.6508444  3
   2585   2597   2603   2605     1  0.0000000  0.6508444  3
   2586   2585   2581   2588     1  0.0000000  1.2552000  3
   2586   2585   2597   2603     1  0.0000000  0.6508444  3
   2586   2585   2597   2598     1  0.0000000  0.6508444  3
   2586   2585   2597   2599     1  0.0000000  0.6508444  3
   2587   2585   2581   2588     1  0.0000000  1.2552000  3
   2587   2585   2597   2603     1  0.0000000  0.6508444  3
   2587   2585   2597   2598     1  0.0000000  0.6508444  3
   2587   2585   2597   2599     1  0.0000000  0.6508444  3
   2588   2591   2600   2601     1  0.0000000  0.6508444  3
   2588   2591   2600   2602     1  0.0000000  0.6508444  3
   2589   2588   2591   2600     1  0.0000000  0.6508444  3
   2589   2588   2591   2592     1  0.0000000  0.6508444  3
   2589   2588   2591   2593     1  0.0000000  0.6508444  3
   2590   2588   2591   2600     1  0.0000000  0.6508444  3
   2590   2588   2591   2592     1  0.0000000  0.6508444  3
   2590   2588   2591   2593     1  0.0000000  0.6508444  3
   2592   2591   2600   2609     1  0.0000000  1.0460000  1
   2592   2591   2600   2609     1  0.0000000  0.0000000  3
   2592   2591   2600   2601     1  0.0000000  0.6508444  3
   2592   2591   2600   2602     1  0.0000000  0.6508444  3
   2593   2591   2600   2609     1  0.0000000  1.0460000  1
   2593   2591   2600   2609     1  0.0000000  0.0000000  3
   2593   2591   2600   2601     1  0.0000000  0.6508444  3
   2593   2591   2600   2602     1  0.0000000  0.6508444  3
   2595   2594   2606   5277     1  0.0000000  1.0460000  1
   2595   2594   2606   5277     1  0.0000000  0.0000000  3
   2595   2594   2606   2607     1  0.0000000  0.6508444  3
   2595   2594   2606   2608     1  0.0000000  0.6508444  3
   2596   2594   2606   5277     1  0.0000000  1.0460000  1
   2596   2594   2606   5277     1  0.0000000  0.0000000  3
   2596   2594   2606   2607     1  0.0000000  0.6508444  3
   2596   2594   2606   2608     1  0.0000000  0.6508444  3
   2598   2597   2603   5248     1  0.0000000  1.0460000  1
   2598   2597   2603   5248     1  0.0000000  0.0000000  3
   2598   2597   2603   2604     1  0.0000000  0.6508444  3
   2598   2597   2603   2605     1  0.0000000  0.6508444  3
   2599   2597   2603   5248     1  0.0000000  1.0460000  1
   2599   2597   2603   5248     1  0.0000000  0.0000000  3
   2599   2597   2603   2604     1  0.0000000  0.6508444  3
   2599   2597   2603   2605     1  0.0000000  0.6508444  3
   2603   5248   5239   5240     1  0.0000000  1.6038667  3
   2603   5248   5239   5241     1  0.0000000  1.6038667  3
   2604   2603   5248   5239     1  0.0000000  1.6038667  3
   2605   2603   5248   5239     1  0.0000000  1.6038667  3
   2606   5277   5268   5269     1  0.0000000  1.6038667  3
   2606   5277   5268   5270     1  0.0000000  1.6038667  3
   2607   2606   5277   5268     1  0.0000000  1.6038667  3
   2608   2606   5277   5268     1  0.0000000  1.6038667  3
   2610   2611   2623   2624     1  0.0000000  0.6508444  3
   2610   2611   2623   2625     1  0.0000000  0.6508444  3
   2610   2614   2626   2627     1  0.0000000  0.6508444  3
   2610   2614   2626   2628     1  0.0000000  0.6508444  3
   2610   2617   2620   2621     1  0.0000000  0.6508444  3
   2610   2617   2620   2622     1  0.0000000  0.6508444  3
   2611   2610   2614   2615     1  0.0000000  1.2552000  3
   2611   2610   2614   2616     1  0.0000000  1.2552000  3
   2611   2610   2617   2618     1  0.0000000  1.2552000  3
   2611   2610   2617   2619     1  0.0000000  1.2552000  3
   2611   2623   2635   2636     1  0.0000000  0.6508444  3
   2611   2623   2635   2637     1  0.0000000  0.6508444  3
   2612   2611   2610   2614     1  0.0000000  1.2552000  3
   2612   2611   2610   2617     1  0.0000000  1.2552000  3
   2612   2611   2623   2635     1  0.0000000  0.6508444  3
   2612   2611   2623   2624     1  0.0000000  0.6508444  3
   2612   2611   2623   2625     1  0.0000000  0.6508444  3
   2613   2611   2610   2614     1  0.0000000  1.2552000  3
   2613   2611   2610   2617     1  0.0000000  1.2552000  3
   2613   2611   2623   2635     1  0.0000000  0.6508444  3
   2613   2611   2623   2624     1  0.0000000  0.6508444  3
   2613   2611   2623   2625     1  0.0000000  0.6508444  3
   2614   2610   2617   2618     1  0.0000000  1.2552000  3
   2614   2610   2617   2619     1  0.0000000  1.2552000  3
   2614   2626   2632   2633     1  0.0000000  0.6508444  3
   2614   2626   2632   2634     1  0.0000000  0.6508444  3
   2615   2614   2610   2617     1  0.0000000  1.2552000  3
   2615   2614   2626   2632     1  0.0000000  0.6508444  3
   2615   2614   2626   2627     1  0.0000000  0.6508444  3
   2615   2614   2626   2628     1  0.0000000  0.6508444  3
   2616   2614   2610   2617     1  0.0000000  1.2552000  3
   2616   2614   2626   2632     1  0.0000000  0.6508444  3
   2616   2614   2626   2627     1  0.0000000  0.6508444  3
   2616   2614   2626   2628     1  0.0000000  0.6508444  3
   2617   2620   2629   2630     1  0.0000000  0.6508444  3
   2617   2620   2629   2631     1  0.0000000  0.6508444  3
   2618   2617   2620   2629     1  0.0000000  0.6508444  3
   2618   2617   2620   2621     1  0.0000000  0.6508444  3
   2618   2617   2620   2622     1  0.0000000  0.6508444  3
   2619   2617   2620   2629     1  0.0000000  0.6508444  3
   2619   2617   2620   2621     1  0.0000000  0.6508444  3
   2619   2617   2620   2622     1  0.0000000  0.6508444  3
   2621   2620   2629   2638     1  0.0000000  1.0460000  1
   2621   2620   2629   2638     1  0.0000000  0.0000000  3
   2621   2620   2629   2630     1  0.0000000  0.6508444  3
   2621   2620   2629   2631     1  0.0000000  0.6508444  3
   2622   2620   2629   2638     1  0.0000000  1.0460000  1
   2622   2620   2629   2638     1  0.0000000  0.0000000  3
   2622   2620   2629   2630     1  0.0000000  0.6508444  3
   2622   2620   2629   2631     1  0.0000000  0.6508444  3
   2624   2623   2635   5335     1  0.0000000  1.0460000  1
   2624   2623   2635   5335     1  0.0000000  0.0000000  3
   2624   2623   2635   2636     1  0.0000000  0.6508444  3
   2624   2623   2635   2637     1  0.0000000  0.6508444  3
   2625   2623   2635   5335     1  0.0000000  1.0460000  1
   2625   2623   2635   5335     1  0.0000000  0.0000000  3
   2625   2623   2635   2636     1  0.0000000  0.6508444  3
   2625   2623   2635   2637     1  0.0000000  0.6508444  3
   2627   2626   2632   5306     1  0.0000000  1.0460000  1
   2627   2626   2632   5306     1  0.0000000  0.0000000  3
   2627   2626   2632   2633     1  0.0000000  0.6508444  3
   2627   2626   2632   2634     1  0.0000000  0.6508444  3
   2628   2626   2632   5306     1  0.0000000  1.0460000  1
   2628   2626   2632   5306     1  0.0000000  0.0000000  3
   2628   2626   2632   2633     1  0.0000000  0.6508444  3
   2628   2626   2632   2634     1  0.0000000  0.6508444  3
   2632   5306   5297   5298     1  0.0000000  1.6038667  3
   2632   5306   5297   5299     1  0.0000000  1.6038667  3
   2633   2632   5306   5297     1  0.0000000  1.6038667  3
   2634   2632   5306   5297     1  0.0000000  1.6038667  3
   2635   5335   5326   5327     1  0.0000000  1.6038667  3
   2635   5335   5326   5328     1  0.0000000  1.6038667  3
   2636   2635   5335   5326     1  0.0000000  1.6038667  3
   2637   2635   5335   5326     1  0.0000000  1.6038667  3
   2639   2640   2652   2653     1  0.0000000  0.6508444  3
   2639   2640   2652   2654     1  0.0000000  0.6508444  3
   2639   2643   2655   2656     1  0.0000000  0.6508444  3
   2639   2643   2655   2657     1  0.0000000  0.6508444  3
   2639   2646   2649   2650     1  0.0000000  0.6508444  3
   2639   2646   2649   2651     1  0.0000000  0.6508444  3
   2640   2639   2643   2644     1  0.0000000  1.2552000  3
   2640   2639   2643   2645     1  0.0000000  1.2552000  3
   2640   2639   2646   2647     1  0.0000000  1.2552000  3
   2640   2639   2646   2648     1  0.0000000  1.2552000  3
   2640   2652   2664   2665     1  0.0000000  0.6508444  3
   2640   2652   2664   2666     1  0.0000000  0.6508444  3
   2641   2640   2639   2643     1  0.0000000  1.2552000  3
   2641   2640   2639   2646     1  0.0000000  1.2552000  3
   2641   2640   2652   2664     1  0.0000000  0.6508444  3
   2641   2640   2652   2653     1  0.0000000  0.6508444  3
   2641   2640   2652   2654     1  0.0000000  0.6508444  3
   2642   2640   2639   2643     1  0.0000000  1.2552000  3
   2642   2640   2639   2646     1  0.0000000  1.2552000  3
   2642   2640   2652   2664     1  0.0000000  0.6508444  3
   2642   2640   2652   2653     1  0.0000000  0.6508444  3
   2642   2640   2652   2654     1  0.0000000  0.6508444  3
   2643   2639   2646   2647     1  0.0000000  1.2552000  3
   2643   2639   2646   2648     1  0.0000000  1.2552000  3
   2643   2655   2661   2662     1  0.0000000  0.6508444  3
   2643   2655   2661   2663     1  0.0000000  0.6508444  3
   2644   2643   2639   2646     1  0.0000000  1.2552000  3
   2644   2643   2655   2661     1  0.0000000  0.6508444  3
   2644   2643   2655   2656     1  0.0000000  0.6508444  3
   2644   2643   2655   2657     1  0.0000000  0.6508444  3
   2645   2643   2639   2646     1  0.0000000  1.2552000  3
   2645   2643   2655   2661     1  0.0000000  0.6508444  3
   2645   2643   2655   2656     1  0.0000000  0.6508444  3
   2645   2643   2655   2657     1  0.0000000  0.6508444  3
   2646   2649   2658   2659     1  0.0000000  0.6508444  3
   2646   2649   2658   2660     1  0.0000000  0.6508444  3
   2647   2646   2649   2658     1  0.0000000  0.6508444  3
   2647   2646   2649   2650     1  0.0000000  0.6508444  3
   2647   2646   2649   2651     1  0.0000000  0.6508444  3
   2648   2646   2649   2658     1  0.0000000  0.6508444  3
   2648   2646   2649   2650     1  0.0000000  0.6508444  3
   2648   2646   2649   2651     1  0.0000000  0.6508444  3
   2650   2649   2658   2667     1  0.0000000  1.0460000  1
   2650   2649   2658   2667     1  0.0000000  0.0000000  3
   2650   2649   2658   2659     1  0.0000000  0.6508444  3
   2650   2649   2658   2660     1  0.0000000  0.6508444  3
   2651   2649   2658   2667     1  0.0000000  1.0460000  1
   2651   2649   2658   2667     1  0.0000000  0.0000000  3
   2651   2649   2658   2659     1  0.0000000  0.6508444  3
   2651   2649   2658   2660     1  0.0000000  0.6508444  3
   2653   2652   2664   5393     1  0.0000000  1.0460000  1
   2653   2652   2664   5393     1  0.0000000  0.0000000  3
   2653   2652   2664   2665     1  0.0000000  0.6508444  3
   2653   2652   2664   2666     1  0.0000000  0.6508444  3
   2654   2652   2664   5393     1  0.0000000  1.0460000  1
   2654   2652   2664   5393     1  0.0000000  0.0000000  3
   2654   2652   2664   2665     1  0.0000000  0.6508444  3
   2654   2652   2664   2666     1  0.0000000  0.6508444  3
   2656   2655   2661   5364     1  0.0000000  1.0460000  1
   2656   2655   2661   5364     1  0.0000000  0.0000000  3
   2656   2655   2661   2662     1  0.0000000  0.6508444  3
   2656   2655   2661   2663     1  0.0000000  0.6508444  3
   2657   2655   2661   5364     1  0.0000000  1.0460000  1
   2657   2655   2661   5364     1  0.0000000  0.0000000  3
   2657   2655   2661   2662     1  0.0000000  0.6508444  3
   2657   2655   2661   2663     1  0.0000000  0.6508444  3
   2661   5364   5355   5356     1  0.0000000  1.6038667  3
   2661   5364   5355   5357     1  0.0000000  1.6038667  3
   2662   2661   5364   5355     1  0.0000000  1.6038667  3
   2663   2661   5364   5355     1  0.0000000  1.6038667  3
   2664   5393   5384   5385     1  0.0000000  1.6038667  3
   2664   5393   5384   5386     1  0.0000000  1.6038667  3
   2665   2664   5393   5384     1  0.0000000  1.6038667  3
   2666   2664   5393   5384     1  0.0000000  1.6038667  3
   2668   2669   2681   2682     1  0.0000000  0.6508444  3
   2668   2669   2681   2683     1  0.0000000  0.6508444  3
   2668   2672   2684   2685     1  0.0000000  0.6508444  3
   2668   2672   2684   2686     1  0.0000000  0.6508444  3
   2668   2675   2678   2679     1  0.0000000  0.6508444  3
   2668   2675   2678   2680     1  0.0000000  0.6508444  3
   2669   2668   2672   2673     1  0.0000000  1.2552000  3
   2669   2668   2672   2674     1  0.0000000  1.2552000  3
   2669   2668   2675   2676     1  0.0000000  1.2552000  3
   2669   2668   2675   2677     1  0.0000000  1.2552000  3
   2669   2681   2693   2694     1  0.0000000  0.6508444  3
   2669   2681   2693   2695     1  0.0000000  0.6508444  3
   2670   2669   2668   2672     1  0.0000000  1.2552000  3
   2670   2669   2668   2675     1  0.0000000  1.2552000  3
   2670   2669   2681   2693     1  0.0000000  0.6508444  3
   2670   2669   2681   2682     1  0.0000000  0.6508444  3
   2670   2669   2681   2683     1  0.0000000  0.6508444  3
   2671   2669   2668   2672     1  0.0000000  1.2552000  3
   2671   2669   2668   2675     1  0.0000000  1.2552000  3
   2671   2669   2681   2693     1  0.0000000  0.6508444  3
   2671   2669   2681   2682     1  0.0000000  0.6508444  3
   2671   2669   2681   2683     1  0.0000000  0.6508444  3
   2672   2668   2675   2676     1  0.0000000  1.2552000  3
   2672   2668   2675   2677     1  0.0000000  1.2552000  3
   2672   2684   2690   2691     1  0.0000000  0.6508444  3
   2672   2684   2690   2692     1  0.0000000  0.6508444  3
   2673   2672   2668   2675     1  0.0000000  1.2552000  3
   2673   2672   2684   2690     1  0.0000000  0.6508444  3
   2673   2672   2684   2685     1  0.0000000  0.6508444  3
   2673   2672   2684   2686     1  0.0000000  0.6508444  3
   2674   2672   2668   2675     1  0.0000000  1.2552000  3
   2674   2672   2684   2690     1  0.0000000  0.6508444  3
   2674   2672   2684   2685     1  0.0000000  0.6508444  3
   2674   2672   2684   2686     1  0.0000000  0.6508444  3
   2675   2678   2687   2688     1  0.0000000  0.6508444  3
   2675   2678   2687   2689     1  0.0000000  0.6508444  3
   2676   2675   2678   2687     1  0.0000000  0.6508444  3
   2676   2675   2678   2679     1  0.0000000  0.6508444  3
   2676   2675   2678   2680     1  0.0000000  0.6508444  3
   2677   2675   2678   2687     1  0.0000000  0.6508444  3
   2677   2675   2678   2679     1  0.0000000  0.6508444  3
   2677   2675   2678   2680     1  0.0000000  0.6508444  3
   2679   2678   2687   2696     1  0.0000000  1.0460000  1
   2679   2678   2687   2696     1  0.0000000  0.0000000  3
   2679   2678   2687   2688     1  0.0000000  0.6508444  3
   2679   2678   2687   2689     1  0.0000000  0.6508444  3
   2680   2678   2687   2696     1  0.0000000  1.0460000  1
   2680   2678   2687   2696     1  0.0000000  0.0000000  3
   2680   2678   2687   2688     1  0.0000000  0.6508444  3
   2680   2678   2687   2689     1  0.0000000  0.6508444  3
   2682   2681   2693   5451     1  0.0000000  1.0460000  1
   2682   2681   2693   5451     1  0.0000000  0.0000000  3
   2682   2681   2693   2694     1  0.0000000  0.6508444  3
   2682   2681   2693   2695     1  0.0000000  0.6508444  3
   2683   2681   2693   5451     1  0.0000000  1.0460000  1
   2683   2681   2693   5451     1  0.0000000  0.0000000  3
   2683   2681   2693   2694     1  0.0000000  0.6508444  3
   2683   2681   2693   2695     1  0.0000000  0.6508444  3
   2685   2684   2690   5422     1  0.0000000  1.0460000  1
   2685   2684   2690   5422     1  0.0000000  0.0000000  3
   2685   2684   2690   2691     1  0.0000000  0.6508444  3
   2685   2684   2690   2692     1  0.0000000  0.6508444  3
   2686   2684   2690   5422     1  0.0000000  1.0460000  1
   2686   2684   2690   5422     1  0.0000000  0.0000000  3
   2686   2684   2690   2691     1  0.0000000  0.6508444  3
   2686   2684   2690   2692     1  0.0000000  0.6508444  3
   2690   5422   5413   5414     1  0.0000000  1.6038667  3
   2690   5422   5413   5415     1  0.0000000  1.6038667  3
   2691   2690   5422   5413     1  0.0000000  1.6038667  3
   2692   2690   5422   5413     1  0.0000000  1.6038667  3
   2693   5451   5442   5443     1  0.0000000  1.6038667  3
   2693   5451   5442   5444     1  0.0000000  1.6038667  3
   2694   2693   5451   5442     1  0.0000000  1.6038667  3
   2695   2693   5451   5442     1  0.0000000  1.6038667  3
   2697   2698   2710   2711     1  0.0000000  0.6508444  3
   2697   2698   2710   2712     1  0.0000000  0.6508444  3
   2697   2701   2713   2714     1  0.0000000  0.6508444  3
   2697   2701   2713   2715     1  0.0000000  0.6508444  3
   2697   2704   2707   2708     1  0.0000000  0.6508444  3
   2697   2704   2707   2709     1  0.0000000  0.6508444  3
   2698   2697   2701   2702     1  0.0000000  1.2552000  3
   2698   2697   2701   2703     1  0.0000000  1.2552000  3
   2698   2697   2704   2705     1  0.0000000  1.2552000  3
   2698   2697   2704   2706     1  0.0000000  1.2552000  3
   2698   2710   2722   2723     1  0.0000000  0.6508444  3
   2698   2710   2722   2724     1  0.0000000  0.6508444  3
   2699   2698   2697   2701     1  0.0000000  1.2552000  3
   2699   2698   2697   2704     1  0.0000000  1.2552000  3
   2699   2698   2710   2722     1  0.0000000  0.6508444  3
   2699   2698   2710   2711     1  0.0000000  0.6508444  3
   2699   2698   2710   2712     1  0.0000000  0.6508444  3
   2700   2698   2697   2701     1  0.0000000  1.2552000  3
   2700   2698   2697   2704     1  0.0000000  1.2552000  3
   2700   2698   2710   2722     1  0.0000000  0.6508444  3
   2700   2698   2710   2711     1  0.0000000  0.6508444  3
   2700   2698   2710   2712     1  0.0000000  0.6508444  3
   2701   2697   2704   2705     1  0.0000000  1.2552000  3
   2701   2697   2704   2706     1  0.0000000  1.2552000  3
   2701   2713   2719   2720     1  0.0000000  0.6508444  3
   2701   2713   2719   2721     1  0.0000000  0.6508444  3
   2702   2701   2697   2704     1  0.0000000  1.2552000  3
   2702   2701   2713   2719     1  0.0000000  0.6508444  3
   2702   2701   2713   2714     1  0.0000000  0.6508444  3
   2702   2701   2713   2715     1  0.0000000  0.6508444  3
   2703   2701   2697   2704     1  0.0000000  1.2552000  3
   2703   2701   2713   2719     1  0.0000000  0.6508444  3
   2703   2701   2713   2714     1  0.0000000  0.6508444  3
   2703   2701   2713   2715     1  0.0000000  0.6508444  3
   2704   2707   2716   2717     1  0.0000000  0.6508444  3
   2704   2707   2716   2718     1  0.0000000  0.6508444  3
   2705   2704   2707   2716     1  0.0000000  0.6508444  3
   2705   2704   2707   2708     1  0.0000000  0.6508444  3
   2705   2704   2707   2709     1  0.0000000  0.6508444  3
   2706   2704   2707   2716     1  0.0000000  0.6508444  3
   2706   2704   2707   2708     1  0.0000000  0.6508444  3
   2706   2704   2707   2709     1  0.0000000  0.6508444  3
   2708   2707   2716   2725     1  0.0000000  1.0460000  1
   2708   2707   2716   2725     1  0.0000000  0.0000000  3
   2708   2707   2716   2717     1  0.0000000  0.6508444  3
   2708   2707   2716   2718     1  0.0000000  0.6508444  3
   2709   2707   2716   2725     1  0.0000000  1.0460000  1
   2709   2707   2716   2725     1  0.0000000  0.0000000  3
   2709   2707   2716   2717     1  0.0000000  0.6508444  3
   2709   2707   2716   2718     1  0.0000000  0.6508444  3
   2711   2710   2722   5509     1  0.0000000  1.0460000  1
   2711   2710   2722   5509     1  0.0000000  0.0000000  3
   2711   2710   2722   2723     1  0.0000000  0.6508444  3
   2711   2710   2722   2724     1  0.0000000  0.6508444  3
   2712   2710   2722   5509     1  0.0000000  1.0460000  1
   2712   2710   2722   5509     1  0.0000000  0.0000000  3
   2712   2710   2722   2723     1  0.0000000  0.6508444  3
   2712   2710   2722   2724     1  0.0000000  0.6508444  3
   2714   2713   2719   5480     1  0.0000000  1.0460000  1
   2714   2713   2719   5480     1  0.0000000  0.0000000  3
   2714   2713   2719   2720     1  0.0000000  0.6508444  3
   2714   2713   2719   2721     1  0.0000000  0.6508444  3
   2715   2713   2719   5480     1  0.0000000  1.0460000  1
   2715   2713   2719   5480     1  0.0000000  0.0000000  3
   2715   2713   2719   2720     1  0.0000000  0.6508444  3
   2715   2713   2719   2721     1  0.0000000  0.6508444  3
   2719   5480   5471   5472     1  0.0000000  1.6038667  3
   2719   5480   5471   5473     1  0.0000000  1.6038667  3
   2720   2719   5480   5471     1  0.0000000  1.6038667  3
   2721   2719   5480   5471     1  0.0000000  1.6038667  3
   2722   5509   5500   5501     1  0.0000000  1.6038667  3
   2722   5509   5500   5502     1  0.0000000  1.6038667  3
   2723   2722   5509   5500     1  0.0000000  1.6038667  3
   2724   2722   5509   5500     1  0.0000000  1.6038667  3
   2726   2727   2739   2740     1  0.0000000  0.6508444  3
   2726   2727   2739   2741     1  0.0000000  0.6508444  3
   2726   2730   2742   2743     1  0.0000000  0.6508444  3
   2726   2730   2742   2744     1  0.0000000  0.6508444  3
   2726   2733   2736   2737     1  0.0000000  0.6508444  3
   2726   2733   2736   2738     1  0.0000000  0.6508444  3
   2727   2726   2730   2731     1  0.0000000  1.2552000  3
   2727   2726   2730   2732     1  0.0000000  1.2552000  3
   2727   2726   2733   2734     1  0.0000000  1.2552000  3
   2727   2726   2733   2735     1  0.0000000  1.2552000  3
   2727   2739   2751   2752     1  0.0000000  0.6508444  3
   2727   2739   2751   2753     1  0.0000000  0.6508444  3
   2728   2727   2726   2730     1  0.0000000  1.2552000  3
   2728   2727   2726   2733     1  0.0000000  1.2552000  3
   2728   2727   2739   2751     1  0.0000000  0.6508444  3
   2728   2727   2739   2740     1  0.0000000  0.6508444  3
   2728   2727   2739   2741     1  0.0000000  0.6508444  3
   2729   2727   2726   2730     1  0.0000000  1.2552000  3
   2729   2727   2726   2733     1  0.0000000  1.2552000  3
   2729   2727   2739   2751     1  0.0000000  0.6508444  3
   2729   2727   2739   2740     1  0.0000000  0.6508444  3
   2729   2727   2739   2741     1  0.0000000  0.6508444  3
   2730   2726   2733   2734     1  0.0000000  1.2552000  3
   2730   2726   2733   2735     1  0.0000000  1.2552000  3
   2730   2742   2748   2749     1  0.0000000  0.6508444  3
   2730   2742   2748   2750     1  0.0000000  0.6508444  3
   2731   2730   2726   2733     1  0.0000000  1.2552000  3
   2731   2730   2742   2748     1  0.0000000  0.6508444  3
   2731   2730   2742   2743     1  0.0000000  0.6508444  3
   2731   2730   2742   2744     1  0.0000000  0.6508444  3
   2732   2730   2726   2733     1  0.0000000  1.2552000  3
   2732   2730   2742   2748     1  0.0000000  0.6508444  3
   2732   2730   2742   2743     1  0.0000000  0.6508444  3
   2732   2730   2742   2744     1  0.0000000  0.6508444  3
   2733   2736   2745   2746     1  0.0000000  0.6508444  3
   2733   2736   2745   2747     1  0.0000000  0.6508444  3
   2734   2733   2736   2745     1  0.0000000  0.6508444  3
   2734   2733   2736   2737     1  0.0000000  0.6508444  3
   2734   2733   2736   2738     1  0.0000000  0.6508444  3
   2735   2733   2736   2745     1  0.0000000  0.6508444  3
   2735   2733   2736   2737     1  0.0000000  0.6508444  3
   2735   2733   2736   2738     1  0.0000000  0.6508444  3
   2737   2736   2745   2754     1  0.0000000  1.0460000  1
   2737   2736   2745   2754     1  0.0000000  0.0000000  3
   2737   2736   2745   2746     1  0.0000000  0.6508444  3
   2737   2736   2745   2747     1  0.0000000  0.6508444  3
   2738   2736   2745   2754     1  0.0000000  1.0460000  1
   2738   2736   2745   2754     1  0.0000000  0.0000000  3
   2738   2736   2745   2746     1  0.0000000  0.6508444  3
   2738   2736   2745   2747     1  0.0000000  0.6508444  3
   2740   2739   2751   5567     1  0.0000000  1.0460000  1
   2740   2739   2751   5567     1  0.0000000  0.0000000  3
   2740   2739   2751   2752     1  0.0000000  0.6508444  3
   2740   2739   2751   2753     1  0.0000000  0.6508444  3
   2741   2739   2751   5567     1  0.0000000  1.0460000  1
   2741   2739   2751   5567     1  0.0000000  0.0000000  3
   2741   2739   2751   2752     1  0.0000000  0.6508444  3
   2741   2739   2751   2753     1  0.0000000  0.6508444  3
   2743   2742   2748   5538     1  0.0000000  1.0460000  1
   2743   2742   2748   5538     1  0.0000000  0.0000000  3
   2743   2742   2748   2749     1  0.0000000  0.6508444  3
   2743   2742   2748   2750     1  0.0000000  0.6508444  3
   2744   2742   2748   5538     1  0.0000000  1.0460000  1
   2744   2742   2748   5538     1  0.0000000  0.0000000  3
   2744   2742   2748   2749     1  0.0000000  0.6508444  3
   2744   2742   2748   2750     1  0.0000000  0.6508444  3
   2748   5538   5529   5530     1  0.0000000  1.6038667  3
   2748   5538   5529   5531     1  0.0000000  1.6038667  3
   2749   2748   5538   5529     1  0.0000000  1.6038667  3
   2750   2748   5538   5529     1  0.0000000  1.6038667  3
   2751   5567   5558   5559     1  0.0000000  1.6038667  3
   2751   5567   5558   5560     1  0.0000000  1.6038667  3
   2752   2751   5567   5558     1  0.0000000  1.6038667  3
   2753   2751   5567   5558     1  0.0000000  1.6038667  3
   2755   2756   2768   2769     1  0.0000000  0.6508444  3
   2755   2756   2768   2770     1  0.0000000  0.6508444  3
   2755   2759   2771   2772     1  0.0000000  0.6508444  3
   2755   2759   2771   2773     1  0.0000000  0.6508444  3
   2755   2762   2765   2766     1  0.0000000  0.6508444  3
   2755   2762   2765   2767     1  0.0000000  0.6508444  3
   2756   2755   2759   2760     1  0.0000000  1.2552000  3
   2756   2755   2759   2761     1  0.0000000  1.2552000  3
   2756   2755   2762   2763     1  0.0000000  1.2552000  3
   2756   2755   2762   2764     1  0.0000000  1.2552000  3
   2756   2768   2780   2781     1  0.0000000  0.6508444  3
   2756   2768   2780   2782     1  0.0000000  0.6508444  3
   2757   2756   2755   2759     1  0.0000000  1.2552000  3
   2757   2756   2755   2762     1  0.0000000  1.2552000  3
   2757   2756   2768   2780     1  0.0000000  0.6508444  3
   2757   2756   2768   2769     1  0.0000000  0.6508444  3
   2757   2756   2768   2770     1  0.0000000  0.6508444  3
   2758   2756   2755   2759     1  0.0000000  1.2552000  3
   2758   2756   2755   2762     1  0.0000000  1.2552000  3
   2758   2756   2768   2780     1  0.0000000  0.6508444  3
   2758   2756   2768   2769     1  0.0000000  0.6508444  3
   2758   2756   2768   2770     1  0.0000000  0.6508444  3
   2759   2755   2762   2763     1  0.0000000  1.2552000  3
   2759   2755   2762   2764     1  0.0000000  1.2552000  3
   2759   2771   2777   2778     1  0.0000000  0.6508444  3
   2759   2771   2777   2779     1  0.0000000  0.6508444  3
   2760   2759   2755   2762     1  0.0000000  1.2552000  3
   2760   2759   2771   2777     1  0.0000000  0.6508444  3
   2760   2759   2771   2772     1  0.0000000  0.6508444  3
   2760   2759   2771   2773     1  0.0000000  0.6508444  3
   2761   2759   2755   2762     1  0.0000000  1.2552000  3
   2761   2759   2771   2777     1  0.0000000  0.6508444  3
   2761   2759   2771   2772     1  0.0000000  0.6508444  3
   2761   2759   2771   2773     1  0.0000000  0.6508444  3
   2762   2765   2774   2775     1  0.0000000  0.6508444  3
   2762   2765   2774   2776     1  0.0000000  0.6508444  3
   2763   2762   2765   2774     1  0.0000000  0.6508444  3
   2763   2762   2765   2766     1  0.0000000  0.6508444  3
   2763   2762   2765   2767     1  0.0000000  0.6508444  3
   2764   2762   2765   2774     1  0.0000000  0.6508444  3
   2764   2762   2765   2766     1  0.0000000  0.6508444  3
   2764   2762   2765   2767     1  0.0000000  0.6508444  3
   2766   2765   2774   2783     1  0.0000000  1.0460000  1
   2766   2765   2774   2783     1  0.0000000  0.0000000  3
   2766   2765   2774   2775     1  0.0000000  0.6508444  3
   2766   2765   2774   2776     1  0.0000000  0.6508444  3
   2767   2765   2774   2783     1  0.0000000  1.0460000  1
   2767   2765   2774   2783     1  0.0000000  0.0000000  3
   2767   2765   2774   2775     1  0.0000000  0.6508444  3
   2767   2765   2774   2776     1  0.0000000  0.6508444  3
   2769   2768   2780   5625     1  0.0000000  1.0460000  1
   2769   2768   2780   5625     1  0.0000000  0.0000000  3
   2769   2768   2780   2781     1  0.0000000  0.6508444  3
   2769   2768   2780   2782     1  0.0000000  0.6508444  3
   2770   2768   2780   5625     1  0.0000000  1.0460000  1
   2770   2768   2780   5625     1  0.0000000  0.0000000  3
   2770   2768   2780   2781     1  0.0000000  0.6508444  3
   2770   2768   2780   2782     1  0.0000000  0.6508444  3
   2772   2771   2777   5596     1  0.0000000  1.0460000  1
   2772   2771   2777   5596     1  0.0000000  0.0000000  3
   2772   2771   2777   2778     1  0.0000000  0.6508444  3
   2772   2771   2777   2779     1  0.0000000  0.6508444  3
   2773   2771   2777   5596     1  0.0000000  1.0460000  1
   2773   2771   2777   5596     1  0.0000000  0.0000000  3
   2773   2771   2777   2778     1  0.0000000  0.6508444  3
   2773   2771   2777   2779     1  0.0000000  0.6508444  3
   2777   5596   5587   5588     1  0.0000000  1.6038667  3
   2777   5596   5587   5589     1  0.0000000  1.6038667  3
   2778   2777   5596   5587     1  0.0000000  1.6038667  3
   2779   2777   5596   5587     1  0.0000000  1.6038667  3
   2780   5625   5616   5617     1  0.0000000  1.6038667  3
   2780   5625   5616   5618     1  0.0000000  1.6038667  3
   2781   2780   5625   5616     1  0.0000000  1.6038667  3
   2782   2780   5625   5616     1  0.0000000  1.6038667  3
   2784   2785   2797   2798     1  0.0000000  0.6508444  3
   2784   2785   2797   2799     1  0.0000000  0.6508444  3
   2784   2788   2800   2801     1  0.0000000  0.6508444  3
   2784   2788   2800   2802     1  0.0000000  0.6508444  3
   2784   2791   2794   2795     1  0.0000000  0.6508444  3
   2784   2791   2794   2796     1  0.0000000  0.6508444  3
   2785   2784   2788   2789     1  0.0000000  1.2552000  3
   2785   2784   2788   2790     1  0.0000000  1.2552000  3
   2785   2784   2791   2792     1  0.0000000  1.2552000  3
   2785   2784   2791   2793     1  0.0000000  1.2552000  3
   2785   2797   2809   2810     1  0.0000000  0.6508444  3
   2785   2797   2809   2811     1  0.0000000  0.6508444  3
   2786   2785   2784   2788     1  0.0000000  1.2552000  3
   2786   2785   2784   2791     1  0.0000000  1.2552000  3
   2786   2785   2797   2809     1  0.0000000  0.6508444  3
   2786   2785   2797   2798     1  0.0000000  0.6508444  3
   2786   2785   2797   2799     1  0.0000000  0.6508444  3
   2787   2785   2784   2788     1  0.0000000  1.2552000  3
   2787   2785   2784   2791     1  0.0000000  1.2552000  3
   2787   2785   2797   2809     1  0.0000000  0.6508444  3
   2787   2785   2797   2798     1  0.0000000  0.6508444  3
   2787   2785   2797   2799     1  0.0000000  0.6508444  3
   2788   2784   2791   2792     1  0.0000000  1.2552000  3
   2788   2784   2791   2793     1  0.0000000  1.2552000  3
   2788   2800   2806   2807     1  0.0000000  0.6508444  3
   2788   2800   2806   2808     1  0.0000000  0.6508444  3
   2789   2788   2784   2791     1  0.0000000  1.2552000  3
   2789   2788   2800   2806     1  0.0000000  0.6508444  3
   2789   2788   2800   2801     1  0.0000000  0.6508444  3
   2789   2788   2800   2802     1  0.0000000  0.6508444  3
   2790   2788   2784   2791     1  0.0000000  1.2552000  3
   2790   2788   2800   2806     1  0.0000000  0.6508444  3
   2790   2788   2800   2801     1  0.0000000  0.6508444  3
   2790   2788   2800   2802     1  0.0000000  0.6508444  3
   2791   2794   2803   2804     1  0.0000000  0.6508444  3
   2791   2794   2803   2805     1  0.0000000  0.6508444  3
   2792   2791   2794   2803     1  0.0000000  0.6508444  3
   2792   2791   2794   2795     1  0.0000000  0.6508444  3
   2792   2791   2794   2796     1  0.0000000  0.6508444  3
   2793   2791   2794   2803     1  0.0000000  0.6508444  3
   2793   2791   2794   2795     1  0.0000000  0.6508444  3
   2793   2791   2794   2796     1  0.0000000  0.6508444  3
   2795   2794   2803   2812     1  0.0000000  1.0460000  1
   2795   2794   2803   2812     1  0.0000000  0.0000000  3
   2795   2794   2803   2804     1  0.0000000  0.6508444  3
   2795   2794   2803   2805     1  0.0000000  0.6508444  3
   2796   2794   2803   2812     1  0.0000000  1.0460000  1
   2796   2794   2803   2812     1  0.0000000  0.0000000  3
   2796   2794   2803   2804     1  0.0000000  0.6508444  3
   2796   2794   2803   2805     1  0.0000000  0.6508444  3
   2798   2797   2809   5683     1  0.0000000  1.0460000  1
   2798   2797   2809   5683     1  0.0000000  0.0000000  3
   2798   2797   2809   2810     1  0.0000000  0.6508444  3
   2798   2797   2809   2811     1  0.0000000  0.6508444  3
   2799   2797   2809   5683     1  0.0000000  1.0460000  1
   2799   2797   2809   5683     1  0.0000000  0.0000000  3
   2799   2797   2809   2810     1  0.0000000  0.6508444  3
   2799   2797   2809   2811     1  0.0000000  0.6508444  3
   2801   2800   2806   5654     1  0.0000000  1.0460000  1
   2801   2800   2806   5654     1  0.0000000  0.0000000  3
   2801   2800   2806   2807     1  0.0000000  0.6508444  3
   2801   2800   2806   2808     1  0.0000000  0.6508444  3
   2802   2800   2806   5654     1  0.0000000  1.0460000  1
   2802   2800   2806   5654     1  0.0000000  0.0000000  3
   2802   2800   2806   2807     1  0.0000000  0.6508444  3
   2802   2800   2806   2808     1  0.0000000  0.6508444  3
   2806   5654   5645   5646     1  0.0000000  1.6038667  3
   2806   5654   5645   5647     1  0.0000000  1.6038667  3
   2807   2806   5654   5645     1  0.0000000  1.6038667  3
   2808   2806   5654   5645     1  0.0000000  1.6038667  3
   2809   5683   5674   5675     1  0.0000000  1.6038667  3
   2809   5683   5674   5676     1  0.0000000  1.6038667  3
   2810   2809   5683   5674     1  0.0000000  1.6038667  3
   2811   2809   5683   5674     1  0.0000000  1.6038667  3
   2813   2814   2826   2827     1  0.0000000  0.6508444  3
   2813   2814   2826   2828     1  0.0000000  0.6508444  3
   2813   2817   2829   2830     1  0.0000000  0.6508444  3
   2813   2817   2829   2831     1  0.0000000  0.6508444  3
   2813   2820   2823   2824     1  0.0000000  0.6508444  3
   2813   2820   2823   2825     1  0.0000000  0.6508444  3
   2814   2813   2817   2818     1  0.0000000  1.2552000  3
   2814   2813   2817   2819     1  0.0000000  1.2552000  3
   2814   2813   2820   2821     1  0.0000000  1.2552000  3
   2814   2813   2820   2822     1  0.0000000  1.2552000  3
   2814   2826   2838   2839     1  0.0000000  0.6508444  3
   2814   2826   2838   2840     1  0.0000000  0.6508444  3
   2815   2814   2813   2817     1  0.0000000  1.2552000  3
   2815   2814   2813   2820     1  0.0000000  1.2552000  3
   2815   2814   2826   2838     1  0.0000000  0.6508444  3
   2815   2814   2826   2827     1  0.0000000  0.6508444  3
   2815   2814   2826   2828     1  0.0000000  0.6508444  3
   2816   2814   2813   2817     1  0.0000000  1.2552000  3
   2816   2814   2813   2820     1  0.0000000  1.2552000  3
   2816   2814   2826   2838     1  0.0000000  0.6508444  3
   2816   2814   2826   2827     1  0.0000000  0.6508444  3
   2816   2814   2826   2828     1  0.0000000  0.6508444  3
   2817   2813   2820   2821     1  0.0000000  1.2552000  3
   2817   2813   2820   2822     1  0.0000000  1.2552000  3
   2817   2829   2835   2836     1  0.0000000  0.6508444  3
   2817   2829   2835   2837     1  0.0000000  0.6508444  3
   2818   2817   2813   2820     1  0.0000000  1.2552000  3
   2818   2817   2829   2835     1  0.0000000  0.6508444  3
   2818   2817   2829   2830     1  0.0000000  0.6508444  3
   2818   2817   2829   2831     1  0.0000000  0.6508444  3
   2819   2817   2813   2820     1  0.0000000  1.2552000  3
   2819   2817   2829   2835     1  0.0000000  0.6508444  3
   2819   2817   2829   2830     1  0.0000000  0.6508444  3
   2819   2817   2829   2831     1  0.0000000  0.6508444  3
   2820   2823   2832   2833     1  0.0000000  0.6508444  3
   2820   2823   2832   2834     1  0.0000000  0.6508444  3
   2821   2820   2823   2832     1  0.0000000  0.6508444  3
   2821   2820   2823   2824     1  0.0000000  0.6508444  3
   2821   2820   2823   2825     1  0.0000000  0.6508444  3
   2822   2820   2823   2832     1  0.0000000  0.6508444  3
   2822   2820   2823   2824     1  0.0000000  0.6508444  3
   2822   2820   2823   2825     1  0.0000000  0.6508444  3
   2824   2823   2832   2841     1  0.0000000  1.0460000  1
   2824   2823   2832   2841     1  0.0000000  0.0000000  3
   2824   2823   2832   2833     1  0.0000000  0.6508444  3
   2824   2823   2832   2834     1  0.0000000  0.6508444  3
   2825   2823   2832   2841     1  0.0000000  1.0460000  1
   2825   2823   2832   2841     1  0.0000000  0.0000000  3
   2825   2823   2832   2833     1  0.0000000  0.6508444  3
   2825   2823   2832   2834     1  0.0000000  0.6508444  3
   2827   2826   2838   5741     1  0.0000000  1.0460000  1
   2827   2826   2838   5741     1  0.0000000  0.0000000  3
   2827   2826   2838   2839     1  0.0000000  0.6508444  3
   2827   2826   2838   2840     1  0.0000000  0.6508444  3
   2828   2826   2838   5741     1  0.0000000  1.0460000  1
   2828   2826   2838   5741     1  0.0000000  0.0000000  3
   2828   2826   2838   2839     1  0.0000000  0.6508444  3
   2828   2826   2838   2840     1  0.0000000  0.6508444  3
   2830   2829   2835   5712     1  0.0000000  1.0460000  1
   2830   2829   2835   5712     1  0.0000000  0.0000000  3
   2830   2829   2835   2836     1  0.0000000  0.6508444  3
   2830   2829   2835   2837     1  0.0000000  0.6508444  3
   2831   2829   2835   5712     1  0.0000000  1.0460000  1
   2831   2829   2835   5712     1  0.0000000  0.0000000  3
   2831   2829   2835   2836     1  0.0000000  0.6508444  3
   2831   2829   2835   2837     1  0.0000000  0.6508444  3
   2835   5712   5703   5704     1  0.0000000  1.6038667  3
   2835   5712   5703   5705     1  0.0000000  1.6038667  3
   2836   2835   5712   5703     1  0.0000000  1.6038667  3
   2837   2835   5712   5703     1  0.0000000  1.6038667  3
   2838   5741   5732   5733     1  0.0000000  1.6038667  3
   2838   5741   5732   5734     1  0.0000000  1.6038667  3
   2839   2838   5741   5732     1  0.0000000  1.6038667  3
   2840   2838   5741   5732     1  0.0000000  1.6038667  3
   2842   2843   2855   2856     1  0.0000000  0.6508444  3
   2842   2843   2855   2857     1  0.0000000  0.6508444  3
   2842   2846   2858   2859     1  0.0000000  0.6508444  3
   2842   2846   2858   2860     1  0.0000000  0.6508444  3
   2842   2849   2852   2853     1  0.0000000  0.6508444  3
   2842   2849   2852   2854     1  0.0000000  0.6508444  3
   2843   2842   2846   2847     1  0.0000000  1.2552000  3
   2843   2842   2846   2848     1  0.0000000  1.2552000  3
   2843   2842   2849   2850     1  0.0000000  1.2552000  3
   2843   2842   2849   2851     1  0.0000000  1.2552000  3
   2843   2855   2867   2868     1  0.0000000  0.6508444  3
   2843   2855   2867   2869     1  0.0000000  0.6508444  3
   2844   2843   2842   2846     1  0.0000000  1.2552000  3
   2844   2843   2842   2849     1  0.0000000  1.2552000  3
   2844   2843   2855   2867     1  0.0000000  0.6508444  3
   2844   2843   2855   2856     1  0.0000000  0.6508444  3
   2844   2843   2855   2857     1  0.0000000  0.6508444  3
   2845   2843   2842   2846     1  0.0000000  1.2552000  3
   2845   2843   2842   2849     1  0.0000000  1.2552000  3
   2845   2843   2855   2867     1  0.0000000  0.6508444  3
   2845   2843   2855   2856     1  0.0000000  0.6508444  3
   2845   2843   2855   2857     1  0.0000000  0.6508444  3
   2846   2842   2849   2850     1  0.0000000  1.2552000  3
   2846   2842   2849   2851     1  0.0000000  1.2552000  3
   2846   2858   2864   2865     1  0.0000000  0.6508444  3
   2846   2858   2864   2866     1  0.0000000  0.6508444  3
   2847   2846   2842   2849     1  0.0000000  1.2552000  3
   2847   2846   2858   2864     1  0.0000000  0.6508444  3
   2847   2846   2858   2859     1  0.0000000  0.6508444  3
   2847   2846   2858   2860     1  0.0000000  0.6508444  3
   2848   2846   2842   2849     1  0.0000000  1.2552000  3
   2848   2846   2858   2864     1  0.0000000  0.6508444  3
   2848   2846   2858   2859     1  0.0000000  0.6508444  3
   2848   2846   2858   2860     1  0.0000000  0.6508444  3
   2849   2852   2861   2862     1  0.0000000  0.6508444  3
   2849   2852   2861   2863     1  0.0000000  0.6508444  3
   2850   2849   2852   2861     1  0.0000000  0.6508444  3
   2850   2849   2852   2853     1  0.0000000  0.6508444  3
   2850   2849   2852   2854     1  0.0000000  0.6508444  3
   2851   2849   2852   2861     1  0.0000000  0.6508444  3
   2851   2849   2852   2853     1  0.0000000  0.6508444  3
   2851   2849   2852   2854     1  0.0000000  0.6508444  3
   2853   2852   2861   2870     1  0.0000000  1.0460000  1
   2853   2852   2861   2870     1  0.0000000  0.0000000  3
   2853   2852   2861   2862     1  0.0000000  0.6508444  3
   2853   2852   2861   2863     1  0.0000000  0.6508444  3
   2854   2852   2861   2870     1  0.0000000  1.0460000  1
   2854   2852   2861   2870     1  0.0000000  0.0000000  3
   2854   2852   2861   2862     1  0.0000000  0.6508444  3
   2854   2852   2861   2863     1  0.0000000  0.6508444  3
   2856   2855   2867   5799     1  0.0000000  1.0460000  1
   2856   2855   2867   5799     1  0.0000000  0.0000000  3
   2856   2855   2867   2868     1  0.0000000  0.6508444  3
   2856   2855   2867   2869     1  0.0000000  0.6508444  3
   2857   2855   2867   5799     1  0.0000000  1.0460000  1
   2857   2855   2867   5799     1  0.0000000  0.0000000  3
   2857   2855   2867   2868     1  0.0000000  0.6508444  3
   2857   2855   2867   2869     1  0.0000000  0.6508444  3
   2859   2858   2864   5770     1  0.0000000  1.0460000  1
   2859   2858   2864   5770     1  0.0000000  0.0000000  3
   2859   2858   2864   2865     1  0.0000000  0.6508444  3
   2859   2858   2864   2866     1  0.0000000  0.6508444  3
   2860   2858   2864   5770     1  0.0000000  1.0460000  1
   2860   2858   2864   5770     1  0.0000000  0.0000000  3
   2860   2858   2864   2865     1  0.0000000  0.6508444  3
   2860   2858   2864   2866     1  0.0000000  0.6508444  3
   2864   5770   5761   5762     1  0.0000000  1.6038667  3
   2864   5770   5761   5763     1  0.0000000  1.6038667  3
   2865   2864   5770   5761     1  0.0000000  1.6038667  3
   2866   2864   5770   5761     1  0.0000000  1.6038667  3
   2867   5799   5790   5791     1  0.0000000  1.6038667  3
   2867   5799   5790   5792     1  0.0000000  1.6038667  3
   2868   2867   5799   5790     1  0.0000000  1.6038667  3
   2869   2867   5799   5790     1  0.0000000  1.6038667  3
   2871   2872   2884   2885     1  0.0000000  0.6508444  3
   2871   2872   2884   2886     1  0.0000000  0.6508444  3
   2871   2875   2887   2888     1  0.0000000  0.6508444  3
   2871   2875   2887   2889     1  0.0000000  0.6508444  3
   2871   2878   2881   2882     1  0.0000000  0.6508444  3
   2871   2878   2881   2883     1  0.0000000  0.6508444  3
   2872   2871   2875   2876     1  0.0000000  1.2552000  3
   2872   2871   2875   2877     1  0.0000000  1.2552000  3
   2872   2871   2878   2879     1  0.0000000  1.2552000  3
   2872   2871   2878   2880     1  0.0000000  1.2552000  3
   2872   2884   2896   2897     1  0.0000000  0.6508444  3
   2872   2884   2896   2898     1  0.0000000  0.6508444  3
   2873   2872   2871   2875     1  0.0000000  1.2552000  3
   2873   2872   2871   2878     1  0.0000000  1.2552000  3
   2873   2872   2884   2896     1  0.0000000  0.6508444  3
   2873   2872   2884   2885     1  0.0000000  0.6508444  3
   2873   2872   2884   2886     1  0.0000000  0.6508444  3
   2874   2872   2871   2875     1  0.0000000  1.2552000  3
   2874   2872   2871   2878     1  0.0000000  1.2552000  3
   2874   2872   2884   2896     1  0.0000000  0.6508444  3
   2874   2872   2884   2885     1  0.0000000  0.6508444  3
   2874   2872   2884   2886     1  0.0000000  0.6508444  3
   2875   2871   2878   2879     1  0.0000000  1.2552000  3
   2875   2871   2878   2880     1  0.0000000  1.2552000  3
   2875   2887   2893   2894     1  0.0000000  0.6508444  3
   2875   2887   2893   2895     1  0.0000000  0.6508444  3
   2876   2875   2871   2878     1  0.0000000  1.2552000  3
   2876   2875   2887   2893     1  0.0000000  0.6508444  3
   2876   2875   2887   2888     1  0.0000000  0.6508444  3
   2876   2875   2887   2889     1  0.0000000  0.6508444  3
   2877   2875   2871   2878     1  0.0000000  1.2552000  3
   2877   2875   2887   2893     1  0.0000000  0.6508444  3
   2877   2875   2887   2888     1  0.0000000  0.6508444  3
   2877   2875   2887   2889     1  0.0000000  0.6508444  3
   2878   2881   2890   2891     1  0.0000000  0.6508444  3
   2878   2881   2890   2892     1  0.0000000  0.6508444  3
   2879   2878   2881   2890     1  0.0000000  0.6508444  3
   2879   2878   2881   2882     1  0.0000000  0.6508444  3
   2879   2878   2881   2883     1  0.0000000  0.6508444  3
   2880   2878   2881   2890     1  0.0000000  0.6508444  3
   2880   2878   2881   2882     1  0.0000000  0.6508444  3
   2880   2878   2881   2883     1  0.0000000  0.6508444  3
   2882   2881   2890   2899     1  0.0000000  1.0460000  1
   2882   2881   2890   2899     1  0.0000000  0.0000000  3
   2882   2881   2890   2891     1  0.0000000  0.6508444  3
   2882   2881   2890   2892     1  0.0000000  0.6508444  3
   2883   2881   2890   2899     1  0.0000000  1.0460000  1
   2883   2881   2890   2899     1  0.0000000  0.0000000  3
   2883   2881   2890   2891     1  0.0000000  0.6508444  3
   2883   2881   2890   2892     1  0.0000000  0.6508444  3
   2885   2884   2896   5857     1  0.0000000  1.0460000  1
   2885   2884   2896   5857     1  0.0000000  0.0000000  3
   2885   2884   2896   2897     1  0.0000000  0.6508444  3
   2885   2884   2896   2898     1  0.0000000  0.6508444  3
   2886   2884   2896   5857     1  0.0000000  1.0460000  1
   2886   2884   2896   5857     1  0.0000000  0.0000000  3
   2886   2884   2896   2897     1  0.0000000  0.6508444  3
   2886   2884   2896   2898     1  0.0000000  0.6508444  3
   2888   2887   2893   5828     1  0.0000000  1.0460000  1
   2888   2887   2893   5828     1  0.0000000  0.0000000  3
   2888   2887   2893   2894     1  0.0000000  0.6508444  3
   2888   2887   2893   2895     1  0.0000000  0.6508444  3
   2889   2887   2893   5828     1  0.0000000  1.0460000  1
   2889   2887   2893   5828     1  0.0000000  0.0000000  3
   2889   2887   2893   2894     1  0.0000000  0.6508444  3
   2889   2887   2893   2895     1  0.0000000  0.6508444  3
   2893   5828   5819   5820     1  0.0000000  1.6038667  3
   2893   5828   5819   5821     1  0.0000000  1.6038667  3
   2894   2893   5828   5819     1  0.0000000  1.6038667  3
   2895   2893   5828   5819     1  0.0000000  1.6038667  3
   2896   5857   5848   5849     1  0.0000000  1.6038667  3
   2896   5857   5848   5850     1  0.0000000  1.6038667  3
   2897   2896   5857   5848     1  0.0000000  1.6038667  3
   2898   2896   5857   5848     1  0.0000000  1.6038667  3
   2900   2901   2913   2914     1  0.0000000  0.6508444  3
   2900   2901   2913   2915     1  0.0000000  0.6508444  3
   2900   2904   2916   2917     1  0.0000000  0.6508444  3
   2900   2904   2916   2918     1  0.0000000  0.6508444  3
   2900   2907   2910   2911     1  0.0000000  0.6508444  3
   2900   2907   2910   2912     1  0.0000000  0.6508444  3
   2901   2900   2904   2905     1  0.0000000  1.2552000  3
   2901   2900   2904   2906     1  0.0000000  1.2552000  3
   2901   2900   2907   2908     1  0.0000000  1.2552000  3
   2901   2900   2907   2909     1  0.0000000  1.2552000  3
   2901   2913   2925   2926     1  0.0000000  0.6508444  3
   2901   2913   2925   2927     1  0.0000000  0.6508444  3
   2902   2901   2900   2904     1  0.0000000  1.2552000  3
   2902   2901   2900   2907     1  0.0000000  1.2552000  3
   2902   2901   2913   2925     1  0.0000000  0.6508444  3
   2902   2901   2913   2914     1  0.0000000  0.6508444  3
   2902   2901   2913   2915     1  0.0000000  0.6508444  3
   2903   2901   2900   2904     1  0.0000000  1.2552000  3
   2903   2901   2900   2907     1  0.0000000  1.2552000  3
   2903   2901   2913   2925     1  0.0000000  0.6508444  3
   2903   2901   2913   2914     1  0.0000000  0.6508444  3
   2903   2901   2913   2915     1  0.0000000  0.6508444  3
   2904   2900   2907   2908     1  0.0000000  1.2552000  3
   2904   2900   2907   2909     1  0.0000000  1.2552000  3
   2904   2916   2922   2923     1  0.0000000  0.6508444  3
   2904   2916   2922   2924     1  0.0000000  0.6508444  3
   2905   2904   2900   2907     1  0.0000000  1.2552000  3
   2905   2904   2916   2922     1  0.0000000  0.6508444  3
   2905   2904   2916   2917     1  0.0000000  0.6508444  3
   2905   2904   2916   2918     1  0.0000000  0.6508444  3
   2906   2904   2900   2907     1  0.0000000  1.2552000  3
   2906   2904   2916   2922     1  0.0000000  0.6508444  3
   2906   2904   2916   2917     1  0.0000000  0.6508444  3
   2906   2904   2916   2918     1  0.0000000  0.6508444  3
   2907   2910   2919   2920     1  0.0000000  0.6508444  3
   2907   2910   2919   2921     1  0.0000000  0.6508444  3
   2908   2907   2910   2919     1  0.0000000  0.6508444  3
   2908   2907   2910   2911     1  0.0000000  0.6508444  3
   2908   2907   2910   2912     1  0.0000000  0.6508444  3
   2909   2907   2910   2919     1  0.0000000  0.6508444  3
   2909   2907   2910   2911     1  0.0000000  0.6508444  3
   2909   2907   2910   2912     1  0.0000000  0.6508444  3
   2911   2910   2919   2928     1  0.0000000  1.0460000  1
   2911   2910   2919   2928     1  0.0000000  0.0000000  3
   2911   2910   2919   2920     1  0.0000000  0.6508444  3
   2911   2910   2919   2921     1  0.0000000  0.6508444  3
   2912   2910   2919   2928     1  0.0000000  1.0460000  1
   2912   2910   2919   2928     1  0.0000000  0.0000000  3
   2912   2910   2919   2920     1  0.0000000  0.6508444  3
   2912   2910   2919   2921     1  0.0000000  0.6508444  3
   2914   2913   2925   5915     1  0.0000000  1.0460000  1
   2914   2913   2925   5915     1  0.0000000  0.0000000  3
   2914   2913   2925   2926     1  0.0000000  0.6508444  3
   2914   2913   2925   2927     1  0.0000000  0.6508444  3
   2915   2913   2925   5915     1  0.0000000  1.0460000  1
   2915   2913   2925   5915     1  0.0000000  0.0000000  3
   2915   2913   2925   2926     1  0.0000000  0.6508444  3
   2915   2913   2925   2927     1  0.0000000  0.6508444  3
   2917   2916   2922   5886     1  0.0000000  1.0460000  1
   2917   2916   2922   5886     1  0.0000000  0.0000000  3
   2917   2916   2922   2923     1  0.0000000  0.6508444  3
   2917   2916   2922   2924     1  0.0000000  0.6508444  3
   2918   2916   2922   5886     1  0.0000000  1.0460000  1
   2918   2916   2922   5886     1  0.0000000  0.0000000  3
   2918   2916   2922   2923     1  0.0000000  0.6508444  3
   2918   2916   2922   2924     1  0.0000000  0.6508444  3
   2922   5886   5877   5878     1  0.0000000  1.6038667  3
   2922   5886   5877   5879     1  0.0000000  1.6038667  3
   2923   2922   5886   5877     1  0.0000000  1.6038667  3
   2924   2922   5886   5877     1  0.0000000  1.6038667  3
   2925   5915   5906   5907     1  0.0000000  1.6038667  3
   2925   5915   5906   5908     1  0.0000000  1.6038667  3
   2926   2925   5915   5906     1  0.0000000  1.6038667  3
   2927   2925   5915   5906     1  0.0000000  1.6038667  3
   2929   2930   2942   2943     1  0.0000000  0.6508444  3
   2929   2930   2942   2944     1  0.0000000  0.6508444  3
   2929   2933   2945   2946     1  0.0000000  0.6508444  3
   2929   2933   2945   2947     1  0.0000000  0.6508444  3
   2929   2936   2939   2940     1  0.0000000  0.6508444  3
   2929   2936   2939   2941     1  0.0000000  0.6508444  3
   2930   2929   2933   2934     1  0.0000000  1.2552000  3
   2930   2929   2933   2935     1  0.0000000  1.2552000  3
   2930   2929   2936   2937     1  0.0000000  1.2552000  3
   2930   2929   2936   2938     1  0.0000000  1.2552000  3
   2930   2942   2954   2955     1  0.0000000  0.6508444  3
   2930   2942   2954   2956     1  0.0000000  0.6508444  3
   2931   2930   2929   2933     1  0.0000000  1.2552000  3
   2931   2930   2929   2936     1  0.0000000  1.2552000  3
   2931   2930   2942   2954     1  0.0000000  0.6508444  3
   2931   2930   2942   2943     1  0.0000000  0.6508444  3
   2931   2930   2942   2944     1  0.0000000  0.6508444  3
   2932   2930   2929   2933     1  0.0000000  1.2552000  3
   2932   2930   2929   2936     1  0.0000000  1.2552000  3
   2932   2930   2942   2954     1  0.0000000  0.6508444  3
   2932   2930   2942   2943     1  0.0000000  0.6508444  3
   2932   2930   2942   2944     1  0.0000000  0.6508444  3
   2933   2929   2936   2937     1  0.0000000  1.2552000  3
   2933   2929   2936   2938     1  0.0000000  1.2552000  3
   2933   2945   2951   2952     1  0.0000000  0.6508444  3
   2933   2945   2951   2953     1  0.0000000  0.6508444  3
   2934   2933   2929   2936     1  0.0000000  1.2552000  3
   2934   2933   2945   2951     1  0.0000000  0.6508444  3
   2934   2933   2945   2946     1  0.0000000  0.6508444  3
   2934   2933   2945   2947     1  0.0000000  0.6508444  3
   2935   2933   2929   2936     1  0.0000000  1.2552000  3
   2935   2933   2945   2951     1  0.0000000  0.6508444  3
   2935   2933   2945   2946     1  0.0000000  0.6508444  3
   2935   2933   2945   2947     1  0.0000000  0.6508444  3
   2936   2939   2948   2949     1  0.0000000  0.6508444  3
   2936   2939   2948   2950     1  0.0000000  0.6508444  3
   2937   2936   2939   2948     1  0.0000000  0.6508444  3
   2937   2936   2939   2940     1  0.0000000  0.6508444  3
   2937   2936   2939   2941     1  0.0000000  0.6508444  3
   2938   2936   2939   2948     1  0.0000000  0.6508444  3
   2938   2936   2939   2940     1  0.0000000  0.6508444  3
   2938   2936   2939   2941     1  0.0000000  0.6508444  3
   2940   2939   2948   2957     1  0.0000000  1.0460000  1
   2940   2939   2948   2957     1  0.0000000  0.0000000  3
   2940   2939   2948   2949     1  0.0000000  0.6508444  3
   2940   2939   2948   2950     1  0.0000000  0.6508444  3
   2941   2939   2948   2957     1  0.0000000  1.0460000  1
   2941   2939   2948   2957     1  0.0000000  0.0000000  3
   2941   2939   2948   2949     1  0.0000000  0.6508444  3
   2941   2939   2948   2950     1  0.0000000  0.6508444  3
   2943   2942   2954   5973     1  0.0000000  1.0460000  1
   2943   2942   2954   5973     1  0.0000000  0.0000000  3
   2943   2942   2954   2955     1  0.0000000  0.6508444  3
   2943   2942   2954   2956     1  0.0000000  0.6508444  3
   2944   2942   2954   5973     1  0.0000000  1.0460000  1
   2944   2942   2954   5973     1  0.0000000  0.0000000  3
   2944   2942   2954   2955     1  0.0000000  0.6508444  3
   2944   2942   2954   2956     1  0.0000000  0.6508444  3
   2946   2945   2951   5944     1  0.0000000  1.0460000  1
   2946   2945   2951   5944     1  0.0000000  0.0000000  3
   2946   2945   2951   2952     1  0.0000000  0.6508444  3
   2946   2945   2951   2953     1  0.0000000  0.6508444  3
   2947   2945   2951   5944     1  0.0000000  1.0460000  1
   2947   2945   2951   5944     1  0.0000000  0.0000000  3
   2947   2945   2951   2952     1  0.0000000  0.6508444  3
   2947   2945   2951   2953     1  0.0000000  0.6508444  3
   2951   5944   5935   5936     1  0.0000000  1.6038667  3
   2951   5944   5935   5937     1  0.0000000  1.6038667  3
   2952   2951   5944   5935     1  0.0000000  1.6038667  3
   2953   2951   5944   5935     1  0.0000000  1.6038667  3
   2954   5973   5964   5965     1  0.0000000  1.6038667  3
   2954   5973   5964   5966     1  0.0000000  1.6038667  3
   2955   2954   5973   5964     1  0.0000000  1.6038667  3
   2956   2954   5973   5964     1  0.0000000  1.6038667  3
   2958   2959   2971   2972     1  0.0000000  0.6508444  3
   2958   2959   2971   2973     1  0.0000000  0.6508444  3
   2958   2962   2974   2975     1  0.0000000  0.6508444  3
   2958   2962   2974   2976     1  0.0000000  0.6508444  3
   2958   2965   2968   2969     1  0.0000000  0.6508444  3
   2958   2965   2968   2970     1  0.0000000  0.6508444  3
   2959   2958   2962   2963     1  0.0000000  1.2552000  3
   2959   2958   2962   2964     1  0.0000000  1.2552000  3
   2959   2958   2965   2966     1  0.0000000  1.2552000  3
   2959   2958   2965   2967     1  0.0000000  1.2552000  3
   2959   2971   2983   2984     1  0.0000000  0.6508444  3
   2959   2971   2983   2985     1  0.0000000  0.6508444  3
   2960   2959   2958   2962     1  0.0000000  1.2552000  3
   2960   2959   2958   2965     1  0.0000000  1.2552000  3
   2960   2959   2971   2983     1  0.0000000  0.6508444  3
   2960   2959   2971   2972     1  0.0000000  0.6508444  3
   2960   2959   2971   2973     1  0.0000000  0.6508444  3
   2961   2959   2958   2962     1  0.0000000  1.2552000  3
   2961   2959   2958   2965     1  0.0000000  1.2552000  3
   2961   2959   2971   2983     1  0.0000000  0.6508444  3
   2961   2959   2971   2972     1  0.0000000  0.6508444  3
   2961   2959   2971   2973     1  0.0000000  0.6508444  3
   2962   2958   2965   2966     1  0.0000000  1.2552000  3
   2962   2958   2965   2967     1  0.0000000  1.2552000  3
   2962   2974   2980   2981     1  0.0000000  0.6508444  3
   2962   2974   2980   2982     1  0.0000000  0.6508444  3
   2963   2962   2958   2965     1  0.0000000  1.2552000  3
   2963   2962   2974   2980     1  0.0000000  0.6508444  3
   2963   2962   2974   2975     1  0.0000000  0.6508444  3
   2963   2962   2974   2976     1  0.0000000  0.6508444  3
   2964   2962   2958   2965     1  0.0000000  1.2552000  3
   2964   2962   2974   2980     1  0.0000000  0.6508444  3
   2964   2962   2974   2975     1  0.0000000  0.6508444  3
   2964   2962   2974   2976     1  0.0000000  0.6508444  3
   2965   2968   2977   2978     1  0.0000000  0.6508444  3
   2965   2968   2977   2979     1  0.0000000  0.6508444  3
   2966   2965   2968   2977     1  0.0000000  0.6508444  3
   2966   2965   2968   2969     1  0.0000000  0.6508444  3
   2966   2965   2968   2970     1  0.0000000  0.6508444  3
   2967   2965   2968   2977     1  0.0000000  0.6508444  3
   2967   2965   2968   2969     1  0.0000000  0.6508444  3
   2967   2965   2968   2970     1  0.0000000  0.6508444  3
   2969   2968   2977   2986     1  0.0000000  1.0460000  1
   2969   2968   2977   2986     1  0.0000000  0.0000000  3
   2969   2968   2977   2978     1  0.0000000  0.6508444  3
   2969   2968   2977   2979     1  0.0000000  0.6508444  3
   2970   2968   2977   2986     1  0.0000000  1.0460000  1
   2970   2968   2977   2986     1  0.0000000  0.0000000  3
   2970   2968   2977   2978     1  0.0000000  0.6508444  3
   2970   2968   2977   2979     1  0.0000000  0.6508444  3
   2972   2971   2983   6031     1  0.0000000  1.0460000  1
   2972   2971   2983   6031     1  0.0000000  0.0000000  3
   2972   2971   2983   2984     1  0.0000000  0.6508444  3
   2972   2971   2983   2985     1  0.0000000  0.6508444  3
   2973   2971   2983   6031     1  0.0000000  1.0460000  1
   2973   2971   2983   6031     1  0.0000000  0.0000000  3
   2973   2971   2983   2984     1  0.0000000  0.6508444  3
   2973   2971   2983   2985     1  0.0000000  0.6508444  3
   2975   2974   2980   6002     1  0.0000000  1.0460000  1
   2975   2974   2980   6002     1  0.0000000  0.0000000  3
   2975   2974   2980   2981     1  0.0000000  0.6508444  3
   2975   2974   2980   2982     1  0.0000000  0.6508444  3
   2976   2974   2980   6002     1  0.0000000  1.0460000  1
   2976   2974   2980   6002     1  0.0000000  0.0000000  3
   2976   2974   2980   2981     1  0.0000000  0.6508444  3
   2976   2974   2980   2982     1  0.0000000  0.6508444  3
   2980   6002   5993   5994     1  0.0000000  1.6038667  3
   2980   6002   5993   5995     1  0.0000000  1.6038667  3
   2981   2980   6002   5993     1  0.0000000  1.6038667  3
   2982   2980   6002   5993     1  0.0000000  1.6038667  3
   2983   6031   6022   6023     1  0.0000000  1.6038667  3
   2983   6031   6022   6024     1  0.0000000  1.6038667  3
   2984   2983   6031   6022     1  0.0000000  1.6038667  3
   2985   2983   6031   6022     1  0.0000000  1.6038667  3
   2987   2988   3000   3001     1  0.0000000  0.6508444  3
   2987   2988   3000   3002     1  0.0000000  0.6508444  3
   2987   2991   3003   3004     1  0.0000000  0.6508444  3
   2987   2991   3003   3005     1  0.0000000  0.6508444  3
   2987   2994   2997   2998     1  0.0000000  0.6508444  3
   2987   2994   2997   2999     1  0.0000000  0.6508444  3
   2988   2987   2991   2992     1  0.0000000  1.2552000  3
   2988   2987   2991   2993     1  0.0000000  1.2552000  3
   2988   2987   2994   2995     1  0.0000000  1.2552000  3
   2988   2987   2994   2996     1  0.0000000  1.2552000  3
   2988   3000   3012   3013     1  0.0000000  0.6508444  3
   2988   3000   3012   3014     1  0.0000000  0.6508444  3
   2989   2988   2987   2991     1  0.0000000  1.2552000  3
   2989   2988   2987   2994     1  0.0000000  1.2552000  3
   2989   2988   3000   3012     1  0.0000000  0.6508444  3
   2989   2988   3000   3001     1  0.0000000  0.6508444  3
   2989   2988   3000   3002     1  0.0000000  0.6508444  3
   2990   2988   2987   2991     1  0.0000000  1.2552000  3
   2990   2988   2987   2994     1  0.0000000  1.2552000  3
   2990   2988   3000   3012     1  0.0000000  0.6508444  3
   2990   2988   3000   3001     1  0.0000000  0.6508444  3
   2990   2988   3000   3002     1  0.0000000  0.6508444  3
   2991   2987   2994   2995     1  0.0000000  1.2552000  3
   2991   2987   2994   2996     1  0.0000000  1.2552000  3
   2991   3003   3009   3010     1  0.0000000  0.6508444  3
   2991   3003   3009   3011     1  0.0000000  0.6508444  3
   2992   2991   2987   2994     1  0.0000000  1.2552000  3
   2992   2991   3003   3009     1  0.0000000  0.6508444  3
   2992   2991   3003   3004     1  0.0000000  0.6508444  3
   2992   2991   3003   3005     1  0.0000000  0.6508444  3
   2993   2991   2987   2994     1  0.0000000  1.2552000  3
   2993   2991   3003   3009     1  0.0000000  0.6508444  3
   2993   2991   3003   3004     1  0.0000000  0.6508444  3
   2993   2991   3003   3005     1  0.0000000  0.6508444  3
   2994   2997   3006   3007     1  0.0000000  0.6508444  3
   2994   2997   3006   3008     1  0.0000000  0.6508444  3
   2995   2994   2997   3006     1  0.0000000  0.6508444  3
   2995   2994   2997   2998     1  0.0000000  0.6508444  3
   2995   2994   2997   2999     1  0.0000000  0.6508444  3
   2996   2994   2997   3006     1  0.0000000  0.6508444  3
   2996   2994   2997   2998     1  0.0000000  0.6508444  3
   2996   2994   2997   2999     1  0.0000000  0.6508444  3
   2998   2997   3006   3015     1  0.0000000  1.0460000  1
   2998   2997   3006   3015     1  0.0000000  0.0000000  3
   2998   2997   3006   3007     1  0.0000000  0.6508444  3
   2998   2997   3006   3008     1  0.0000000  0.6508444  3
   2999   2997   3006   3015     1  0.0000000  1.0460000  1
   2999   2997   3006   3015     1  0.0000000  0.0000000  3
   2999   2997   3006   3007     1  0.0000000  0.6508444  3
   2999   2997   3006   3008     1  0.0000000  0.6508444  3
   3001   3000   3012   6089     1  0.0000000  1.0460000  1
   3001   3000   3012   6089     1  0.0000000  0.0000000  3
   3001   3000   3012   3013     1  0.0000000  0.6508444  3
   3001   3000   3012   3014     1  0.0000000  0.6508444  3
   3002   3000   3012   6089     1  0.0000000  1.0460000  1
   3002   3000   3012   6089     1  0.0000000  0.0000000  3
   3002   3000   3012   3013     1  0.0000000  0.6508444  3
   3002   3000   3012   3014     1  0.0000000  0.6508444  3
   3004   3003   3009   6060     1  0.0000000  1.0460000  1
   3004   3003   3009   6060     1  0.0000000  0.0000000  3
   3004   3003   3009   3010     1  0.0000000  0.6508444  3
   3004   3003   3009   3011     1  0.0000000  0.6508444  3
   3005   3003   3009   6060     1  0.0000000  1.0460000  1
   3005   3003   3009   6060     1  0.0000000  0.0000000  3
   3005   3003   3009   3010     1  0.0000000  0.6508444  3
   3005   3003   3009   3011     1  0.0000000  0.6508444  3
   3009   6060   6051   6052     1  0.0000000  1.6038667  3
   3009   6060   6051   6053     1  0.0000000  1.6038667  3
   3010   3009   6060   6051     1  0.0000000  1.6038667  3
   3011   3009   6060   6051     1  0.0000000  1.6038667  3
   3012   6089   6080   6081     1  0.0000000  1.6038667  3
   3012   6089   6080   6082     1  0.0000000  1.6038667  3
   3013   3012   6089   6080     1  0.0000000  1.6038667  3
   3014   3012   6089   6080     1  0.0000000  1.6038667  3
   3016   3017   3029   3030     1  0.0000000  0.6508444  3
   3016   3017   3029   3031     1  0.0000000  0.6508444  3
   3016   3020   3032   3033     1  0.0000000  0.6508444  3
   3016   3020   3032   3034     1  0.0000000  0.6508444  3
   3016   3023   3026   3027     1  0.0000000  0.6508444  3
   3016   3023   3026   3028     1  0.0000000  0.6508444  3
   3017   3016   3020   3021     1  0.0000000  1.2552000  3
   3017   3016   3020   3022     1  0.0000000  1.2552000  3
   3017   3016   3023   3024     1  0.0000000  1.2552000  3
   3017   3016   3023   3025     1  0.0000000  1.2552000  3
   3017   3029   3041   3042     1  0.0000000  0.6508444  3
   3017   3029   3041   3043     1  0.0000000  0.6508444  3
   3018   3017   3016   3020     1  0.0000000  1.2552000  3
   3018   3017   3016   3023     1  0.0000000  1.2552000  3
   3018   3017   3029   3041     1  0.0000000  0.6508444  3
   3018   3017   3029   3030     1  0.0000000  0.6508444  3
   3018   3017   3029   3031     1  0.0000000  0.6508444  3
   3019   3017   3016   3020     1  0.0000000  1.2552000  3
   3019   3017   3016   3023     1  0.0000000  1.2552000  3
   3019   3017   3029   3041     1  0.0000000  0.6508444  3
   3019   3017   3029   3030     1  0.0000000  0.6508444  3
   3019   3017   3029   3031     1  0.0000000  0.6508444  3
   3020   3016   3023   3024     1  0.0000000  1.2552000  3
   3020   3016   3023   3025     1  0.0000000  1.2552000  3
   3020   3032   3038   3039     1  0.0000000  0.6508444  3
   3020   3032   3038   3040     1  0.0000000  0.6508444  3
   3021   3020   3016   3023     1  0.0000000  1.2552000  3
   3021   3020   3032   3038     1  0.0000000  0.6508444  3
   3021   3020   3032   3033     1  0.0000000  0.6508444  3
   3021   3020   3032   3034     1  0.0000000  0.6508444  3
   3022   3020   3016   3023     1  0.0000000  1.2552000  3
   3022   3020   3032   3038     1  0.0000000  0.6508444  3
   3022   3020   3032   3033     1  0.0000000  0.6508444  3
   3022   3020   3032   3034     1  0.0000000  0.6508444  3
   3023   3026   3035   3036     1  0.0000000  0.6508444  3
   3023   3026   3035   3037     1  0.0000000  0.6508444  3
   3024   3023   3026   3035     1  0.0000000  0.6508444  3
   3024   3023   3026   3027     1  0.0000000  0.6508444  3
   3024   3023   3026   3028     1  0.0000000  0.6508444  3
   3025   3023   3026   3035     1  0.0000000  0.6508444  3
   3025   3023   3026   3027     1  0.0000000  0.6508444  3
   3025   3023   3026   3028     1  0.0000000  0.6508444  3
   3027   3026   3035   3044     1  0.0000000  1.0460000  1
   3027   3026   3035   3044     1  0.0000000  0.0000000  3
   3027   3026   3035   3036     1  0.0000000  0.6508444  3
   3027   3026   3035   3037     1  0.0000000  0.6508444  3
   3028   3026   3035   3044     1  0.0000000  1.0460000  1
   3028   3026   3035   3044     1  0.0000000  0.0000000  3
   3028   3026   3035   3036     1  0.0000000  0.6508444  3
   3028   3026   3035   3037     1  0.0000000  0.6508444  3
   3030   3029   3041   6147     1  0.0000000  1.0460000  1
   3030   3029   3041   6147     1  0.0000000  0.0000000  3
   3030   3029   3041   3042     1  0.0000000  0.6508444  3
   3030   3029   3041   3043     1  0.0000000  0.6508444  3
   3031   3029   3041   6147     1  0.0000000  1.0460000  1
   3031   3029   3041   6147     1  0.0000000  0.0000000  3
   3031   3029   3041   3042     1  0.0000000  0.6508444  3
   3031   3029   3041   3043     1  0.0000000  0.6508444  3
   3033   3032   3038   6118     1  0.0000000  1.0460000  1
   3033   3032   3038   6118     1  0.0000000  0.0000000  3
   3033   3032   3038   3039     1  0.0000000  0.6508444  3
   3033   3032   3038   3040     1  0.0000000  0.6508444  3
   3034   3032   3038   6118     1  0.0000000  1.0460000  1
   3034   3032   3038   6118     1  0.0000000  0.0000000  3
   3034   3032   3038   3039     1  0.0000000  0.6508444  3
   3034   3032   3038   3040     1  0.0000000  0.6508444  3
   3038   6118   6109   6110     1  0.0000000  1.6038667  3
   3038   6118   6109   6111     1  0.0000000  1.6038667  3
   3039   3038   6118   6109     1  0.0000000  1.6038667  3
   3040   3038   6118   6109     1  0.0000000  1.6038667  3
   3041   6147   6138   6139     1  0.0000000  1.6038667  3
   3041   6147   6138   6140     1  0.0000000  1.6038667  3
   3042   3041   6147   6138     1  0.0000000  1.6038667  3
   3043   3041   6147   6138     1  0.0000000  1.6038667  3
   3045   3046   3058   3059     1  0.0000000  0.6508444  3
   3045   3046   3058   3060     1  0.0000000  0.6508444  3
   3045   3049   3061   3062     1  0.0000000  0.6508444  3
   3045   3049   3061   3063     1  0.0000000  0.6508444  3
   3045   3052   3055   3056     1  0.0000000  0.6508444  3
   3045   3052   3055   3057     1  0.0000000  0.6508444  3
   3046   3045   3049   3050     1  0.0000000  1.2552000  3
   3046   3045   3049   3051     1  0.0000000  1.2552000  3
   3046   3045   3052   3053     1  0.0000000  1.2552000  3
   3046   3045   3052   3054     1  0.0000000  1.2552000  3
   3046   3058   3070   3071     1  0.0000000  0.6508444  3
   3046   3058   3070   3072     1  0.0000000  0.6508444  3
   3047   3046   3045   3049     1  0.0000000  1.2552000  3
   3047   3046   3045   3052     1  0.0000000  1.2552000  3
   3047   3046   3058   3070     1  0.0000000  0.6508444  3
   3047   3046   3058   3059     1  0.0000000  0.6508444  3
   3047   3046   3058   3060     1  0.0000000  0.6508444  3
   3048   3046   3045   3049     1  0.0000000  1.2552000  3
   3048   3046   3045   3052     1  0.0000000  1.2552000  3
   3048   3046   3058   3070     1  0.0000000  0.6508444  3
   3048   3046   3058   3059     1  0.0000000  0.6508444  3
   3048   3046   3058   3060     1  0.0000000  0.6508444  3
   3049   3045   3052   3053     1  0.0000000  1.2552000  3
   3049   3045   3052   3054     1  0.0000000  1.2552000  3
   3049   3061   3067   3068     1  0.0000000  0.6508444  3
   3049   3061   3067   3069     1  0.0000000  0.6508444  3
   3050   3049   3045   3052     1  0.0000000  1.2552000  3
   3050   3049   3061   3067     1  0.0000000  0.6508444  3
   3050   3049   3061   3062     1  0.0000000  0.6508444  3
   3050   3049   3061   3063     1  0.0000000  0.6508444  3
   3051   3049   3045   3052     1  0.0000000  1.2552000  3
   3051   3049   3061   3067     1  0.0000000  0.6508444  3
   3051   3049   3061   3062     1  0.0000000  0.6508444  3
   3051   3049   3061   3063     1  0.0000000  0.6508444  3
   3052   3055   3064   3065     1  0.0000000  0.6508444  3
   3052   3055   3064   3066     1  0.0000000  0.6508444  3
   3053   3052   3055   3064     1  0.0000000  0.6508444  3
   3053   3052   3055   3056     1  0.0000000  0.6508444  3
   3053   3052   3055   3057     1  0.0000000  0.6508444  3
   3054   3052   3055   3064     1  0.0000000  0.6508444  3
   3054   3052   3055   3056     1  0.0000000  0.6508444  3
   3054   3052   3055   3057     1  0.0000000  0.6508444  3
   3056   3055   3064   3073     1  0.0000000  1.0460000  1
   3056   3055   3064   3073     1  0.0000000  0.0000000  3
   3056   3055   3064   3065     1  0.0000000  0.6508444  3
   3056   3055   3064   3066     1  0.0000000  0.6508444  3
   3057   3055   3064   3073     1  0.0000000  1.0460000  1
   3057   3055   3064   3073     1  0.0000000  0.0000000  3
   3057   3055   3064   3065     1  0.0000000  0.6508444  3
   3057   3055   3064   3066     1  0.0000000  0.6508444  3
   3059   3058   3070   6205     1  0.0000000  1.0460000  1
   3059   3058   3070   6205     1  0.0000000  0.0000000  3
   3059   3058   3070   3071     1  0.0000000  0.6508444  3
   3059   3058   3070   3072     1  0.0000000  0.6508444  3
   3060   3058   3070   6205     1  0.0000000  1.0460000  1
   3060   3058   3070   6205     1  0.0000000  0.0000000  3
   3060   3058   3070   3071     1  0.0000000  0.6508444  3
   3060   3058   3070   3072     1  0.0000000  0.6508444  3
   3062   3061   3067   6176     1  0.0000000  1.0460000  1
   3062   3061   3067   6176     1  0.0000000  0.0000000  3
   3062   3061   3067   3068     1  0.0000000  0.6508444  3
   3062   3061   3067   3069     1  0.0000000  0.6508444  3
   3063   3061   3067   6176     1  0.0000000  1.0460000  1
   3063   3061   3067   6176     1  0.0000000  0.0000000  3
   3063   3061   3067   3068     1  0.0000000  0.6508444  3
   3063   3061   3067   3069     1  0.0000000  0.6508444  3
   3067   6176   6167   6168     1  0.0000000  1.6038667  3
   3067   6176   6167   6169     1  0.0000000  1.6038667  3
   3068   3067   6176   6167     1  0.0000000  1.6038667  3
   3069   3067   6176   6167     1  0.0000000  1.6038667  3
   3070   6205   6196   6197     1  0.0000000  1.6038667  3
   3070   6205   6196   6198     1  0.0000000  1.6038667  3
   3071   3070   6205   6196     1  0.0000000  1.6038667  3
   3072   3070   6205   6196     1  0.0000000  1.6038667  3
   3074   3075   3087   3088     1  0.0000000  0.6508444  3
   3074   3075   3087   3089     1  0.0000000  0.6508444  3
   3074   3078   3090   3091     1  0.0000000  0.6508444  3
   3074   3078   3090   3092     1  0.0000000  0.6508444  3
   3074   3081   3084   3085     1  0.0000000  0.6508444  3
   3074   3081   3084   3086     1  0.0000000  0.6508444  3
   3075   3074   3078   3079     1  0.0000000  1.2552000  3
   3075   3074   3078   3080     1  0.0000000  1.2552000  3
   3075   3074   3081   3082     1  0.0000000  1.2552000  3
   3075   3074   3081   3083     1  0.0000000  1.2552000  3
   3075   3087   3099   3100     1  0.0000000  0.6508444  3
   3075   3087   3099   3101     1  0.0000000  0.6508444  3
   3076   3075   3074   3078     1  0.0000000  1.2552000  3
   3076   3075   3074   3081     1  0.0000000  1.2552000  3
   3076   3075   3087   3099     1  0.0000000  0.6508444  3
   3076   3075   3087   3088     1  0.0000000  0.6508444  3
   3076   3075   3087   3089     1  0.0000000  0.6508444  3
   3077   3075   3074   3078     1  0.0000000  1.2552000  3
   3077   3075   3074   3081     1  0.0000000  1.2552000  3
   3077   3075   3087   3099     1  0.0000000  0.6508444  3
   3077   3075   3087   3088     1  0.0000000  0.6508444  3
   3077   3075   3087   3089     1  0.0000000  0.6508444  3
   3078   3074   3081   3082     1  0.0000000  1.2552000  3
   3078   3074   3081   3083     1  0.0000000  1.2552000  3
   3078   3090   3096   3097     1  0.0000000  0.6508444  3
   3078   3090   3096   3098     1  0.0000000  0.6508444  3
   3079   3078   3074   3081     1  0.0000000  1.2552000  3
   3079   3078   3090   3096     1  0.0000000  0.6508444  3
   3079   3078   3090   3091     1  0.0000000  0.6508444  3
   3079   3078   3090   3092     1  0.0000000  0.6508444  3
   3080   3078   3074   3081     1  0.0000000  1.2552000  3
   3080   3078   3090   3096     1  0.0000000  0.6508444  3
   3080   3078   3090   3091     1  0.0000000  0.6508444  3
   3080   3078   3090   3092     1  0.0000000  0.6508444  3
   3081   3084   3093   3094     1  0.0000000  0.6508444  3
   3081   3084   3093   3095     1  0.0000000  0.6508444  3
   3082   3081   3084   3093     1  0.0000000  0.6508444  3
   3082   3081   3084   3085     1  0.0000000  0.6508444  3
   3082   3081   3084   3086     1  0.0000000  0.6508444  3
   3083   3081   3084   3093     1  0.0000000  0.6508444  3
   3083   3081   3084   3085     1  0.0000000  0.6508444  3
   3083   3081   3084   3086     1  0.0000000  0.6508444  3
   3085   3084   3093   3102     1  0.0000000  1.0460000  1
   3085   3084   3093   3102     1  0.0000000  0.0000000  3
   3085   3084   3093   3094     1  0.0000000  0.6508444  3
   3085   3084   3093   3095     1  0.0000000  0.6508444  3
   3086   3084   3093   3102     1  0.0000000  1.0460000  1
   3086   3084   3093   3102     1  0.0000000  0.0000000  3
   3086   3084   3093   3094     1  0.0000000  0.6508444  3
   3086   3084   3093   3095     1  0.0000000  0.6508444  3
   3088   3087   3099   6263     1  0.0000000  1.0460000  1
   3088   3087   3099   6263     1  0.0000000  0.0000000  3
   3088   3087   3099   3100     1  0.0000000  0.6508444  3
   3088   3087   3099   3101     1  0.0000000  0.6508444  3
   3089   3087   3099   6263     1  0.0000000  1.0460000  1
   3089   3087   3099   6263     1  0.0000000  0.0000000  3
   3089   3087   3099   3100     1  0.0000000  0.6508444  3
   3089   3087   3099   3101     1  0.0000000  0.6508444  3
   3091   3090   3096   6234     1  0.0000000  1.0460000  1
   3091   3090   3096   6234     1  0.0000000  0.0000000  3
   3091   3090   3096   3097     1  0.0000000  0.6508444  3
   3091   3090   3096   3098     1  0.0000000  0.6508444  3
   3092   3090   3096   6234     1  0.0000000  1.0460000  1
   3092   3090   3096   6234     1  0.0000000  0.0000000  3
   3092   3090   3096   3097     1  0.0000000  0.6508444  3
   3092   3090   3096   3098     1  0.0000000  0.6508444  3
   3096   6234   6225   6226     1  0.0000000  1.6038667  3
   3096   6234   6225   6227     1  0.0000000  1.6038667  3
   3097   3096   6234   6225     1  0.0000000  1.6038667  3
   3098   3096   6234   6225     1  0.0000000  1.6038667  3
   3099   6263   6254   6255     1  0.0000000  1.6038667  3
   3099   6263   6254   6256     1  0.0000000  1.6038667  3
   3100   3099   6263   6254     1  0.0000000  1.6038667  3
   3101   3099   6263   6254     1  0.0000000  1.6038667  3
   3103   3104   3116   3117     1  0.0000000  0.6508444  3
   3103   3104   3116   3118     1  0.0000000  0.6508444  3
   3103   3107   3119   3120     1  0.0000000  0.6508444  3
   3103   3107   3119   3121     1  0.0000000  0.6508444  3
   3103   3110   3113   3114     1  0.0000000  0.6508444  3
   3103   3110   3113   3115     1  0.0000000  0.6508444  3
   3104   3103   3107   3108     1  0.0000000  1.2552000  3
   3104   3103   3107   3109     1  0.0000000  1.2552000  3
   3104   3103   3110   3111     1  0.0000000  1.2552000  3
   3104   3103   3110   3112     1  0.0000000  1.2552000  3
   3104   3116   3128   3129     1  0.0000000  0.6508444  3
   3104   3116   3128   3130     1  0.0000000  0.6508444  3
   3105   3104   3103   3107     1  0.0000000  1.2552000  3
   3105   3104   3103   3110     1  0.0000000  1.2552000  3
   3105   3104   3116   3128     1  0.0000000  0.6508444  3
   3105   3104   3116   3117     1  0.0000000  0.6508444  3
   3105   3104   3116   3118     1  0.0000000  0.6508444  3
   3106   3104   3103   3107     1  0.0000000  1.2552000  3
   3106   3104   3103   3110     1  0.0000000  1.2552000  3
   3106   3104   3116   3128     1  0.0000000  0.6508444  3
   3106   3104   3116   3117     1  0.0000000  0.6508444  3
   3106   3104   3116   3118     1  0.0000000  0.6508444  3
   3107   3103   3110   3111     1  0.0000000  1.2552000  3
   3107   3103   3110   3112     1  0.0000000  1.2552000  3
   3107   3119   3125   3126     1  0.0000000  0.6508444  3
   3107   3119   3125   3127     1  0.0000000  0.6508444  3
   3108   3107   3103   3110     1  0.0000000  1.2552000  3
   3108   3107   3119   3125     1  0.0000000  0.6508444  3
   3108   3107   3119   3120     1  0.0000000  0.6508444  3
   3108   3107   3119   3121     1  0.0000000  0.6508444  3
   3109   3107   3103   3110     1  0.0000000  1.2552000  3
   3109   3107   3119   3125     1  0.0000000  0.6508444  3
   3109   3107   3119   3120     1  0.0000000  0.6508444  3
   3109   3107   3119   3121     1  0.0000000  0.6508444  3
   3110   3113   3122   3123     1  0.0000000  0.6508444  3
   3110   3113   3122   3124     1  0.0000000  0.6508444  3
   3111   3110   3113   3122     1  0.0000000  0.6508444  3
   3111   3110   3113   3114     1  0.0000000  0.6508444  3
   3111   3110   3113   3115     1  0.0000000  0.6508444  3
   3112   3110   3113   3122     1  0.0000000  0.6508444  3
   3112   3110   3113   3114     1  0.0000000  0.6508444  3
   3112   3110   3113   3115     1  0.0000000  0.6508444  3
   3114   3113   3122   3131     1  0.0000000  1.0460000  1
   3114   3113   3122   3131     1  0.0000000  0.0000000  3
   3114   3113   3122   3123     1  0.0000000  0.6508444  3
   3114   3113   3122   3124     1  0.0000000  0.6508444  3
   3115   3113   3122   3131     1  0.0000000  1.0460000  1
   3115   3113   3122   3131     1  0.0000000  0.0000000  3
   3115   3113   3122   3123     1  0.0000000  0.6508444  3
   3115   3113   3122   3124     1  0.0000000  0.6508444  3
   3117   3116   3128   6321     1  0.0000000  1.0460000  1
   3117   3116   3128   6321     1  0.0000000  0.0000000  3
   3117   3116   3128   3129     1  0.0000000  0.6508444  3
   3117   3116   3128   3130     1  0.0000000  0.6508444  3
   3118   3116   3128   6321     1  0.0000000  1.0460000  1
   3118   3116   3128   6321     1  0.0000000  0.0000000  3
   3118   3116   3128   3129     1  0.0000000  0.6508444  3
   3118   3116   3128   3130     1  0.0000000  0.6508444  3
   3120   3119   3125   6292     1  0.0000000  1.0460000  1
   3120   3119   3125   6292     1  0.0000000  0.0000000  3
   3120   3119   3125   3126     1  0.0000000  0.6508444  3
   3120   3119   3125   3127     1  0.0000000  0.6508444  3
   3121   3119   3125   6292     1  0.0000000  1.0460000  1
   3121   3119   3125   6292     1  0.0000000  0.0000000  3
   3121   3119   3125   3126     1  0.0000000  0.6508444  3
   3121   3119   3125   3127     1  0.0000000  0.6508444  3
   3125   6292   6283   6284     1  0.0000000  1.6038667  3
   3125   6292   6283   6285     1  0.0000000  1.6038667  3
   3126   3125   6292   6283     1  0.0000000  1.6038667  3
   3127   3125   6292   6283     1  0.0000000  1.6038667  3
   3128   6321   6312   6313     1  0.0000000  1.6038667  3
   3128   6321   6312   6314     1  0.0000000  1.6038667  3
   3129   3128   6321   6312     1  0.0000000  1.6038667  3
   3130   3128   6321   6312     1  0.0000000  1.6038667  3
   3132   3133   3145   3146     1  0.0000000  0.6508444  3
   3132   3133   3145   3147     1  0.0000000  0.6508444  3
   3132   3136   3148   3149     1  0.0000000  0.6508444  3
   3132   3136   3148   3150     1  0.0000000  0.6508444  3
   3132   3139   3142   3143     1  0.0000000  0.6508444  3
   3132   3139   3142   3144     1  0.0000000  0.6508444  3
   3133   3132   3136   3137     1  0.0000000  1.2552000  3
   3133   3132   3136   3138     1  0.0000000  1.2552000  3
   3133   3132   3139   3140     1  0.0000000  1.2552000  3
   3133   3132   3139   3141     1  0.0000000  1.2552000  3
   3133   3145   3157   3158     1  0.0000000  0.6508444  3
   3133   3145   3157   3159     1  0.0000000  0.6508444  3
   3134   3133   3132   3136     1  0.0000000  1.2552000  3
   3134   3133   3132   3139     1  0.0000000  1.2552000  3
   3134   3133   3145   3157     1  0.0000000  0.6508444  3
   3134   3133   3145   3146     1  0.0000000  0.6508444  3
   3134   3133   3145   3147     1  0.0000000  0.6508444  3
   3135   3133   3132   3136     1  0.0000000  1.2552000  3
   3135   3133   3132   3139     1  0.0000000  1.2552000  3
   3135   3133   3145   3157     1  0.0000000  0.6508444  3
   3135   3133   3145   3146     1  0.0000000  0.6508444  3
   3135   3133   3145   3147     1  0.0000000  0.6508444  3
   3136   3132   3139   3140     1  0.0000000  1.2552000  3
   3136   3132   3139   3141     1  0.0000000  1.2552000  3
   3136   3148   3154   3155     1  0.0000000  0.6508444  3
   3136   3148   3154   3156     1  0.0000000  0.6508444  3
   3137   3136   3132   3139     1  0.0000000  1.2552000  3
   3137   3136   3148   3154     1  0.0000000  0.6508444  3
   3137   3136   3148   3149     1  0.0000000  0.6508444  3
   3137   3136   3148   3150     1  0.0000000  0.6508444  3
   3138   3136   3132   3139     1  0.0000000  1.2552000  3
   3138   3136   3148   3154     1  0.0000000  0.6508444  3
   3138   3136   3148   3149     1  0.0000000  0.6508444  3
   3138   3136   3148   3150     1  0.0000000  0.6508444  3
   3139   3142   3151   3152     1  0.0000000  0.6508444  3
   3139   3142   3151   3153     1  0.0000000  0.6508444  3
   3140   3139   3142   3151     1  0.0000000  0.6508444  3
   3140   3139   3142   3143     1  0.0000000  0.6508444  3
   3140   3139   3142   3144     1  0.0000000  0.6508444  3
   3141   3139   3142   3151     1  0.0000000  0.6508444  3
   3141   3139   3142   3143     1  0.0000000  0.6508444  3
   3141   3139   3142   3144     1  0.0000000  0.6508444  3
   3143   3142   3151   3160     1  0.0000000  1.0460000  1
   3143   3142   3151   3160     1  0.0000000  0.0000000  3
   3143   3142   3151   3152     1  0.0000000  0.6508444  3
   3143   3142   3151   3153     1  0.0000000  0.6508444  3
   3144   3142   3151   3160     1  0.0000000  1.0460000  1
   3144   3142   3151   3160     1  0.0000000  0.0000000  3
   3144   3142   3151   3152     1  0.0000000  0.6508444  3
   3144   3142   3151   3153     1  0.0000000  0.6508444  3
   3146   3145   3157   6379     1  0.0000000  1.0460000  1
   3146   3145   3157   6379     1  0.0000000  0.0000000  3
   3146   3145   3157   3158     1  0.0000000  0.6508444  3
   3146   3145   3157   3159     1  0.0000000  0.6508444  3
   3147   3145   3157   6379     1  0.0000000  1.0460000  1
   3147   3145   3157   6379     1  0.0000000  0.0000000  3
   3147   3145   3157   3158     1  0.0000000  0.6508444  3
   3147   3145   3157   3159     1  0.0000000  0.6508444  3
   3149   3148   3154   6350     1  0.0000000  1.0460000  1
   3149   3148   3154   6350     1  0.0000000  0.0000000  3
   3149   3148   3154   3155     1  0.0000000  0.6508444  3
   3149   3148   3154   3156     1  0.0000000  0.6508444  3
   3150   3148   3154   6350     1  0.0000000  1.0460000  1
   3150   3148   3154   6350     1  0.0000000  0.0000000  3
   3150   3148   3154   3155     1  0.0000000  0.6508444  3
   3150   3148   3154   3156     1  0.0000000  0.6508444  3
   3154   6350   6341   6342     1  0.0000000  1.6038667  3
   3154   6350   6341   6343     1  0.0000000  1.6038667  3
   3155   3154   6350   6341     1  0.0000000  1.6038667  3
   3156   3154   6350   6341     1  0.0000000  1.6038667  3
   3157   6379   6370   6371     1  0.0000000  1.6038667  3
   3157   6379   6370   6372     1  0.0000000  1.6038667  3
   3158   3157   6379   6370     1  0.0000000  1.6038667  3
   3159   3157   6379   6370     1  0.0000000  1.6038667  3
   3161   3162   3174   3175     1  0.0000000  0.6508444  3
   3161   3162   3174   3176     1  0.0000000  0.6508444  3
   3161   3165   3177   3178     1  0.0000000  0.6508444  3
   3161   3165   3177   3179     1  0.0000000  0.6508444  3
   3161   3168   3171   3172     1  0.0000000  0.6508444  3
   3161   3168   3171   3173     1  0.0000000  0.6508444  3
   3162   3161   3165   3166     1  0.0000000  1.2552000  3
   3162   3161   3165   3167     1  0.0000000  1.2552000  3
   3162   3161   3168   3169     1  0.0000000  1.2552000  3
   3162   3161   3168   3170     1  0.0000000  1.2552000  3
   3162   3174   3186   3187     1  0.0000000  0.6508444  3
   3162   3174   3186   3188     1  0.0000000  0.6508444  3
   3163   3162   3161   3165     1  0.0000000  1.2552000  3
   3163   3162   3161   3168     1  0.0000000  1.2552000  3
   3163   3162   3174   3186     1  0.0000000  0.6508444  3
   3163   3162   3174   3175     1  0.0000000  0.6508444  3
   3163   3162   3174   3176     1  0.0000000  0.6508444  3
   3164   3162   3161   3165     1  0.0000000  1.2552000  3
   3164   3162   3161   3168     1  0.0000000  1.2552000  3
   3164   3162   3174   3186     1  0.0000000  0.6508444  3
   3164   3162   3174   3175     1  0.0000000  0.6508444  3
   3164   3162   3174   3176     1  0.0000000  0.6508444  3
   3165   3161   3168   3169     1  0.0000000  1.2552000  3
   3165   3161   3168   3170     1  0.0000000  1.2552000  3
   3165   3177   3183   3184     1  0.0000000  0.6508444  3
   3165   3177   3183   3185     1  0.0000000  0.6508444  3
   3166   3165   3161   3168     1  0.0000000  1.2552000  3
   3166   3165   3177   3183     1  0.0000000  0.6508444  3
   3166   3165   3177   3178     1  0.0000000  0.6508444  3
   3166   3165   3177   3179     1  0.0000000  0.6508444  3
   3167   3165   3161   3168     1  0.0000000  1.2552000  3
   3167   3165   3177   3183     1  0.0000000  0.6508444  3
   3167   3165   3177   3178     1  0.0000000  0.6508444  3
   3167   3165   3177   3179     1  0.0000000  0.6508444  3
   3168   3171   3180   3181     1  0.0000000  0.6508444  3
   3168   3171   3180   3182     1  0.0000000  0.6508444  3
   3169   3168   3171   3180     1  0.0000000  0.6508444  3
   3169   3168   3171   3172     1  0.0000000  0.6508444  3
   3169   3168   3171   3173     1  0.0000000  0.6508444  3
   3170   3168   3171   3180     1  0.0000000  0.6508444  3
   3170   3168   3171   3172     1  0.0000000  0.6508444  3
   3170   3168   3171   3173     1  0.0000000  0.6508444  3
   3172   3171   3180   3189     1  0.0000000  1.0460000  1
   3172   3171   3180   3189     1  0.0000000  0.0000000  3
   3172   3171   3180   3181     1  0.0000000  0.6508444  3
   3172   3171   3180   3182     1  0.0000000  0.6508444  3
   3173   3171   3180   3189     1  0.0000000  1.0460000  1
   3173   3171   3180   3189     1  0.0000000  0.0000000  3
   3173   3171   3180   3181     1  0.0000000  0.6508444  3
   3173   3171   3180   3182     1  0.0000000  0.6508444  3
   3175   3174   3186   6437     1  0.0000000  1.0460000  1
   3175   3174   3186   6437     1  0.0000000  0.0000000  3
   3175   3174   3186   3187     1  0.0000000  0.6508444  3
   3175   3174   3186   3188     1  0.0000000  0.6508444  3
   3176   3174   3186   6437     1  0.0000000  1.0460000  1
   3176   3174   3186   6437     1  0.0000000  0.0000000  3
   3176   3174   3186   3187     1  0.0000000  0.6508444  3
   3176   3174   3186   3188     1  0.0000000  0.6508444  3
   3178   3177   3183   6408     1  0.0000000  1.0460000  1
   3178   3177   3183   6408     1  0.0000000  0.0000000  3
   3178   3177   3183   3184     1  0.0000000  0.6508444  3
   3178   3177   3183   3185     1  0.0000000  0.6508444  3
   3179   3177   3183   6408     1  0.0000000  1.0460000  1
   3179   3177   3183   6408     1  0.0000000  0.0000000  3
   3179   3177   3183   3184     1  0.0000000  0.6508444  3
   3179   3177   3183   3185     1  0.0000000  0.6508444  3
   3183   6408   6399   6400     1  0.0000000  1.6038667  3
   3183   6408   6399   6401     1  0.0000000  1.6038667  3
   3184   3183   6408   6399     1  0.0000000  1.6038667  3
   3185   3183   6408   6399     1  0.0000000  1.6038667  3
   3186   6437   6428   6429     1  0.0000000  1.6038667  3
   3186   6437   6428   6430     1  0.0000000  1.6038667  3
   3187   3186   6437   6428     1  0.0000000  1.6038667  3
   3188   3186   6437   6428     1  0.0000000  1.6038667  3
   3190   3191   3203   3204     1  0.0000000  0.6508444  3
   3190   3191   3203   3205     1  0.0000000  0.6508444  3
   3190   3194   3206   3207     1  0.0000000  0.6508444  3
   3190   3194   3206   3208     1  0.0000000  0.6508444  3
   3190   3197   3200   3201     1  0.0000000  0.6508444  3
   3190   3197   3200   3202     1  0.0000000  0.6508444  3
   3191   3190   3194   3195     1  0.0000000  1.2552000  3
   3191   3190   3194   3196     1  0.0000000  1.2552000  3
   3191   3190   3197   3198     1  0.0000000  1.2552000  3
   3191   3190   3197   3199     1  0.0000000  1.2552000  3
   3191   3203   3215   3216     1  0.0000000  0.6508444  3
   3191   3203   3215   3217     1  0.0000000  0.6508444  3
   3192   3191   3190   3194     1  0.0000000  1.2552000  3
   3192   3191   3190   3197     1  0.0000000  1.2552000  3
   3192   3191   3203   3215     1  0.0000000  0.6508444  3
   3192   3191   3203   3204     1  0.0000000  0.6508444  3
   3192   3191   3203   3205     1  0.0000000  0.6508444  3
   3193   3191   3190   3194     1  0.0000000  1.2552000  3
   3193   3191   3190   3197     1  0.0000000  1.2552000  3
   3193   3191   3203   3215     1  0.0000000  0.6508444  3
   3193   3191   3203   3204     1  0.0000000  0.6508444  3
   3193   3191   3203   3205     1  0.0000000  0.6508444  3
   3194   3190   3197   3198     1  0.0000000  1.2552000  3
   3194   3190   3197   3199     1  0.0000000  1.2552000  3
   3194   3206   3212   3213     1  0.0000000  0.6508444  3
   3194   3206   3212   3214     1  0.0000000  0.6508444  3
   3195   3194   3190   3197     1  0.0000000  1.2552000  3
   3195   3194   3206   3212     1  0.0000000  0.6508444  3
   3195   3194   3206   3207     1  0.0000000  0.6508444  3
   3195   3194   3206   3208     1  0.0000000  0.6508444  3
   3196   3194   3190   3197     1  0.0000000  1.2552000  3
   3196   3194   3206   3212     1  0.0000000  0.6508444  3
   3196   3194   3206   3207     1  0.0000000  0.6508444  3
   3196   3194   3206   3208     1  0.0000000  0.6508444  3
   3197   3200   3209   3210     1  0.0000000  0.6508444  3
   3197   3200   3209   3211     1  0.0000000  0.6508444  3
   3198   3197   3200   3209     1  0.0000000  0.6508444  3
   3198   3197   3200   3201     1  0.0000000  0.6508444  3
   3198   3197   3200   3202     1  0.0000000  0.6508444  3
   3199   3197   3200   3209     1  0.0000000  0.6508444  3
   3199   3197   3200   3201     1  0.0000000  0.6508444  3
   3199   3197   3200   3202     1  0.0000000  0.6508444  3
   3201   3200   3209   3218     1  0.0000000  1.0460000  1
   3201   3200   3209   3218     1  0.0000000  0.0000000  3
   3201   3200   3209   3210     1  0.0000000  0.6508444  3
   3201   3200   3209   3211     1  0.0000000  0.6508444  3
   3202   3200   3209   3218     1  0.0000000  1.0460000  1
   3202   3200   3209   3218     1  0.0000000  0.0000000  3
   3202   3200   3209   3210     1  0.0000000  0.6508444  3
   3202   3200   3209   3211     1  0.0000000  0.6508444  3
   3204   3203   3215   6495     1  0.0000000  1.0460000  1
   3204   3203   3215   6495     1  0.0000000  0.0000000  3
   3204   3203   3215   3216     1  0.0000000  0.6508444  3
   3204   3203   3215   3217     1  0.0000000  0.6508444  3
   3205   3203   3215   6495     1  0.0000000  1.0460000  1
   3205   3203   3215   6495     1  0.0000000  0.0000000  3
   3205   3203   3215   3216     1  0.0000000  0.6508444  3
   3205   3203   3215   3217     1  0.0000000  0.6508444  3
   3207   3206   3212   6466     1  0.0000000  1.0460000  1
   3207   3206   3212   6466     1  0.0000000  0.0000000  3
   3207   3206   3212   3213     1  0.0000000  0.6508444  3
   3207   3206   3212   3214     1  0.0000000  0.6508444  3
   3208   3206   3212   6466     1  0.0000000  1.0460000  1
   3208   3206   3212   6466     1  0.0000000  0.0000000  3
   3208   3206   3212   3213     1  0.0000000  0.6508444  3
   3208   3206   3212   3214     1  0.0000000  0.6508444  3
   3212   6466   6457   6458     1  0.0000000  1.6038667  3
   3212   6466   6457   6459     1  0.0000000  1.6038667  3
   3213   3212   6466   6457     1  0.0000000  1.6038667  3
   3214   3212   6466   6457     1  0.0000000  1.6038667  3
   3215   6495   6486   6487     1  0.0000000  1.6038667  3
   3215   6495   6486   6488     1  0.0000000  1.6038667  3
   3216   3215   6495   6486     1  0.0000000  1.6038667  3
   3217   3215   6495   6486     1  0.0000000  1.6038667  3
   3219   3220   3232   3233     1  0.0000000  0.6508444  3
   3219   3220   3232   3234     1  0.0000000  0.6508444  3
   3219   3223   3235   3236     1  0.0000000  0.6508444  3
   3219   3223   3235   3237     1  0.0000000  0.6508444  3
   3219   3226   3229   3230     1  0.0000000  0.6508444  3
   3219   3226   3229   3231     1  0.0000000  0.6508444  3
   3220   3219   3223   3224     1  0.0000000  1.2552000  3
   3220   3219   3223   3225     1  0.0000000  1.2552000  3
   3220   3219   3226   3227     1  0.0000000  1.2552000  3
   3220   3219   3226   3228     1  0.0000000  1.2552000  3
   3220   3232   3244   3245     1  0.0000000  0.6508444  3
   3220   3232   3244   3246     1  0.0000000  0.6508444  3
   3221   3220   3219   3223     1  0.0000000  1.2552000  3
   3221   3220   3219   3226     1  0.0000000  1.2552000  3
   3221   3220   3232   3244     1  0.0000000  0.6508444  3
   3221   3220   3232   3233     1  0.0000000  0.6508444  3
   3221   3220   3232   3234     1  0.0000000  0.6508444  3
   3222   3220   3219   3223     1  0.0000000  1.2552000  3
   3222   3220   3219   3226     1  0.0000000  1.2552000  3
   3222   3220   3232   3244     1  0.0000000  0.6508444  3
   3222   3220   3232   3233     1  0.0000000  0.6508444  3
   3222   3220   3232   3234     1  0.0000000  0.6508444  3
   3223   3219   3226   3227     1  0.0000000  1.2552000  3
   3223   3219   3226   3228     1  0.0000000  1.2552000  3
   3223   3235   3241   3242     1  0.0000000  0.6508444  3
   3223   3235   3241   3243     1  0.0000000  0.6508444  3
   3224   3223   3219   3226     1  0.0000000  1.2552000  3
   3224   3223   3235   3241     1  0.0000000  0.6508444  3
   3224   3223   3235   3236     1  0.0000000  0.6508444  3
   3224   3223   3235   3237     1  0.0000000  0.6508444  3
   3225   3223   3219   3226     1  0.0000000  1.2552000  3
   3225   3223   3235   3241     1  0.0000000  0.6508444  3
   3225   3223   3235   3236     1  0.0000000  0.6508444  3
   3225   3223   3235   3237     1  0.0000000  0.6508444  3
   3226   3229   3238   3239     1  0.0000000  0.6508444  3
   3226   3229   3238   3240     1  0.0000000  0.6508444  3
   3227   3226   3229   3238     1  0.0000000  0.6508444  3
   3227   3226   3229   3230     1  0.0000000  0.6508444  3
   3227   3226   3229   3231     1  0.0000000  0.6508444  3
   3228   3226   3229   3238     1  0.0000000  0.6508444  3
   3228   3226   3229   3230     1  0.0000000  0.6508444  3
   3228   3226   3229   3231     1  0.0000000  0.6508444  3
   3230   3229   3238   3247     1  0.0000000  1.0460000  1
   3230   3229   3238   3247     1  0.0000000  0.0000000  3
   3230   3229   3238   3239     1  0.0000000  0.6508444  3
   3230   3229   3238   3240     1  0.0000000  0.6508444  3
   3231   3229   3238   3247     1  0.0000000  1.0460000  1
   3231   3229   3238   3247     1  0.0000000  0.0000000  3
   3231   3229   3238   3239     1  0.0000000  0.6508444  3
   3231   3229   3238   3240     1  0.0000000  0.6508444  3
   3233   3232   3244   6553     1  0.0000000  1.0460000  1
   3233   3232   3244   6553     1  0.0000000  0.0000000  3
   3233   3232   3244   3245     1  0.0000000  0.6508444  3
   3233   3232   3244   3246     1  0.0000000  0.6508444  3
   3234   3232   3244   6553     1  0.0000000  1.0460000  1
   3234   3232   3244   6553     1  0.0000000  0.0000000  3
   3234   3232   3244   3245     1  0.0000000  0.6508444  3
   3234   3232   3244   3246     1  0.0000000  0.6508444  3
   3236   3235   3241   6524     1  0.0000000  1.0460000  1
   3236   3235   3241   6524     1  0.0000000  0.0000000  3
   3236   3235   3241   3242     1  0.0000000  0.6508444  3
   3236   3235   3241   3243     1  0.0000000  0.6508444  3
   3237   3235   3241   6524     1  0.0000000  1.0460000  1
   3237   3235   3241   6524     1  0.0000000  0.0000000  3
   3237   3235   3241   3242     1  0.0000000  0.6508444  3
   3237   3235   3241   3243     1  0.0000000  0.6508444  3
   3241   6524   6515   6516     1  0.0000000  1.6038667  3
   3241   6524   6515   6517     1  0.0000000  1.6038667  3
   3242   3241   6524   6515     1  0.0000000  1.6038667  3
   3243   3241   6524   6515     1  0.0000000  1.6038667  3
   3244   6553   6544   6545     1  0.0000000  1.6038667  3
   3244   6553   6544   6546     1  0.0000000  1.6038667  3
   3245   3244   6553   6544     1  0.0000000  1.6038667  3
   3246   3244   6553   6544     1  0.0000000  1.6038667  3
   3248   3249   3261   3262     1  0.0000000  0.6508444  3
   3248   3249   3261   3263     1  0.0000000  0.6508444  3
   3248   3252   3264   3265     1  0.0000000  0.6508444  3
   3248   3252   3264   3266     1  0.0000000  0.6508444  3
   3248   3255   3258   3259     1  0.0000000  0.6508444  3
   3248   3255   3258   3260     1  0.0000000  0.6508444  3
   3249   3248   3252   3253     1  0.0000000  1.2552000  3
   3249   3248   3252   3254     1  0.0000000  1.2552000  3
   3249   3248   3255   3256     1  0.0000000  1.2552000  3
   3249   3248   3255   3257     1  0.0000000  1.2552000  3
   3249   3261   3273   3274     1  0.0000000  0.6508444  3
   3249   3261   3273   3275     1  0.0000000  0.6508444  3
   3250   3249   3248   3252     1  0.0000000  1.2552000  3
   3250   3249   3248   3255     1  0.0000000  1.2552000  3
   3250   3249   3261   3273     1  0.0000000  0.6508444  3
   3250   3249   3261   3262     1  0.0000000  0.6508444  3
   3250   3249   3261   3263     1  0.0000000  0.6508444  3
   3251   3249   3248   3252     1  0.0000000  1.2552000  3
   3251   3249   3248   3255     1  0.0000000  1.2552000  3
   3251   3249   3261   3273     1  0.0000000  0.6508444  3
   3251   3249   3261   3262     1  0.0000000  0.6508444  3
   3251   3249   3261   3263     1  0.0000000  0.6508444  3
   3252   3248   3255   3256     1  0.0000000  1.2552000  3
   3252   3248   3255   3257     1  0.0000000  1.2552000  3
   3252   3264   3270   3271     1  0.0000000  0.6508444  3
   3252   3264   3270   3272     1  0.0000000  0.6508444  3
   3253   3252   3248   3255     1  0.0000000  1.2552000  3
   3253   3252   3264   3270     1  0.0000000  0.6508444  3
   3253   3252   3264   3265     1  0.0000000  0.6508444  3
   3253   3252   3264   3266     1  0.0000000  0.6508444  3
   3254   3252   3248   3255     1  0.0000000  1.2552000  3
   3254   3252   3264   3270     1  0.0000000  0.6508444  3
   3254   3252   3264   3265     1  0.0000000  0.6508444  3
   3254   3252   3264   3266     1  0.0000000  0.6508444  3
   3255   3258   3267   3268     1  0.0000000  0.6508444  3
   3255   3258   3267   3269     1  0.0000000  0.6508444  3
   3256   3255   3258   3267     1  0.0000000  0.6508444  3
   3256   3255   3258   3259     1  0.0000000  0.6508444  3
   3256   3255   3258   3260     1  0.0000000  0.6508444  3
   3257   3255   3258   3267     1  0.0000000  0.6508444  3
   3257   3255   3258   3259     1  0.0000000  0.6508444  3
   3257   3255   3258   3260     1  0.0000000  0.6508444  3
   3259   3258   3267   3276     1  0.0000000  1.0460000  1
   3259   3258   3267   3276     1  0.0000000  0.0000000  3
   3259   3258   3267   3268     1  0.0000000  0.6508444  3
   3259   3258   3267   3269     1  0.0000000  0.6508444  3
   3260   3258   3267   3276     1  0.0000000  1.0460000  1
   3260   3258   3267   3276     1  0.0000000  0.0000000  3
   3260   3258   3267   3268     1  0.0000000  0.6508444  3
   3260   3258   3267   3269     1  0.0000000  0.6508444  3
   3262   3261   3273   6611     1  0.0000000  1.0460000  1
   3262   3261   3273   6611     1  0.0000000  0.0000000  3
   3262   3261   3273   3274     1  0.0000000  0.6508444  3
   3262   3261   3273   3275     1  0.0000000  0.6508444  3
   3263   3261   3273   6611     1  0.0000000  1.0460000  1
   3263   3261   3273   6611     1  0.0000000  0.0000000  3
   3263   3261   3273   3274     1  0.0000000  0.6508444  3
   3263   3261   3273   3275     1  0.0000000  0.6508444  3
   3265   3264   3270   6582     1  0.0000000  1.0460000  1
   3265   3264   3270   6582     1  0.0000000  0.0000000  3
   3265   3264   3270   3271     1  0.0000000  0.6508444  3
   3265   3264   3270   3272     1  0.0000000  0.6508444  3
   3266   3264   3270   6582     1  0.0000000  1.0460000  1
   3266   3264   3270   6582     1  0.0000000  0.0000000  3
   3266   3264   3270   3271     1  0.0000000  0.6508444  3
   3266   3264   3270   3272     1  0.0000000  0.6508444  3
   3270   6582   6573   6574     1  0.0000000  1.6038667  3
   3270   6582   6573   6575     1  0.0000000  1.6038667  3
   3271   3270   6582   6573     1  0.0000000  1.6038667  3
   3272   3270   6582   6573     1  0.0000000  1.6038667  3
   3273   6611   6602   6603     1  0.0000000  1.6038667  3
   3273   6611   6602   6604     1  0.0000000  1.6038667  3
   3274   3273   6611   6602     1  0.0000000  1.6038667  3
   3275   3273   6611   6602     1  0.0000000  1.6038667  3
   3277   3278   3290   3291     1  0.0000000  0.6508444  3
   3277   3278   3290   3292     1  0.0000000  0.6508444  3
   3277   3281   3293   3294     1  0.0000000  0.6508444  3
   3277   3281   3293   3295     1  0.0000000  0.6508444  3
   3277   3284   3287   3288     1  0.0000000  0.6508444  3
   3277   3284   3287   3289     1  0.0000000  0.6508444  3
   3278   3277   3281   3282     1  0.0000000  1.2552000  3
   3278   3277   3281   3283     1  0.0000000  1.2552000  3
   3278   3277   3284   3285     1  0.0000000  1.2552000  3
   3278   3277   3284   3286     1  0.0000000  1.2552000  3
   3278   3290   3302   3303     1  0.0000000  0.6508444  3
   3278   3290   3302   3304     1  0.0000000  0.6508444  3
   3279   3278   3277   3281     1  0.0000000  1.2552000  3
   3279   3278   3277   3284     1  0.0000000  1.2552000  3
   3279   3278   3290   3302     1  0.0000000  0.6508444  3
   3279   3278   3290   3291     1  0.0000000  0.6508444  3
   3279   3278   3290   3292     1  0.0000000  0.6508444  3
   3280   3278   3277   3281     1  0.0000000  1.2552000  3
   3280   3278   3277   3284     1  0.0000000  1.2552000  3
   3280   3278   3290   3302     1  0.0000000  0.6508444  3
   3280   3278   3290   3291     1  0.0000000  0.6508444  3
   3280   3278   3290   3292     1  0.0000000  0.6508444  3
   3281   3277   3284   3285     1  0.0000000  1.2552000  3
   3281   3277   3284   3286     1  0.0000000  1.2552000  3
   3281   3293   3299   3300     1  0.0000000  0.6508444  3
   3281   3293   3299   3301     1  0.0000000  0.6508444  3
   3282   3281   3277   3284     1  0.0000000  1.2552000  3
   3282   3281   3293   3299     1  0.0000000  0.6508444  3
   3282   3281   3293   3294     1  0.0000000  0.6508444  3
   3282   3281   3293   3295     1  0.0000000  0.6508444  3
   3283   3281   3277   3284     1  0.0000000  1.2552000  3
   3283   3281   3293   3299     1  0.0000000  0.6508444  3
   3283   3281   3293   3294     1  0.0000000  0.6508444  3
   3283   3281   3293   3295     1  0.0000000  0.6508444  3
   3284   3287   3296   3297     1  0.0000000  0.6508444  3
   3284   3287   3296   3298     1  0.0000000  0.6508444  3
   3285   3284   3287   3296     1  0.0000000  0.6508444  3
   3285   3284   3287   3288     1  0.0000000  0.6508444  3
   3285   3284   3287   3289     1  0.0000000  0.6508444  3
   3286   3284   3287   3296     1  0.0000000  0.6508444  3
   3286   3284   3287   3288     1  0.0000000  0.6508444  3
   3286   3284   3287   3289     1  0.0000000  0.6508444  3
   3288   3287   3296   3305     1  0.0000000  1.0460000  1
   3288   3287   3296   3305     1  0.0000000  0.0000000  3
   3288   3287   3296   3297     1  0.0000000  0.6508444  3
   3288   3287   3296   3298     1  0.0000000  0.6508444  3
   3289   3287   3296   3305     1  0.0000000  1.0460000  1
   3289   3287   3296   3305     1  0.0000000  0.0000000  3
   3289   3287   3296   3297     1  0.0000000  0.6508444  3
   3289   3287   3296   3298     1  0.0000000  0.6508444  3
   3291   3290   3302   6669     1  0.0000000  1.0460000  1
   3291   3290   3302   6669     1  0.0000000  0.0000000  3
   3291   3290   3302   3303     1  0.0000000  0.6508444  3
   3291   3290   3302   3304     1  0.0000000  0.6508444  3
   3292   3290   3302   6669     1  0.0000000  1.0460000  1
   3292   3290   3302   6669     1  0.0000000  0.0000000  3
   3292   3290   3302   3303     1  0.0000000  0.6508444  3
   3292   3290   3302   3304     1  0.0000000  0.6508444  3
   3294   3293   3299   6640     1  0.0000000  1.0460000  1
   3294   3293   3299   6640     1  0.0000000  0.0000000  3
   3294   3293   3299   3300     1  0.0000000  0.6508444  3
   3294   3293   3299   3301     1  0.0000000  0.6508444  3
   3295   3293   3299   6640     1  0.0000000  1.0460000  1
   3295   3293   3299   6640     1  0.0000000  0.0000000  3
   3295   3293   3299   3300     1  0.0000000  0.6508444  3
   3295   3293   3299   3301     1  0.0000000  0.6508444  3
   3299   6640   6631   6632     1  0.0000000  1.6038667  3
   3299   6640   6631   6633     1  0.0000000  1.6038667  3
   3300   3299   6640   6631     1  0.0000000  1.6038667  3
   3301   3299   6640   6631     1  0.0000000  1.6038667  3
   3302   6669   6660   6661     1  0.0000000  1.6038667  3
   3302   6669   6660   6662     1  0.0000000  1.6038667  3
   3303   3302   6669   6660     1  0.0000000  1.6038667  3
   3304   3302   6669   6660     1  0.0000000  1.6038667  3
   3306   3307   3319   3320     1  0.0000000  0.6508444  3
   3306   3307   3319   3321     1  0.0000000  0.6508444  3
   3306   3310   3322   3323     1  0.0000000  0.6508444  3
   3306   3310   3322   3324     1  0.0000000  0.6508444  3
   3306   3313   3316   3317     1  0.0000000  0.6508444  3
   3306   3313   3316   3318     1  0.0000000  0.6508444  3
   3307   3306   3310   3311     1  0.0000000  1.2552000  3
   3307   3306   3310   3312     1  0.0000000  1.2552000  3
   3307   3306   3313   3314     1  0.0000000  1.2552000  3
   3307   3306   3313   3315     1  0.0000000  1.2552000  3
   3307   3319   3331   3332     1  0.0000000  0.6508444  3
   3307   3319   3331   3333     1  0.0000000  0.6508444  3
   3308   3307   3306   3310     1  0.0000000  1.2552000  3
   3308   3307   3306   3313     1  0.0000000  1.2552000  3
   3308   3307   3319   3331     1  0.0000000  0.6508444  3
   3308   3307   3319   3320     1  0.0000000  0.6508444  3
   3308   3307   3319   3321     1  0.0000000  0.6508444  3
   3309   3307   3306   3310     1  0.0000000  1.2552000  3
   3309   3307   3306   3313     1  0.0000000  1.2552000  3
   3309   3307   3319   3331     1  0.0000000  0.6508444  3
   3309   3307   3319   3320     1  0.0000000  0.6508444  3
   3309   3307   3319   3321     1  0.0000000  0.6508444  3
   3310   3306   3313   3314     1  0.0000000  1.2552000  3
   3310   3306   3313   3315     1  0.0000000  1.2552000  3
   3310   3322   3328   3329     1  0.0000000  0.6508444  3
   3310   3322   3328   3330     1  0.0000000  0.6508444  3
   3311   3310   3306   3313     1  0.0000000  1.2552000  3
   3311   3310   3322   3328     1  0.0000000  0.6508444  3
   3311   3310   3322   3323     1  0.0000000  0.6508444  3
   3311   3310   3322   3324     1  0.0000000  0.6508444  3
   3312   3310   3306   3313     1  0.0000000  1.2552000  3
   3312   3310   3322   3328     1  0.0000000  0.6508444  3
   3312   3310   3322   3323     1  0.0000000  0.6508444  3
   3312   3310   3322   3324     1  0.0000000  0.6508444  3
   3313   3316   3325   3326     1  0.0000000  0.6508444  3
   3313   3316   3325   3327     1  0.0000000  0.6508444  3
   3314   3313   3316   3325     1  0.0000000  0.6508444  3
   3314   3313   3316   3317     1  0.0000000  0.6508444  3
   3314   3313   3316   3318     1  0.0000000  0.6508444  3
   3315   3313   3316   3325     1  0.0000000  0.6508444  3
   3315   3313   3316   3317     1  0.0000000  0.6508444  3
   3315   3313   3316   3318     1  0.0000000  0.6508444  3
   3317   3316   3325   3334     1  0.0000000  1.0460000  1
   3317   3316   3325   3334     1  0.0000000  0.0000000  3
   3317   3316   3325   3326     1  0.0000000  0.6508444  3
   3317   3316   3325   3327     1  0.0000000  0.6508444  3
   3318   3316   3325   3334     1  0.0000000  1.0460000  1
   3318   3316   3325   3334     1  0.0000000  0.0000000  3
   3318   3316   3325   3326     1  0.0000000  0.6508444  3
   3318   3316   3325   3327     1  0.0000000  0.6508444  3
   3320   3319   3331   6727     1  0.0000000  1.0460000  1
   3320   3319   3331   6727     1  0.0000000  0.0000000  3
   3320   3319   3331   3332     1  0.0000000  0.6508444  3
   3320   3319   3331   3333     1  0.0000000  0.6508444  3
   3321   3319   3331   6727     1  0.0000000  1.0460000  1
   3321   3319   3331   6727     1  0.0000000  0.0000000  3
   3321   3319   3331   3332     1  0.0000000  0.6508444  3
   3321   3319   3331   3333     1  0.0000000  0.6508444  3
   3323   3322   3328   6698     1  0.0000000  1.0460000  1
   3323   3322   3328   6698     1  0.0000000  0.0000000  3
   3323   3322   3328   3329     1  0.0000000  0.6508444  3
   3323   3322   3328   3330     1  0.0000000  0.6508444  3
   3324   3322   3328   6698     1  0.0000000  1.0460000  1
   3324   3322   3328   6698     1  0.0000000  0.0000000  3
   3324   3322   3328   3329     1  0.0000000  0.6508444  3
   3324   3322   3328   3330     1  0.0000000  0.6508444  3
   3328   6698   6689   6690     1  0.0000000  1.6038667  3
   3328   6698   6689   6691     1  0.0000000  1.6038667  3
   3329   3328   6698   6689     1  0.0000000  1.6038667  3
   3330   3328   6698   6689     1  0.0000000  1.6038667  3
   3331   6727   6718   6719     1  0.0000000  1.6038667  3
   3331   6727   6718   6720     1  0.0000000  1.6038667  3
   3332   3331   6727   6718     1  0.0000000  1.6038667  3
   3333   3331   6727   6718     1  0.0000000  1.6038667  3
   3335   3336   3348   3349     1  0.0000000  0.6508444  3
   3335   3336   3348   3350     1  0.0000000  0.6508444  3
   3335   3339   3351   3352     1  0.0000000  0.6508444  3
   3335   3339   3351   3353     1  0.0000000  0.6508444  3
   3335   3342   3345   3346     1  0.0000000  0.6508444  3
   3335   3342   3345   3347     1  0.0000000  0.6508444  3
   3336   3335   3339   3340     1  0.0000000  1.2552000  3
   3336   3335   3339   3341     1  0.0000000  1.2552000  3
   3336   3335   3342   3343     1  0.0000000  1.2552000  3
   3336   3335   3342   3344     1  0.0000000  1.2552000  3
   3336   3348   3360   3361     1  0.0000000  0.6508444  3
   3336   3348   3360   3362     1  0.0000000  0.6508444  3
   3337   3336   3335   3339     1  0.0000000  1.2552000  3
   3337   3336   3335   3342     1  0.0000000  1.2552000  3
   3337   3336   3348   3360     1  0.0000000  0.6508444  3
   3337   3336   3348   3349     1  0.0000000  0.6508444  3
   3337   3336   3348   3350     1  0.0000000  0.6508444  3
   3338   3336   3335   3339     1  0.0000000  1.2552000  3
   3338   3336   3335   3342     1  0.0000000  1.2552000  3
   3338   3336   3348   3360     1  0.0000000  0.6508444  3
   3338   3336   3348   3349     1  0.0000000  0.6508444  3
   3338   3336   3348   3350     1  0.0000000  0.6508444  3
   3339   3335   3342   3343     1  0.0000000  1.2552000  3
   3339   3335   3342   3344     1  0.0000000  1.2552000  3
   3339   3351   3357   3358     1  0.0000000  0.6508444  3
   3339   3351   3357   3359     1  0.0000000  0.6508444  3
   3340   3339   3335   3342     1  0.0000000  1.2552000  3
   3340   3339   3351   3357     1  0.0000000  0.6508444  3
   3340   3339   3351   3352     1  0.0000000  0.6508444  3
   3340   3339   3351   3353     1  0.0000000  0.6508444  3
   3341   3339   3335   3342     1  0.0000000  1.2552000  3
   3341   3339   3351   3357     1  0.0000000  0.6508444  3
   3341   3339   3351   3352     1  0.0000000  0.6508444  3
   3341   3339   3351   3353     1  0.0000000  0.6508444  3
   3342   3345   3354   3355     1  0.0000000  0.6508444  3
   3342   3345   3354   3356     1  0.0000000  0.6508444  3
   3343   3342   3345   3354     1  0.0000000  0.6508444  3
   3343   3342   3345   3346     1  0.0000000  0.6508444  3
   3343   3342   3345   3347     1  0.0000000  0.6508444  3
   3344   3342   3345   3354     1  0.0000000  0.6508444  3
   3344   3342   3345   3346     1  0.0000000  0.6508444  3
   3344   3342   3345   3347     1  0.0000000  0.6508444  3
   3346   3345   3354   3363     1  0.0000000  1.0460000  1
   3346   3345   3354   3363     1  0.0000000  0.0000000  3
   3346   3345   3354   3355     1  0.0000000  0.6508444  3
   3346   3345   3354   3356     1  0.0000000  0.6508444  3
   3347   3345   3354   3363     1  0.0000000  1.0460000  1
   3347   3345   3354   3363     1  0.0000000  0.0000000  3
   3347   3345   3354   3355     1  0.0000000  0.6508444  3
   3347   3345   3354   3356     1  0.0000000  0.6508444  3
   3349   3348   3360   6785     1  0.0000000  1.0460000  1
   3349   3348   3360   6785     1  0.0000000  0.0000000  3
   3349   3348   3360   3361     1  0.0000000  0.6508444  3
   3349   3348   3360   3362     1  0.0000000  0.6508444  3
   3350   3348   3360   6785     1  0.0000000  1.0460000  1
   3350   3348   3360   6785     1  0.0000000  0.0000000  3
   3350   3348   3360   3361     1  0.0000000  0.6508444  3
   3350   3348   3360   3362     1  0.0000000  0.6508444  3
   3352   3351   3357   6756     1  0.0000000  1.0460000  1
   3352   3351   3357   6756     1  0.0000000  0.0000000  3
   3352   3351   3357   3358     1  0.0000000  0.6508444  3
   3352   3351   3357   3359     1  0.0000000  0.6508444  3
   3353   3351   3357   6756     1  0.0000000  1.0460000  1
   3353   3351   3357   6756     1  0.0000000  0.0000000  3
   3353   3351   3357   3358     1  0.0000000  0.6508444  3
   3353   3351   3357   3359     1  0.0000000  0.6508444  3
   3357   6756   6747   6748     1  0.0000000  1.6038667  3
   3357   6756   6747   6749     1  0.0000000  1.6038667  3
   3358   3357   6756   6747     1  0.0000000  1.6038667  3
   3359   3357   6756   6747     1  0.0000000  1.6038667  3
   3360   6785   6776   6777     1  0.0000000  1.6038667  3
   3360   6785   6776   6778     1  0.0000000  1.6038667  3
   3361   3360   6785   6776     1  0.0000000  1.6038667  3
   3362   3360   6785   6776     1  0.0000000  1.6038667  3
   3364   3365   3377   3378     1  0.0000000  0.6508444  3
   3364   3365   3377   3379     1  0.0000000  0.6508444  3
   3364   3368   3380   3381     1  0.0000000  0.6508444  3
   3364   3368   3380   3382     1  0.0000000  0.6508444  3
   3364   3371   3374   3375     1  0.0000000  0.6508444  3
   3364   3371   3374   3376     1  0.0000000  0.6508444  3
   3365   3364   3368   3369     1  0.0000000  1.2552000  3
   3365   3364   3368   3370     1  0.0000000  1.2552000  3
   3365   3364   3371   3372     1  0.0000000  1.2552000  3
   3365   3364   3371   3373     1  0.0000000  1.2552000  3
   3365   3377   3389   3390     1  0.0000000  0.6508444  3
   3365   3377   3389   3391     1  0.0000000  0.6508444  3
   3366   3365   3364   3368     1  0.0000000  1.2552000  3
   3366   3365   3364   3371     1  0.0000000  1.2552000  3
   3366   3365   3377   3389     1  0.0000000  0.6508444  3
   3366   3365   3377   3378     1  0.0000000  0.6508444  3
   3366   3365   3377   3379     1  0.0000000  0.6508444  3
   3367   3365   3364   3368     1  0.0000000  1.2552000  3
   3367   3365   3364   3371     1  0.0000000  1.2552000  3
   3367   3365   3377   3389     1  0.0000000  0.6508444  3
   3367   3365   3377   3378     1  0.0000000  0.6508444  3
   3367   3365   3377   3379     1  0.0000000  0.6508444  3
   3368   3364   3371   3372     1  0.0000000  1.2552000  3
   3368   3364   3371   3373     1  0.0000000  1.2552000  3
   3368   3380   3386   3387     1  0.0000000  0.6508444  3
   3368   3380   3386   3388     1  0.0000000  0.6508444  3
   3369   3368   3364   3371     1  0.0000000  1.2552000  3
   3369   3368   3380   3386     1  0.0000000  0.6508444  3
   3369   3368   3380   3381     1  0.0000000  0.6508444  3
   3369   3368   3380   3382     1  0.0000000  0.6508444  3
   3370   3368   3364   3371     1  0.0000000  1.2552000  3
   3370   3368   3380   3386     1  0.0000000  0.6508444  3
   3370   3368   3380   3381     1  0.0000000  0.6508444  3
   3370   3368   3380   3382     1  0.0000000  0.6508444  3
   3371   3374   3383   3384     1  0.0000000  0.6508444  3
   3371   3374   3383   3385     1  0.0000000  0.6508444  3
   3372   3371   3374   3383     1  0.0000000  0.6508444  3
   3372   3371   3374   3375     1  0.0000000  0.6508444  3
   3372   3371   3374   3376     1  0.0000000  0.6508444  3
   3373   3371   3374   3383     1  0.0000000  0.6508444  3
   3373   3371   3374   3375     1  0.0000000  0.6508444  3
   3373   3371   3374   3376     1  0.0000000  0.6508444  3
   3375   3374   3383   3392     1  0.0000000  1.0460000  1
   3375   3374   3383   3392     1  0.0000000  0.0000000  3
   3375   3374   3383   3384     1  0.0000000  0.6508444  3
   3375   3374   3383   3385     1  0.0000000  0.6508444  3
   3376   3374   3383   3392     1  0.0000000  1.0460000  1
   3376   3374   3383   3392     1  0.0000000  0.0000000  3
   3376   3374   3383   3384     1  0.0000000  0.6508444  3
   3376   3374   3383   3385     1  0.0000000  0.6508444  3
   3378   3377   3389   6843     1  0.0000000  1.0460000  1
   3378   3377   3389   6843     1  0.0000000  0.0000000  3
   3378   3377   3389   3390     1  0.0000000  0.6508444  3
   3378   3377   3389   3391     1  0.0000000  0.6508444  3
   3379   3377   3389   6843     1  0.0000000  1.0460000  1
   3379   3377   3389   6843     1  0.0000000  0.0000000  3
   3379   3377   3389   3390     1  0.0000000  0.6508444  3
   3379   3377   3389   3391     1  0.0000000  0.6508444  3
   3381   3380   3386   6814     1  0.0000000  1.0460000  1
   3381   3380   3386   6814     1  0.0000000  0.0000000  3
   3381   3380   3386   3387     1  0.0000000  0.6508444  3
   3381   3380   3386   3388     1  0.0000000  0.6508444  3
   3382   3380   3386   6814     1  0.0000000  1.0460000  1
   3382   3380   3386   6814     1  0.0000000  0.0000000  3
   3382   3380   3386   3387     1  0.0000000  0.6508444  3
   3382   3380   3386   3388     1  0.0000000  0.6508444  3
   3386   6814   6805   6806     1  0.0000000  1.6038667  3
   3386   6814   6805   6807     1  0.0000000  1.6038667  3
   3387   3386   6814   6805     1  0.0000000  1.6038667  3
   3388   3386   6814   6805     1  0.0000000  1.6038667  3
   3389   6843   6834   6835     1  0.0000000  1.6038667  3
   3389   6843   6834   6836     1  0.0000000  1.6038667  3
   3390   3389   6843   6834     1  0.0000000  1.6038667  3
   3391   3389   6843   6834     1  0.0000000  1.6038667  3
   3393   3394   3406   3407     1  0.0000000  0.6508444  3
   3393   3394   3406   3408     1  0.0000000  0.6508444  3
   3393   3397   3409   3410     1  0.0000000  0.6508444  3
   3393   3397   3409   3411     1  0.0000000  0.6508444  3
   3393   3400   3403   3404     1  0.0000000  0.6508444  3
   3393   3400   3403   3405     1  0.0000000  0.6508444  3
   3394   3393   3397   3398     1  0.0000000  1.2552000  3
   3394   3393   3397   3399     1  0.0000000  1.2552000  3
   3394   3393   3400   3401     1  0.0000000  1.2552000  3
   3394   3393   3400   3402     1  0.0000000  1.2552000  3
   3394   3406   3418   3419     1  0.0000000  0.6508444  3
   3394   3406   3418   3420     1  0.0000000  0.6508444  3
   3395   3394   3393   3397     1  0.0000000  1.2552000  3
   3395   3394   3393   3400     1  0.0000000  1.2552000  3
   3395   3394   3406   3418     1  0.0000000  0.6508444  3
   3395   3394   3406   3407     1  0.0000000  0.6508444  3
   3395   3394   3406   3408     1  0.0000000  0.6508444  3
   3396   3394   3393   3397     1  0.0000000  1.2552000  3
   3396   3394   3393   3400     1  0.0000000  1.2552000  3
   3396   3394   3406   3418     1  0.0000000  0.6508444  3
   3396   3394   3406   3407     1  0.0000000  0.6508444  3
   3396   3394   3406   3408     1  0.0000000  0.6508444  3
   3397   3393   3400   3401     1  0.0000000  1.2552000  3
   3397   3393   3400   3402     1  0.0000000  1.2552000  3
   3397   3409   3415   3416     1  0.0000000  0.6508444  3
   3397   3409   3415   3417     1  0.0000000  0.6508444  3
   3398   3397   3393   3400     1  0.0000000  1.2552000  3
   3398   3397   3409   3415     1  0.0000000  0.6508444  3
   3398   3397   3409   3410     1  0.0000000  0.6508444  3
   3398   3397   3409   3411     1  0.0000000  0.6508444  3
   3399   3397   3393   3400     1  0.0000000  1.2552000  3
   3399   3397   3409   3415     1  0.0000000  0.6508444  3
   3399   3397   3409   3410     1  0.0000000  0.6508444  3
   3399   3397   3409   3411     1  0.0000000  0.6508444  3
   3400   3403   3412   3413     1  0.0000000  0.6508444  3
   3400   3403   3412   3414     1  0.0000000  0.6508444  3
   3401   3400   3403   3412     1  0.0000000  0.6508444  3
   3401   3400   3403   3404     1  0.0000000  0.6508444  3
   3401   3400   3403   3405     1  0.0000000  0.6508444  3
   3402   3400   3403   3412     1  0.0000000  0.6508444  3
   3402   3400   3403   3404     1  0.0000000  0.6508444  3
   3402   3400   3403   3405     1  0.0000000  0.6508444  3
   3404   3403   3412   3421     1  0.0000000  1.0460000  1
   3404   3403   3412   3421     1  0.0000000  0.0000000  3
   3404   3403   3412   3413     1  0.0000000  0.6508444  3
   3404   3403   3412   3414     1  0.0000000  0.6508444  3
   3405   3403   3412   3421     1  0.0000000  1.0460000  1
   3405   3403   3412   3421     1  0.0000000  0.0000000  3
   3405   3403   3412   3413     1  0.0000000  0.6508444  3
   3405   3403   3412   3414     1  0.0000000  0.6508444  3
   3407   3406   3418   6901     1  0.0000000  1.0460000  1
   3407   3406   3418   6901     1  0.0000000  0.0000000  3
   3407   3406   3418   3419     1  0.0000000  0.6508444  3
   3407   3406   3418   3420     1  0.0000000  0.6508444  3
   3408   3406   3418   6901     1  0.0000000  1.0460000  1
   3408   3406   3418   6901     1  0.0000000  0.0000000  3
   3408   3406   3418   3419     1  0.0000000  0.6508444  3
   3408   3406   3418   3420     1  0.0000000  0.6508444  3
   3410   3409   3415   6872     1  0.0000000  1.0460000  1
   3410   3409   3415   6872     1  0.0000000  0.0000000  3
   3410   3409   3415   3416     1  0.0000000  0.6508444  3
   3410   3409   3415   3417     1  0.0000000  0.6508444  3
   3411   3409   3415   6872     1  0.0000000  1.0460000  1
   3411   3409   3415   6872     1  0.0000000  0.0000000  3
   3411   3409   3415   3416     1  0.0000000  0.6508444  3
   3411   3409   3415   3417     1  0.0000000  0.6508444  3
   3415   6872   6863   6864     1  0.0000000  1.6038667  3
   3415   6872   6863   6865     1  0.0000000  1.6038667  3
   3416   3415   6872   6863     1  0.0000000  1.6038667  3
   3417   3415   6872   6863     1  0.0000000  1.6038667  3
   3418   6901   6892   6893     1  0.0000000  1.6038667  3
   3418   6901   6892   6894     1  0.0000000  1.6038667  3
   3419   3418   6901   6892     1  0.0000000  1.6038667  3
   3420   3418   6901   6892     1  0.0000000  1.6038667  3
   3422   3423   3435   3436     1  0.0000000  0.6508444  3
   3422   3423   3435   3437     1  0.0000000  0.6508444  3
   3422   3426   3438   3439     1  0.0000000  0.6508444  3
   3422   3426   3438   3440     1  0.0000000  0.6508444  3
   3422   3429   3432   3433     1  0.0000000  0.6508444  3
   3422   3429   3432   3434     1  0.0000000  0.6508444  3
   3423   3422   3426   3427     1  0.0000000  1.2552000  3
   3423   3422   3426   3428     1  0.0000000  1.2552000  3
   3423   3422   3429   3430     1  0.0000000  1.2552000  3
   3423   3422   3429   3431     1  0.0000000  1.2552000  3
   3423   3435   3447   3448     1  0.0000000  0.6508444  3
   3423   3435   3447   3449     1  0.0000000  0.6508444  3
   3424   3423   3422   3426     1  0.0000000  1.2552000  3
   3424   3423   3422   3429     1  0.0000000  1.2552000  3
   3424   3423   3435   3447     1  0.0000000  0.6508444  3
   3424   3423   3435   3436     1  0.0000000  0.6508444  3
   3424   3423   3435   3437     1  0.0000000  0.6508444  3
   3425   3423   3422   3426     1  0.0000000  1.2552000  3
   3425   3423   3422   3429     1  0.0000000  1.2552000  3
   3425   3423   3435   3447     1  0.0000000  0.6508444  3
   3425   3423   3435   3436     1  0.0000000  0.6508444  3
   3425   3423   3435   3437     1  0.0000000  0.6508444  3
   3426   3422   3429   3430     1  0.0000000  1.2552000  3
   3426   3422   3429   3431     1  0.0000000  1.2552000  3
   3426   3438   3444   3445     1  0.0000000  0.6508444  3
   3426   3438   3444   3446     1  0.0000000  0.6508444  3
   3427   3426   3422   3429     1  0.0000000  1.2552000  3
   3427   3426   3438   3444     1  0.0000000  0.6508444  3
   3427   3426   3438   3439     1  0.0000000  0.6508444  3
   3427   3426   3438   3440     1  0.0000000  0.6508444  3
   3428   3426   3422   3429     1  0.0000000  1.2552000  3
   3428   3426   3438   3444     1  0.0000000  0.6508444  3
   3428   3426   3438   3439     1  0.0000000  0.6508444  3
   3428   3426   3438   3440     1  0.0000000  0.6508444  3
   3429   3432   3441   3442     1  0.0000000  0.6508444  3
   3429   3432   3441   3443     1  0.0000000  0.6508444  3
   3430   3429   3432   3441     1  0.0000000  0.6508444  3
   3430   3429   3432   3433     1  0.0000000  0.6508444  3
   3430   3429   3432   3434     1  0.0000000  0.6508444  3
   3431   3429   3432   3441     1  0.0000000  0.6508444  3
   3431   3429   3432   3433     1  0.0000000  0.6508444  3
   3431   3429   3432   3434     1  0.0000000  0.6508444  3
   3433   3432   3441   3450     1  0.0000000  1.0460000  1
   3433   3432   3441   3450     1  0.0000000  0.0000000  3
   3433   3432   3441   3442     1  0.0000000  0.6508444  3
   3433   3432   3441   3443     1  0.0000000  0.6508444  3
   3434   3432   3441   3450     1  0.0000000  1.0460000  1
   3434   3432   3441   3450     1  0.0000000  0.0000000  3
   3434   3432   3441   3442     1  0.0000000  0.6508444  3
   3434   3432   3441   3443     1  0.0000000  0.6508444  3
   3436   3435   3447   6959     1  0.0000000  1.0460000  1
   3436   3435   3447   6959     1  0.0000000  0.0000000  3
   3436   3435   3447   3448     1  0.0000000  0.6508444  3
   3436   3435   3447   3449     1  0.0000000  0.6508444  3
   3437   3435   3447   6959     1  0.0000000  1.0460000  1
   3437   3435   3447   6959     1  0.0000000  0.0000000  3
   3437   3435   3447   3448     1  0.0000000  0.6508444  3
   3437   3435   3447   3449     1  0.0000000  0.6508444  3
   3439   3438   3444   6930     1  0.0000000  1.0460000  1
   3439   3438   3444   6930     1  0.0000000  0.0000000  3
   3439   3438   3444   3445     1  0.0000000  0.6508444  3
   3439   3438   3444   3446     1  0.0000000  0.6508444  3
   3440   3438   3444   6930     1  0.0000000  1.0460000  1
   3440   3438   3444   6930     1  0.0000000  0.0000000  3
   3440   3438   3444   3445     1  0.0000000  0.6508444  3
   3440   3438   3444   3446     1  0.0000000  0.6508444  3
   3444   6930   6921   6922     1  0.0000000  1.6038667  3
   3444   6930   6921   6923     1  0.0000000  1.6038667  3
   3445   3444   6930   6921     1  0.0000000  1.6038667  3
   3446   3444   6930   6921     1  0.0000000  1.6038667  3
   3447   6959   6950   6951     1  0.0000000  1.6038667  3
   3447   6959   6950   6952     1  0.0000000  1.6038667  3
   3448   3447   6959   6950     1  0.0000000  1.6038667  3
   3449   3447   6959   6950     1  0.0000000  1.6038667  3
   3451   3452   3464   3465     1  0.0000000  0.6508444  3
   3451   3452   3464   3466     1  0.0000000  0.6508444  3
   3451   3455   3467   3468     1  0.0000000  0.6508444  3
   3451   3455   3467   3469     1  0.0000000  0.6508444  3
   3451   3458   3461   3462     1  0.0000000  0.6508444  3
   3451   3458   3461   3463     1  0.0000000  0.6508444  3
   3452   3451   3455   3456     1  0.0000000  1.2552000  3
   3452   3451   3455   3457     1  0.0000000  1.2552000  3
   3452   3451   3458   3459     1  0.0000000  1.2552000  3
   3452   3451   3458   3460     1  0.0000000  1.2552000  3
   3452   3464   3476   3477     1  0.0000000  0.6508444  3
   3452   3464   3476   3478     1  0.0000000  0.6508444  3
   3453   3452   3451   3455     1  0.0000000  1.2552000  3
   3453   3452   3451   3458     1  0.0000000  1.2552000  3
   3453   3452   3464   3476     1  0.0000000  0.6508444  3
   3453   3452   3464   3465     1  0.0000000  0.6508444  3
   3453   3452   3464   3466     1  0.0000000  0.6508444  3
   3454   3452   3451   3455     1  0.0000000  1.2552000  3
   3454   3452   3451   3458     1  0.0000000  1.2552000  3
   3454   3452   3464   3476     1  0.0000000  0.6508444  3
   3454   3452   3464   3465     1  0.0000000  0.6508444  3
   3454   3452   3464   3466     1  0.0000000  0.6508444  3
   3455   3451   3458   3459     1  0.0000000  1.2552000  3
   3455   3451   3458   3460     1  0.0000000  1.2552000  3
   3455   3467   3473   3474     1  0.0000000  0.6508444  3
   3455   3467   3473   3475     1  0.0000000  0.6508444  3
   3456   3455   3451   3458     1  0.0000000  1.2552000  3
   3456   3455   3467   3473     1  0.0000000  0.6508444  3
   3456   3455   3467   3468     1  0.0000000  0.6508444  3
   3456   3455   3467   3469     1  0.0000000  0.6508444  3
   3457   3455   3451   3458     1  0.0000000  1.2552000  3
   3457   3455   3467   3473     1  0.0000000  0.6508444  3
   3457   3455   3467   3468     1  0.0000000  0.6508444  3
   3457   3455   3467   3469     1  0.0000000  0.6508444  3
   3458   3461   3470   3471     1  0.0000000  0.6508444  3
   3458   3461   3470   3472     1  0.0000000  0.6508444  3
   3459   3458   3461   3470     1  0.0000000  0.6508444  3
   3459   3458   3461   3462     1  0.0000000  0.6508444  3
   3459   3458   3461   3463     1  0.0000000  0.6508444  3
   3460   3458   3461   3470     1  0.0000000  0.6508444  3
   3460   3458   3461   3462     1  0.0000000  0.6508444  3
   3460   3458   3461   3463     1  0.0000000  0.6508444  3
   3462   3461   3470   3479     1  0.0000000  1.0460000  1
   3462   3461   3470   3479     1  0.0000000  0.0000000  3
   3462   3461   3470   3471     1  0.0000000  0.6508444  3
   3462   3461   3470   3472     1  0.0000000  0.6508444  3
   3463   3461   3470   3479     1  0.0000000  1.0460000  1
   3463   3461   3470   3479     1  0.0000000  0.0000000  3
   3463   3461   3470   3471     1  0.0000000  0.6508444  3
   3463   3461   3470   3472     1  0.0000000  0.6508444  3
   3465   3464   3476   7017     1  0.0000000  1.0460000  1
   3465   3464   3476   7017     1  0.0000000  0.0000000  3
   3465   3464   3476   3477     1  0.0000000  0.6508444  3
   3465   3464   3476   3478     1  0.0000000  0.6508444  3
   3466   3464   3476   7017     1  0.0000000  1.0460000  1
   3466   3464   3476   7017     1  0.0000000  0.0000000  3
   3466   3464   3476   3477     1  0.0000000  0.6508444  3
   3466   3464   3476   3478     1  0.0000000  0.6508444  3
   3468   3467   3473   6988     1  0.0000000  1.0460000  1
   3468   3467   3473   6988     1  0.0000000  0.0000000  3
   3468   3467   3473   3474     1  0.0000000  0.6508444  3
   3468   3467   3473   3475     1  0.0000000  0.6508444  3
   3469   3467   3473   6988     1  0.0000000  1.0460000  1
   3469   3467   3473   6988     1  0.0000000  0.0000000  3
   3469   3467   3473   3474     1  0.0000000  0.6508444  3
   3469   3467   3473   3475     1  0.0000000  0.6508444  3
   3473   6988   6979   6980     1  0.0000000  1.6038667  3
   3473   6988   6979   6981     1  0.0000000  1.6038667  3
   3474   3473   6988   6979     1  0.0000000  1.6038667  3
   3475   3473   6988   6979     1  0.0000000  1.6038667  3
   3476   7017   7008   7009     1  0.0000000  1.6038667  3
   3476   7017   7008   7010     1  0.0000000  1.6038667  3
   3477   3476   7017   7008     1  0.0000000  1.6038667  3
   3478   3476   7017   7008     1  0.0000000  1.6038667  3
   3480   3481   3493   3494     1  0.0000000  0.6508444  3
   3480   3481   3493   3495     1  0.0000000  0.6508444  3
   3480   3484   3496   3497     1  0.0000000  0.6508444  3
   3480   3484   3496   3498     1  0.0000000  0.6508444  3
   3480   3487   3490   3491     1  0.0000000  0.6508444  3
   3480   3487   3490   3492     1  0.0000000  0.6508444  3
   3481   3480   3484   3485     1  0.0000000  1.2552000  3
   3481   3480   3484   3486     1  0.0000000  1.2552000  3
   3481   3480   3487   3488     1  0.0000000  1.2552000  3
   3481   3480   3487   3489     1  0.0000000  1.2552000  3
   3481   3493   3505   3506     1  0.0000000  0.6508444  3
   3481   3493   3505   3507     1  0.0000000  0.6508444  3
   3482   3481   3480   3484     1  0.0000000  1.2552000  3
   3482   3481   3480   3487     1  0.0000000  1.2552000  3
   3482   3481   3493   3505     1  0.0000000  0.6508444  3
   3482   3481   3493   3494     1  0.0000000  0.6508444  3
   3482   3481   3493   3495     1  0.0000000  0.6508444  3
   3483   3481   3480   3484     1  0.0000000  1.2552000  3
   3483   3481   3480   3487     1  0.0000000  1.2552000  3
   3483   3481   3493   3505     1  0.0000000  0.6508444  3
   3483   3481   3493   3494     1  0.0000000  0.6508444  3
   3483   3481   3493   3495     1  0.0000000  0.6508444  3
   3484   3480   3487   3488     1  0.0000000  1.2552000  3
   3484   3480   3487   3489     1  0.0000000  1.2552000  3
   3484   3496   3502   3503     1  0.0000000  0.6508444  3
   3484   3496   3502   3504     1  0.0000000  0.6508444  3
   3485   3484   3480   3487     1  0.0000000  1.2552000  3
   3485   3484   3496   3502     1  0.0000000  0.6508444  3
   3485   3484   3496   3497     1  0.0000000  0.6508444  3
   3485   3484   3496   3498     1  0.0000000  0.6508444  3
   3486   3484   3480   3487     1  0.0000000  1.2552000  3
   3486   3484   3496   3502     1  0.0000000  0.6508444  3
   3486   3484   3496   3497     1  0.0000000  0.6508444  3
   3486   3484   3496   3498     1  0.0000000  0.6508444  3
   3487   3490   3499   3500     1  0.0000000  0.6508444  3
   3487   3490   3499   3501     1  0.0000000  0.6508444  3
   3488   3487   3490   3499     1  0.0000000  0.6508444  3
   3488   3487   3490   3491     1  0.0000000  0.6508444  3
   3488   3487   3490   3492     1  0.0000000  0.6508444  3
   3489   3487   3490   3499     1  0.0000000  0.6508444  3
   3489   3487   3490   3491     1  0.0000000  0.6508444  3
   3489   3487   3490   3492     1  0.0000000  0.6508444  3
   3491   3490   3499   3508     1  0.0000000  1.0460000  1
   3491   3490   3499   3508     1  0.0000000  0.0000000  3
   3491   3490   3499   3500     1  0.0000000  0.6508444  3
   3491   3490   3499   3501     1  0.0000000  0.6508444  3
   3492   3490   3499   3508     1  0.0000000  1.0460000  1
   3492   3490   3499   3508     1  0.0000000  0.0000000  3
   3492   3490   3499   3500     1  0.0000000  0.6508444  3
   3492   3490   3499   3501     1  0.0000000  0.6508444  3
   3494   3493   3505   7075     1  0.0000000  1.0460000  1
   3494   3493   3505   7075     1  0.0000000  0.0000000  3
   3494   3493   3505   3506     1  0.0000000  0.6508444  3
   3494   3493   3505   3507     1  0.0000000  0.6508444  3
   3495   3493   3505   7075     1  0.0000000  1.0460000  1
   3495   3493   3505   7075     1  0.0000000  0.0000000  3
   3495   3493   3505   3506     1  0.0000000  0.6508444  3
   3495   3493   3505   3507     1  0.0000000  0.6508444  3
   3497   3496   3502   7046     1  0.0000000  1.0460000  1
   3497   3496   3502   7046     1  0.0000000  0.0000000  3
   3497   3496   3502   3503     1  0.0000000  0.6508444  3
   3497   3496   3502   3504     1  0.0000000  0.6508444  3
   3498   3496   3502   7046     1  0.0000000  1.0460000  1
   3498   3496   3502   7046     1  0.0000000  0.0000000  3
   3498   3496   3502   3503     1  0.0000000  0.6508444  3
   3498   3496   3502   3504     1  0.0000000  0.6508444  3
   3502   7046   7037   7038     1  0.0000000  1.6038667  3
   3502   7046   7037   7039     1  0.0000000  1.6038667  3
   3503   3502   7046   7037     1  0.0000000  1.6038667  3
   3504   3502   7046   7037     1  0.0000000  1.6038667  3
   3505   7075   7066   7067     1  0.0000000  1.6038667  3
   3505   7075   7066   7068     1  0.0000000  1.6038667  3
   3506   3505   7075   7066     1  0.0000000  1.6038667  3
   3507   3505   7075   7066     1  0.0000000  1.6038667  3
   3509   3510   3522   3523     1  0.0000000  0.6508444  3
   3509   3510   3522   3524     1  0.0000000  0.6508444  3
   3509   3513   3525   3526     1  0.0000000  0.6508444  3
   3509   3513   3525   3527     1  0.0000000  0.6508444  3
   3509   3516   3519   3520     1  0.0000000  0.6508444  3
   3509   3516   3519   3521     1  0.0000000  0.6508444  3
   3510   3509   3513   3514     1  0.0000000  1.2552000  3
   3510   3509   3513   3515     1  0.0000000  1.2552000  3
   3510   3509   3516   3517     1  0.0000000  1.2552000  3
   3510   3509   3516   3518     1  0.0000000  1.2552000  3
   3510   3522   3534   3535     1  0.0000000  0.6508444  3
   3510   3522   3534   3536     1  0.0000000  0.6508444  3
   3511   3510   3509   3513     1  0.0000000  1.2552000  3
   3511   3510   3509   3516     1  0.0000000  1.2552000  3
   3511   3510   3522   3534     1  0.0000000  0.6508444  3
   3511   3510   3522   3523     1  0.0000000  0.6508444  3
   3511   3510   3522   3524     1  0.0000000  0.6508444  3
   3512   3510   3509   3513     1  0.0000000  1.2552000  3
   3512   3510   3509   3516     1  0.0000000  1.2552000  3
   3512   3510   3522   3534     1  0.0000000  0.6508444  3
   3512   3510   3522   3523     1  0.0000000  0.6508444  3
   3512   3510   3522   3524     1  0.0000000  0.6508444  3
   3513   3509   3516   3517     1  0.0000000  1.2552000  3
   3513   3509   3516   3518     1  0.0000000  1.2552000  3
   3513   3525   3531   3532     1  0.0000000  0.6508444  3
   3513   3525   3531   3533     1  0.0000000  0.6508444  3
   3514   3513   3509   3516     1  0.0000000  1.2552000  3
   3514   3513   3525   3531     1  0.0000000  0.6508444  3
   3514   3513   3525   3526     1  0.0000000  0.6508444  3
   3514   3513   3525   3527     1  0.0000000  0.6508444  3
   3515   3513   3509   3516     1  0.0000000  1.2552000  3
   3515   3513   3525   3531     1  0.0000000  0.6508444  3
   3515   3513   3525   3526     1  0.0000000  0.6508444  3
   3515   3513   3525   3527     1  0.0000000  0.6508444  3
   3516   3519   3528   3529     1  0.0000000  0.6508444  3
   3516   3519   3528   3530     1  0.0000000  0.6508444  3
   3517   3516   3519   3528     1  0.0000000  0.6508444  3
   3517   3516   3519   3520     1  0.0000000  0.6508444  3
   3517   3516   3519   3521     1  0.0000000  0.6508444  3
   3518   3516   3519   3528     1  0.0000000  0.6508444  3
   3518   3516   3519   3520     1  0.0000000  0.6508444  3
   3518   3516   3519   3521     1  0.0000000  0.6508444  3
   3520   3519   3528   3537     1  0.0000000  1.0460000  1
   3520   3519   3528   3537     1  0.0000000  0.0000000  3
   3520   3519   3528   3529     1  0.0000000  0.6508444  3
   3520   3519   3528   3530     1  0.0000000  0.6508444  3
   3521   3519   3528   3537     1  0.0000000  1.0460000  1
   3521   3519   3528   3537     1  0.0000000  0.0000000  3
   3521   3519   3528   3529     1  0.0000000  0.6508444  3
   3521   3519   3528   3530     1  0.0000000  0.6508444  3
   3523   3522   3534   7133     1  0.0000000  1.0460000  1
   3523   3522   3534   7133     1  0.0000000  0.0000000  3
   3523   3522   3534   3535     1  0.0000000  0.6508444  3
   3523   3522   3534   3536     1  0.0000000  0.6508444  3
   3524   3522   3534   7133     1  0.0000000  1.0460000  1
   3524   3522   3534   7133     1  0.0000000  0.0000000  3
   3524   3522   3534   3535     1  0.0000000  0.6508444  3
   3524   3522   3534   3536     1  0.0000000  0.6508444  3
   3526   3525   3531   7104     1  0.0000000  1.0460000  1
   3526   3525   3531   7104     1  0.0000000  0.0000000  3
   3526   3525   3531   3532     1  0.0000000  0.6508444  3
   3526   3525   3531   3533     1  0.0000000  0.6508444  3
   3527   3525   3531   7104     1  0.0000000  1.0460000  1
   3527   3525   3531   7104     1  0.0000000  0.0000000  3
   3527   3525   3531   3532     1  0.0000000  0.6508444  3
   3527   3525   3531   3533     1  0.0000000  0.6508444  3
   3531   7104   7095   7096     1  0.0000000  1.6038667  3
   3531   7104   7095   7097     1  0.0000000  1.6038667  3
   3532   3531   7104   7095     1  0.0000000  1.6038667  3
   3533   3531   7104   7095     1  0.0000000  1.6038667  3
   3534   7133   7124   7125     1  0.0000000  1.6038667  3
   3534   7133   7124   7126     1  0.0000000  1.6038667  3
   3535   3534   7133   7124     1  0.0000000  1.6038667  3
   3536   3534   7133   7124     1  0.0000000  1.6038667  3
   3538   3539   3551   3552     1  0.0000000  0.6508444  3
   3538   3539   3551   3553     1  0.0000000  0.6508444  3
   3538   3542   3554   3555     1  0.0000000  0.6508444  3
   3538   3542   3554   3556     1  0.0000000  0.6508444  3
   3538   3545   3548   3549     1  0.0000000  0.6508444  3
   3538   3545   3548   3550     1  0.0000000  0.6508444  3
   3539   3538   3542   3543     1  0.0000000  1.2552000  3
   3539   3538   3542   3544     1  0.0000000  1.2552000  3
   3539   3538   3545   3546     1  0.0000000  1.2552000  3
   3539   3538   3545   3547     1  0.0000000  1.2552000  3
   3539   3551   3563   3564     1  0.0000000  0.6508444  3
   3539   3551   3563   3565     1  0.0000000  0.6508444  3
   3540   3539   3538   3542     1  0.0000000  1.2552000  3
   3540   3539   3538   3545     1  0.0000000  1.2552000  3
   3540   3539   3551   3563     1  0.0000000  0.6508444  3
   3540   3539   3551   3552     1  0.0000000  0.6508444  3
   3540   3539   3551   3553     1  0.0000000  0.6508444  3
   3541   3539   3538   3542     1  0.0000000  1.2552000  3
   3541   3539   3538   3545     1  0.0000000  1.2552000  3
   3541   3539   3551   3563     1  0.0000000  0.6508444  3
   3541   3539   3551   3552     1  0.0000000  0.6508444  3
   3541   3539   3551   3553     1  0.0000000  0.6508444  3
   3542   3538   3545   3546     1  0.0000000  1.2552000  3
   3542   3538   3545   3547     1  0.0000000  1.2552000  3
   3542   3554   3560   3561     1  0.0000000  0.6508444  3
   3542   3554   3560   3562     1  0.0000000  0.6508444  3
   3543   3542   3538   3545     1  0.0000000  1.2552000  3
   3543   3542   3554   3560     1  0.0000000  0.6508444  3
   3543   3542   3554   3555     1  0.0000000  0.6508444  3
   3543   3542   3554   3556     1  0.0000000  0.6508444  3
   3544   3542   3538   3545     1  0.0000000  1.2552000  3
   3544   3542   3554   3560     1  0.0000000  0.6508444  3
   3544   3542   3554   3555     1  0.0000000  0.6508444  3
   3544   3542   3554   3556     1  0.0000000  0.6508444  3
   3545   3548   3557   3558     1  0.0000000  0.6508444  3
   3545   3548   3557   3559     1  0.0000000  0.6508444  3
   3546   3545   3548   3557     1  0.0000000  0.6508444  3
   3546   3545   3548   3549     1  0.0000000  0.6508444  3
   3546   3545   3548   3550     1  0.0000000  0.6508444  3
   3547   3545   3548   3557     1  0.0000000  0.6508444  3
   3547   3545   3548   3549     1  0.0000000  0.6508444  3
   3547   3545   3548   3550     1  0.0000000  0.6508444  3
   3549   3548   3557   3566     1  0.0000000  1.0460000  1
   3549   3548   3557   3566     1  0.0000000  0.0000000  3
   3549   3548   3557   3558     1  0.0000000  0.6508444  3
   3549   3548   3557   3559     1  0.0000000  0.6508444  3
   3550   3548   3557   3566     1  0.0000000  1.0460000  1
   3550   3548   3557   3566     1  0.0000000  0.0000000  3
   3550   3548   3557   3558     1  0.0000000  0.6508444  3
   3550   3548   3557   3559     1  0.0000000  0.6508444  3
   3552   3551   3563   7191     1  0.0000000  1.0460000  1
   3552   3551   3563   7191     1  0.0000000  0.0000000  3
   3552   3551   3563   3564     1  0.0000000  0.6508444  3
   3552   3551   3563   3565     1  0.0000000  0.6508444  3
   3553   3551   3563   7191     1  0.0000000  1.0460000  1
   3553   3551   3563   7191     1  0.0000000  0.0000000  3
   3553   3551   3563   3564     1  0.0000000  0.6508444  3
   3553   3551   3563   3565     1  0.0000000  0.6508444  3
   3555   3554   3560   7162     1  0.0000000  1.0460000  1
   3555   3554   3560   7162     1  0.0000000  0.0000000  3
   3555   3554   3560   3561     1  0.0000000  0.6508444  3
   3555   3554   3560   3562     1  0.0000000  0.6508444  3
   3556   3554   3560   7162     1  0.0000000  1.0460000  1
   3556   3554   3560   7162     1  0.0000000  0.0000000  3
   3556   3554   3560   3561     1  0.0000000  0.6508444  3
   3556   3554   3560   3562     1  0.0000000  0.6508444  3
   3560   7162   7153   7154     1  0.0000000  1.6038667  3
   3560   7162   7153   7155     1  0.0000000  1.6038667  3
   3561   3560   7162   7153     1  0.0000000  1.6038667  3
   3562   3560   7162   7153     1  0.0000000  1.6038667  3
   3563   7191   7182   7183     1  0.0000000  1.6038667  3
   3563   7191   7182   7184     1  0.0000000  1.6038667  3
   3564   3563   7191   7182     1  0.0000000  1.6038667  3
   3565   3563   7191   7182     1  0.0000000  1.6038667  3
   3567   3568   3580   3581     1  0.0000000  0.6508444  3
   3567   3568   3580   3582     1  0.0000000  0.6508444  3
   3567   3571   3583   3584     1  0.0000000  0.6508444  3
   3567   3571   3583   3585     1  0.0000000  0.6508444  3
   3567   3574   3577   3578     1  0.0000000  0.6508444  3
   3567   3574   3577   3579     1  0.0000000  0.6508444  3
   3568   3567   3571   3572     1  0.0000000  1.2552000  3
   3568   3567   3571   3573     1  0.0000000  1.2552000  3
   3568   3567   3574   3575     1  0.0000000  1.2552000  3
   3568   3567   3574   3576     1  0.0000000  1.2552000  3
   3568   3580   3592   3593     1  0.0000000  0.6508444  3
   3568   3580   3592   3594     1  0.0000000  0.6508444  3
   3569   3568   3567   3571     1  0.0000000  1.2552000  3
   3569   3568   3567   3574     1  0.0000000  1.2552000  3
   3569   3568   3580   3592     1  0.0000000  0.6508444  3
   3569   3568   3580   3581     1  0.0000000  0.6508444  3
   3569   3568   3580   3582     1  0.0000000  0.6508444  3
   3570   3568   3567   3571     1  0.0000000  1.2552000  3
   3570   3568   3567   3574     1  0.0000000  1.2552000  3
   3570   3568   3580   3592     1  0.0000000  0.6508444  3
   3570   3568   3580   3581     1  0.0000000  0.6508444  3
   3570   3568   3580   3582     1  0.0000000  0.6508444  3
   3571   3567   3574   3575     1  0.0000000  1.2552000  3
   3571   3567   3574   3576     1  0.0000000  1.2552000  3
   3571   3583   3589   3590     1  0.0000000  0.6508444  3
   3571   3583   3589   3591     1  0.0000000  0.6508444  3
   3572   3571   3567   3574     1  0.0000000  1.2552000  3
   3572   3571   3583   3589     1  0.0000000  0.6508444  3
   3572   3571   3583   3584     1  0.0000000  0.6508444  3
   3572   3571   3583   3585     1  0.0000000  0.6508444  3
   3573   3571   3567   3574     1  0.0000000  1.2552000  3
   3573   3571   3583   3589     1  0.0000000  0.6508444  3
   3573   3571   3583   3584     1  0.0000000  0.6508444  3
   3573   3571   3583   3585     1  0.0000000  0.6508444  3
   3574   3577   3586   3587     1  0.0000000  0.6508444  3
   3574   3577   3586   3588     1  0.0000000  0.6508444  3
   3575   3574   3577   3586     1  0.0000000  0.6508444  3
   3575   3574   3577   3578     1  0.0000000  0.6508444  3
   3575   3574   3577   3579     1  0.0000000  0.6508444  3
   3576   3574   3577   3586     1  0.0000000  0.6508444  3
   3576   3574   3577   3578     1  0.0000000  0.6508444  3
   3576   3574   3577   3579     1  0.0000000  0.6508444  3
   3578   3577   3586   3595     1  0.0000000  1.0460000  1
   3578   3577   3586   3595     1  0.0000000  0.0000000  3
   3578   3577   3586   3587     1  0.0000000  0.6508444  3
   3578   3577   3586   3588     1  0.0000000  0.6508444  3
   3579   3577   3586   3595     1  0.0000000  1.0460000  1
   3579   3577   3586   3595     1  0.0000000  0.0000000  3
   3579   3577   3586   3587     1  0.0000000  0.6508444  3
   3579   3577   3586   3588     1  0.0000000  0.6508444  3
   3581   3580   3592   7249     1  0.0000000  1.0460000  1
   3581   3580   3592   7249     1  0.0000000  0.0000000  3
   3581   3580   3592   3593     1  0.0000000  0.6508444  3
   3581   3580   3592   3594     1  0.0000000  0.6508444  3
   3582   3580   3592   7249     1  0.0000000  1.0460000  1
   3582   3580   3592   7249     1  0.0000000  0.0000000  3
   3582   3580   3592   3593     1  0.0000000  0.6508444  3
   3582   3580   3592   3594     1  0.0000000  0.6508444  3
   3584   3583   3589   7220     1  0.0000000  1.0460000  1
   3584   3583   3589   7220     1  0.0000000  0.0000000  3
   3584   3583   3589   3590     1  0.0000000  0.6508444  3
   3584   3583   3589   3591     1  0.0000000  0.6508444  3
   3585   3583   3589   7220     1  0.0000000  1.0460000  1
   3585   3583   3589   7220     1  0.0000000  0.0000000  3
   3585   3583   3589   3590     1  0.0000000  0.6508444  3
   3585   3583   3589   3591     1  0.0000000  0.6508444  3
   3589   7220   7211   7212     1  0.0000000  1.6038667  3
   3589   7220   7211   7213     1  0.0000000  1.6038667  3
   3590   3589   7220   7211     1  0.0000000  1.6038667  3
   3591   3589   7220   7211     1  0.0000000  1.6038667  3
   3592   7249   7240   7241     1  0.0000000  1.6038667  3
   3592   7249   7240   7242     1  0.0000000  1.6038667  3
   3593   3592   7249   7240     1  0.0000000  1.6038667  3
   3594   3592   7249   7240     1  0.0000000  1.6038667  3
   3596   3597   3609   3610     1  0.0000000  0.6508444  3
   3596   3597   3609   3611     1  0.0000000  0.6508444  3
   3596   3600   3612   3613     1  0.0000000  0.6508444  3
   3596   3600   3612   3614     1  0.0000000  0.6508444  3
   3596   3603   3606   3607     1  0.0000000  0.6508444  3
   3596   3603   3606   3608     1  0.0000000  0.6508444  3
   3597   3596   3600   3601     1  0.0000000  1.2552000  3
   3597   3596   3600   3602     1  0.0000000  1.2552000  3
   3597   3596   3603   3604     1  0.0000000  1.2552000  3
   3597   3596   3603   3605     1  0.0000000  1.2552000  3
   3597   3609   3621   3622     1  0.0000000  0.6508444  3
   3597   3609   3621   3623     1  0.0000000  0.6508444  3
   3598   3597   3596   3600     1  0.0000000  1.2552000  3
   3598   3597   3596   3603     1  0.0000000  1.2552000  3
   3598   3597   3609   3621     1  0.0000000  0.6508444  3
   3598   3597   3609   3610     1  0.0000000  0.6508444  3
   3598   3597   3609   3611     1  0.0000000  0.6508444  3
   3599   3597   3596   3600     1  0.0000000  1.2552000  3
   3599   3597   3596   3603     1  0.0000000  1.2552000  3
   3599   3597   3609   3621     1  0.0000000  0.6508444  3
   3599   3597   3609   3610     1  0.0000000  0.6508444  3
   3599   3597   3609   3611     1  0.0000000  0.6508444  3
   3600   3596   3603   3604     1  0.0000000  1.2552000  3
   3600   3596   3603   3605     1  0.0000000  1.2552000  3
   3600   3612   3618   3619     1  0.0000000  0.6508444  3
   3600   3612   3618   3620     1  0.0000000  0.6508444  3
   3601   3600   3596   3603     1  0.0000000  1.2552000  3
   3601   3600   3612   3618     1  0.0000000  0.6508444  3
   3601   3600   3612   3613     1  0.0000000  0.6508444  3
   3601   3600   3612   3614     1  0.0000000  0.6508444  3
   3602   3600   3596   3603     1  0.0000000  1.2552000  3
   3602   3600   3612   3618     1  0.0000000  0.6508444  3
   3602   3600   3612   3613     1  0.0000000  0.6508444  3
   3602   3600   3612   3614     1  0.0000000  0.6508444  3
   3603   3606   3615   3616     1  0.0000000  0.6508444  3
   3603   3606   3615   3617     1  0.0000000  0.6508444  3
   3604   3603   3606   3615     1  0.0000000  0.6508444  3
   3604   3603   3606   3607     1  0.0000000  0.6508444  3
   3604   3603   3606   3608     1  0.0000000  0.6508444  3
   3605   3603   3606   3615     1  0.0000000  0.6508444  3
   3605   3603   3606   3607     1  0.0000000  0.6508444  3
   3605   3603   3606   3608     1  0.0000000  0.6508444  3
   3607   3606   3615   3624     1  0.0000000  1.0460000  1
   3607   3606   3615   3624     1  0.0000000  0.0000000  3
   3607   3606   3615   3616     1  0.0000000  0.6508444  3
   3607   3606   3615   3617     1  0.0000000  0.6508444  3
   3608   3606   3615   3624     1  0.0000000  1.0460000  1
   3608   3606   3615   3624     1  0.0000000  0.0000000  3
   3608   3606   3615   3616     1  0.0000000  0.6508444  3
   3608   3606   3615   3617     1  0.0000000  0.6508444  3
   3610   3609   3621   7307     1  0.0000000  1.0460000  1
   3610   3609   3621   7307     1  0.0000000  0.0000000  3
   3610   3609   3621   3622     1  0.0000000  0.6508444  3
   3610   3609   3621   3623     1  0.0000000  0.6508444  3
   3611   3609   3621   7307     1  0.0000000  1.0460000  1
   3611   3609   3621   7307     1  0.0000000  0.0000000  3
   3611   3609   3621   3622     1  0.0000000  0.6508444  3
   3611   3609   3621   3623     1  0.0000000  0.6508444  3
   3613   3612   3618   7278     1  0.0000000  1.0460000  1
   3613   3612   3618   7278     1  0.0000000  0.0000000  3
   3613   3612   3618   3619     1  0.0000000  0.6508444  3
   3613   3612   3618   3620     1  0.0000000  0.6508444  3
   3614   3612   3618   7278     1  0.0000000  1.0460000  1
   3614   3612   3618   7278     1  0.0000000  0.0000000  3
   3614   3612   3618   3619     1  0.0000000  0.6508444  3
   3614   3612   3618   3620     1  0.0000000  0.6508444  3
   3618   7278   7269   7270     1  0.0000000  1.6038667  3
   3618   7278   7269   7271     1  0.0000000  1.6038667  3
   3619   3618   7278   7269     1  0.0000000  1.6038667  3
   3620   3618   7278   7269     1  0.0000000  1.6038667  3
   3621   7307   7298   7299     1  0.0000000  1.6038667  3
   3621   7307   7298   7300     1  0.0000000  1.6038667  3
   3622   3621   7307   7298     1  0.0000000  1.6038667  3
   3623   3621   7307   7298     1  0.0000000  1.6038667  3
   3625   3626   3638   3639     1  0.0000000  0.6508444  3
   3625   3626   3638   3640     1  0.0000000  0.6508444  3
   3625   3629   3641   3642     1  0.0000000  0.6508444  3
   3625   3629   3641   3643     1  0.0000000  0.6508444  3
   3625   3632   3635   3636     1  0.0000000  0.6508444  3
   3625   3632   3635   3637     1  0.0000000  0.6508444  3
   3626   3625   3629   3630     1  0.0000000  1.2552000  3
   3626   3625   3629   3631     1  0.0000000  1.2552000  3
   3626   3625   3632   3633     1  0.0000000  1.2552000  3
   3626   3625   3632   3634     1  0.0000000  1.2552000  3
   3626   3638   3650   3651     1  0.0000000  0.6508444  3
   3626   3638   3650   3652     1  0.0000000  0.6508444  3
   3627   3626   3625   3629     1  0.0000000  1.2552000  3
   3627   3626   3625   3632     1  0.0000000  1.2552000  3
   3627   3626   3638   3650     1  0.0000000  0.6508444  3
   3627   3626   3638   3639     1  0.0000000  0.6508444  3
   3627   3626   3638   3640     1  0.0000000  0.6508444  3
   3628   3626   3625   3629     1  0.0000000  1.2552000  3
   3628   3626   3625   3632     1  0.0000000  1.2552000  3
   3628   3626   3638   3650     1  0.0000000  0.6508444  3
   3628   3626   3638   3639     1  0.0000000  0.6508444  3
   3628   3626   3638   3640     1  0.0000000  0.6508444  3
   3629   3625   3632   3633     1  0.0000000  1.2552000  3
   3629   3625   3632   3634     1  0.0000000  1.2552000  3
   3629   3641   3647   3648     1  0.0000000  0.6508444  3
   3629   3641   3647   3649     1  0.0000000  0.6508444  3
   3630   3629   3625   3632     1  0.0000000  1.2552000  3
   3630   3629   3641   3647     1  0.0000000  0.6508444  3
   3630   3629   3641   3642     1  0.0000000  0.6508444  3
   3630   3629   3641   3643     1  0.0000000  0.6508444  3
   3631   3629   3625   3632     1  0.0000000  1.2552000  3
   3631   3629   3641   3647     1  0.0000000  0.6508444  3
   3631   3629   3641   3642     1  0.0000000  0.6508444  3
   3631   3629   3641   3643     1  0.0000000  0.6508444  3
   3632   3635   3644   3645     1  0.0000000  0.6508444  3
   3632   3635   3644   3646     1  0.0000000  0.6508444  3
   3633   3632   3635   3644     1  0.0000000  0.6508444  3
   3633   3632   3635   3636     1  0.0000000  0.6508444  3
   3633   3632   3635   3637     1  0.0000000  0.6508444  3
   3634   3632   3635   3644     1  0.0000000  0.6508444  3
   3634   3632   3635   3636     1  0.0000000  0.6508444  3
   3634   3632   3635   3637     1  0.0000000  0.6508444  3
   3636   3635   3644   3653     1  0.0000000  1.0460000  1
   3636   3635   3644   3653     1  0.0000000  0.0000000  3
   3636   3635   3644   3645     1  0.0000000  0.6508444  3
   3636   3635   3644   3646     1  0.0000000  0.6508444  3
   3637   3635   3644   3653     1  0.0000000  1.0460000  1
   3637   3635   3644   3653     1  0.0000000  0.0000000  3
   3637   3635   3644   3645     1  0.0000000  0.6508444  3
   3637   3635   3644   3646     1  0.0000000  0.6508444  3
   3639   3638   3650   7365     1  0.0000000  1.0460000  1
   3639   3638   3650   7365     1  0.0000000  0.0000000  3
   3639   3638   3650   3651     1  0.0000000  0.6508444  3
   3639   3638   3650   3652     1  0.0000000  0.6508444  3
   3640   3638   3650   7365     1  0.0000000  1.0460000  1
   3640   3638   3650   7365     1  0.0000000  0.0000000  3
   3640   3638   3650   3651     1  0.0000000  0.6508444  3
   3640   3638   3650   3652     1  0.0000000  0.6508444  3
   3642   3641   3647   7336     1  0.0000000  1.0460000  1
   3642   3641   3647   7336     1  0.0000000  0.0000000  3
   3642   3641   3647   3648     1  0.0000000  0.6508444  3
   3642   3641   3647   3649     1  0.0000000  0.6508444  3
   3643   3641   3647   7336     1  0.0000000  1.0460000  1
   3643   3641   3647   7336     1  0.0000000  0.0000000  3
   3643   3641   3647   3648     1  0.0000000  0.6508444  3
   3643   3641   3647   3649     1  0.0000000  0.6508444  3
   3647   7336   7327   7328     1  0.0000000  1.6038667  3
   3647   7336   7327   7329     1  0.0000000  1.6038667  3
   3648   3647   7336   7327     1  0.0000000  1.6038667  3
   3649   3647   7336   7327     1  0.0000000  1.6038667  3
   3650   7365   7356   7357     1  0.0000000  1.6038667  3
   3650   7365   7356   7358     1  0.0000000  1.6038667  3
   3651   3650   7365   7356     1  0.0000000  1.6038667  3
   3652   3650   7365   7356     1  0.0000000  1.6038667  3
   3654   3655   3667   3668     1  0.0000000  0.6508444  3
   3654   3655   3667   3669     1  0.0000000  0.6508444  3
   3654   3658   3670   3671     1  0.0000000  0.6508444  3
   3654   3658   3670   3672     1  0.0000000  0.6508444  3
   3654   3661   3664   3665     1  0.0000000  0.6508444  3
   3654   3661   3664   3666     1  0.0000000  0.6508444  3
   3655   3654   3658   3659     1  0.0000000  1.2552000  3
   3655   3654   3658   3660     1  0.0000000  1.2552000  3
   3655   3654   3661   3662     1  0.0000000  1.2552000  3
   3655   3654   3661   3663     1  0.0000000  1.2552000  3
   3655   3667   3679   3680     1  0.0000000  0.6508444  3
   3655   3667   3679   3681     1  0.0000000  0.6508444  3
   3656   3655   3654   3658     1  0.0000000  1.2552000  3
   3656   3655   3654   3661     1  0.0000000  1.2552000  3
   3656   3655   3667   3679     1  0.0000000  0.6508444  3
   3656   3655   3667   3668     1  0.0000000  0.6508444  3
   3656   3655   3667   3669     1  0.0000000  0.6508444  3
   3657   3655   3654   3658     1  0.0000000  1.2552000  3
   3657   3655   3654   3661     1  0.0000000  1.2552000  3
   3657   3655   3667   3679     1  0.0000000  0.6508444  3
   3657   3655   3667   3668     1  0.0000000  0.6508444  3
   3657   3655   3667   3669     1  0.0000000  0.6508444  3
   3658   3654   3661   3662     1  0.0000000  1.2552000  3
   3658   3654   3661   3663     1  0.0000000  1.2552000  3
   3658   3670   3676   3677     1  0.0000000  0.6508444  3
   3658   3670   3676   3678     1  0.0000000  0.6508444  3
   3659   3658   3654   3661     1  0.0000000  1.2552000  3
   3659   3658   3670   3676     1  0.0000000  0.6508444  3
   3659   3658   3670   3671     1  0.0000000  0.6508444  3
   3659   3658   3670   3672     1  0.0000000  0.6508444  3
   3660   3658   3654   3661     1  0.0000000  1.2552000  3
   3660   3658   3670   3676     1  0.0000000  0.6508444  3
   3660   3658   3670   3671     1  0.0000000  0.6508444  3
   3660   3658   3670   3672     1  0.0000000  0.6508444  3
   3661   3664   3673   3674     1  0.0000000  0.6508444  3
   3661   3664   3673   3675     1  0.0000000  0.6508444  3
   3662   3661   3664   3673     1  0.0000000  0.6508444  3
   3662   3661   3664   3665     1  0.0000000  0.6508444  3
   3662   3661   3664   3666     1  0.0000000  0.6508444  3
   3663   3661   3664   3673     1  0.0000000  0.6508444  3
   3663   3661   3664   3665     1  0.0000000  0.6508444  3
   3663   3661   3664   3666     1  0.0000000  0.6508444  3
   3665   3664   3673   3682     1  0.0000000  1.0460000  1
   3665   3664   3673   3682     1  0.0000000  0.0000000  3
   3665   3664   3673   3674     1  0.0000000  0.6508444  3
   3665   3664   3673   3675     1  0.0000000  0.6508444  3
   3666   3664   3673   3682     1  0.0000000  1.0460000  1
   3666   3664   3673   3682     1  0.0000000  0.0000000  3
   3666   3664   3673   3674     1  0.0000000  0.6508444  3
   3666   3664   3673   3675     1  0.0000000  0.6508444  3
   3668   3667   3679   7399     1  0.0000000  1.0460000  1
   3668   3667   3679   7399     1  0.0000000  0.0000000  3
   3668   3667   3679   3680     1  0.0000000  0.6508444  3
   3668   3667   3679   3681     1  0.0000000  0.6508444  3
   3669   3667   3679   7399     1  0.0000000  1.0460000  1
   3669   3667   3679   7399     1  0.0000000  0.0000000  3
   3669   3667   3679   3680     1  0.0000000  0.6508444  3
   3669   3667   3679   3681     1  0.0000000  0.6508444  3
   3671   3670   3676   7376     1  0.0000000  1.0460000  1
   3671   3670   3676   7376     1  0.0000000  0.0000000  3
   3671   3670   3676   3677     1  0.0000000  0.6508444  3
   3671   3670   3676   3678     1  0.0000000  0.6508444  3
   3672   3670   3676   7376     1  0.0000000  1.0460000  1
   3672   3670   3676   7376     1  0.0000000  0.0000000  3
   3672   3670   3676   3677     1  0.0000000  0.6508444  3
   3672   3670   3676   3678     1  0.0000000  0.6508444  3
   3676   7376   7372   7375     1  0.0000000  1.6038667  3
   3677   3676   7376   7372     1  0.0000000  1.6038667  3
   3678   3676   7376   7372     1  0.0000000  1.6038667  3
   3679   7399   7395   7398     1  0.0000000  1.6038667  3
   3680   3679   7399   7395     1  0.0000000  1.6038667  3
   3681   3679   7399   7395     1  0.0000000  1.6038667  3
   3683   3684   3696   3697     1  0.0000000  0.6508444  3
   3683   3684   3696   3698     1  0.0000000  0.6508444  3
   3683   3687   3699   3700     1  0.0000000  0.6508444  3
   3683   3687   3699   3701     1  0.0000000  0.6508444  3
   3683   3690   3693   3694     1  0.0000000  0.6508444  3
   3683   3690   3693   3695     1  0.0000000  0.6508444  3
   3684   3683   3687   3688     1  0.0000000  1.2552000  3
   3684   3683   3687   3689     1  0.0000000  1.2552000  3
   3684   3683   3690   3691     1  0.0000000  1.2552000  3
   3684   3683   3690   3692     1  0.0000000  1.2552000  3
   3684   3696   3708   3709     1  0.0000000  0.6508444  3
   3684   3696   3708   3710     1  0.0000000  0.6508444  3
   3685   3684   3683   3687     1  0.0000000  1.2552000  3
   3685   3684   3683   3690     1  0.0000000  1.2552000  3
   3685   3684   3696   3708     1  0.0000000  0.6508444  3
   3685   3684   3696   3697     1  0.0000000  0.6508444  3
   3685   3684   3696   3698     1  0.0000000  0.6508444  3
   3686   3684   3683   3687     1  0.0000000  1.2552000  3
   3686   3684   3683   3690     1  0.0000000  1.2552000  3
   3686   3684   3696   3708     1  0.0000000  0.6508444  3
   3686   3684   3696   3697     1  0.0000000  0.6508444  3
   3686   3684   3696   3698     1  0.0000000  0.6508444  3
   3687   3683   3690   3691     1  0.0000000  1.2552000  3
   3687   3683   3690   3692     1  0.0000000  1.2552000  3
   3687   3699   3705   3706     1  0.0000000  0.6508444  3
   3687   3699   3705   3707     1  0.0000000  0.6508444  3
   3688   3687   3683   3690     1  0.0000000  1.2552000  3
   3688   3687   3699   3705     1  0.0000000  0.6508444  3
   3688   3687   3699   3700     1  0.0000000  0.6508444  3
   3688   3687   3699   3701     1  0.0000000  0.6508444  3
   3689   3687   3683   3690     1  0.0000000  1.2552000  3
   3689   3687   3699   3705     1  0.0000000  0.6508444  3
   3689   3687   3699   3700     1  0.0000000  0.6508444  3
   3689   3687   3699   3701     1  0.0000000  0.6508444  3
   3690   3693   3702   3703     1  0.0000000  0.6508444  3
   3690   3693   3702   3704     1  0.0000000  0.6508444  3
   3691   3690   3693   3702     1  0.0000000  0.6508444  3
   3691   3690   3693   3694     1  0.0000000  0.6508444  3
   3691   3690   3693   3695     1  0.0000000  0.6508444  3
   3692   3690   3693   3702     1  0.0000000  0.6508444  3
   3692   3690   3693   3694     1  0.0000000  0.6508444  3
   3692   3690   3693   3695     1  0.0000000  0.6508444  3
   3694   3693   3702   3711     1  0.0000000  1.0460000  1
   3694   3693   3702   3711     1  0.0000000  0.0000000  3
   3694   3693   3702   3703     1  0.0000000  0.6508444  3
   3694   3693   3702   3704     1  0.0000000  0.6508444  3
   3695   3693   3702   3711     1  0.0000000  1.0460000  1
   3695   3693   3702   3711     1  0.0000000  0.0000000  3
   3695   3693   3702   3703     1  0.0000000  0.6508444  3
   3695   3693   3702   3704     1  0.0000000  0.6508444  3
   3697   3696   3708   7445     1  0.0000000  1.0460000  1
   3697   3696   3708   7445     1  0.0000000  0.0000000  3
   3697   3696   3708   3709     1  0.0000000  0.6508444  3
   3697   3696   3708   3710     1  0.0000000  0.6508444  3
   3698   3696   3708   7445     1  0.0000000  1.0460000  1
   3698   3696   3708   7445     1  0.0000000  0.0000000  3
   3698   3696   3708   3709     1  0.0000000  0.6508444  3
   3698   3696   3708   3710     1  0.0000000  0.6508444  3
   3700   3699   3705   7422     1  0.0000000  1.0460000  1
   3700   3699   3705   7422     1  0.0000000  0.0000000  3
   3700   3699   3705   3706     1  0.0000000  0.6508444  3
   3700   3699   3705   3707     1  0.0000000  0.6508444  3
   3701   3699   3705   7422     1  0.0000000  1.0460000  1
   3701   3699   3705   7422     1  0.0000000  0.0000000  3
   3701   3699   3705   3706     1  0.0000000  0.6508444  3
   3701   3699   3705   3707     1  0.0000000  0.6508444  3
   3705   7422   7418   7421     1  0.0000000  1.6038667  3
   3706   3705   7422   7418     1  0.0000000  1.6038667  3
   3707   3705   7422   7418     1  0.0000000  1.6038667  3
   3708   7445   7441   7444     1  0.0000000  1.6038667  3
   3709   3708   7445   7441     1  0.0000000  1.6038667  3
   3710   3708   7445   7441     1  0.0000000  1.6038667  3
   3712   3713   3725   3726     1  0.0000000  0.6508444  3
   3712   3713   3725   3727     1  0.0000000  0.6508444  3
   3712   3716   3728   3729     1  0.0000000  0.6508444  3
   3712   3716   3728   3730     1  0.0000000  0.6508444  3
   3712   3719   3722   3723     1  0.0000000  0.6508444  3
   3712   3719   3722   3724     1  0.0000000  0.6508444  3
   3713   3712   3716   3717     1  0.0000000  1.2552000  3
   3713   3712   3716   3718     1  0.0000000  1.2552000  3
   3713   3712   3719   3720     1  0.0000000  1.2552000  3
   3713   3712   3719   3721     1  0.0000000  1.2552000  3
   3713   3725   3737   3738     1  0.0000000  0.6508444  3
   3713   3725   3737   3739     1  0.0000000  0.6508444  3
   3714   3713   3712   3716     1  0.0000000  1.2552000  3
   3714   3713   3712   3719     1  0.0000000  1.2552000  3
   3714   3713   3725   3737     1  0.0000000  0.6508444  3
   3714   3713   3725   3726     1  0.0000000  0.6508444  3
   3714   3713   3725   3727     1  0.0000000  0.6508444  3
   3715   3713   3712   3716     1  0.0000000  1.2552000  3
   3715   3713   3712   3719     1  0.0000000  1.2552000  3
   3715   3713   3725   3737     1  0.0000000  0.6508444  3
   3715   3713   3725   3726     1  0.0000000  0.6508444  3
   3715   3713   3725   3727     1  0.0000000  0.6508444  3
   3716   3712   3719   3720     1  0.0000000  1.2552000  3
   3716   3712   3719   3721     1  0.0000000  1.2552000  3
   3716   3728   3734   3735     1  0.0000000  0.6508444  3
   3716   3728   3734   3736     1  0.0000000  0.6508444  3
   3717   3716   3712   3719     1  0.0000000  1.2552000  3
   3717   3716   3728   3734     1  0.0000000  0.6508444  3
   3717   3716   3728   3729     1  0.0000000  0.6508444  3
   3717   3716   3728   3730     1  0.0000000  0.6508444  3
   3718   3716   3712   3719     1  0.0000000  1.2552000  3
   3718   3716   3728   3734     1  0.0000000  0.6508444  3
   3718   3716   3728   3729     1  0.0000000  0.6508444  3
   3718   3716   3728   3730     1  0.0000000  0.6508444  3
   3719   3722   3731   3732     1  0.0000000  0.6508444  3
   3719   3722   3731   3733     1  0.0000000  0.6508444  3
   3720   3719   3722   3731     1  0.0000000  0.6508444  3
   3720   3719   3722   3723     1  0.0000000  0.6508444  3
   3720   3719   3722   3724     1  0.0000000  0.6508444  3
   3721   3719   3722   3731     1  0.0000000  0.6508444  3
   3721   3719   3722   3723     1  0.0000000  0.6508444  3
   3721   3719   3722   3724     1  0.0000000  0.6508444  3
   3723   3722   3731   3740     1  0.0000000  1.0460000  1
   3723   3722   3731   3740     1  0.0000000  0.0000000  3
   3723   3722   3731   3732     1  0.0000000  0.6508444  3
   3723   3722   3731   3733     1  0.0000000  0.6508444  3
   3724   3722   3731   3740     1  0.0000000  1.0460000  1
   3724   3722   3731   3740     1  0.0000000  0.0000000  3
   3724   3722   3731   3732     1  0.0000000  0.6508444  3
   3724   3722   3731   3733     1  0.0000000  0.6508444  3
   3726   3725   3737   7491     1  0.0000000  1.0460000  1
   3726   3725   3737   7491     1  0.0000000  0.0000000  3
   3726   3725   3737   3738     1  0.0000000  0.6508444  3
   3726   3725   3737   3739     1  0.0000000  0.6508444  3
   3727   3725   3737   7491     1  0.0000000  1.0460000  1
   3727   3725   3737   7491     1  0.0000000  0.0000000  3
   3727   3725   3737   3738     1  0.0000000  0.6508444  3
   3727   3725   3737   3739     1  0.0000000  0.6508444  3
   3729   3728   3734   7468     1  0.0000000  1.0460000  1
   3729   3728   3734   7468     1  0.0000000  0.0000000  3
   3729   3728   3734   3735     1  0.0000000  0.6508444  3
   3729   3728   3734   3736     1  0.0000000  0.6508444  3
   3730   3728   3734   7468     1  0.0000000  1.0460000  1
   3730   3728   3734   7468     1  0.0000000  0.0000000  3
   3730   3728   3734   3735     1  0.0000000  0.6508444  3
   3730   3728   3734   3736     1  0.0000000  0.6508444  3
   3734   7468   7464   7467     1  0.0000000  1.6038667  3
   3735   3734   7468   7464     1  0.0000000  1.6038667  3
   3736   3734   7468   7464     1  0.0000000  1.6038667  3
   3737   7491   7487   7490     1  0.0000000  1.6038667  3
   3738   3737   7491   7487     1  0.0000000  1.6038667  3
   3739   3737   7491   7487     1  0.0000000  1.6038667  3
   3741   3742   3754   3755     1  0.0000000  0.6508444  3
   3741   3742   3754   3756     1  0.0000000  0.6508444  3
   3741   3745   3757   3758     1  0.0000000  0.6508444  3
   3741   3745   3757   3759     1  0.0000000  0.6508444  3
   3741   3748   3751   3752     1  0.0000000  0.6508444  3
   3741   3748   3751   3753     1  0.0000000  0.6508444  3
   3742   3741   3745   3746     1  0.0000000  1.2552000  3
   3742   3741   3745   3747     1  0.0000000  1.2552000  3
   3742   3741   3748   3749     1  0.0000000  1.2552000  3
   3742   3741   3748   3750     1  0.0000000  1.2552000  3
   3742   3754   3766   3767     1  0.0000000  0.6508444  3
   3742   3754   3766   3768     1  0.0000000  0.6508444  3
   3743   3742   3741   3745     1  0.0000000  1.2552000  3
   3743   3742   3741   3748     1  0.0000000  1.2552000  3
   3743   3742   3754   3766     1  0.0000000  0.6508444  3
   3743   3742   3754   3755     1  0.0000000  0.6508444  3
   3743   3742   3754   3756     1  0.0000000  0.6508444  3
   3744   3742   3741   3745     1  0.0000000  1.2552000  3
   3744   3742   3741   3748     1  0.0000000  1.2552000  3
   3744   3742   3754   3766     1  0.0000000  0.6508444  3
   3744   3742   3754   3755     1  0.0000000  0.6508444  3
   3744   3742   3754   3756     1  0.0000000  0.6508444  3
   3745   3741   3748   3749     1  0.0000000  1.2552000  3
   3745   3741   3748   3750     1  0.0000000  1.2552000  3
   3745   3757   3763   3764     1  0.0000000  0.6508444  3
   3745   3757   3763   3765     1  0.0000000  0.6508444  3
   3746   3745   3741   3748     1  0.0000000  1.2552000  3
   3746   3745   3757   3763     1  0.0000000  0.6508444  3
   3746   3745   3757   3758     1  0.0000000  0.6508444  3
   3746   3745   3757   3759     1  0.0000000  0.6508444  3
   3747   3745   3741   3748     1  0.0000000  1.2552000  3
   3747   3745   3757   3763     1  0.0000000  0.6508444  3
   3747   3745   3757   3758     1  0.0000000  0.6508444  3
   3747   3745   3757   3759     1  0.0000000  0.6508444  3
   3748   3751   3760   3761     1  0.0000000  0.6508444  3
   3748   3751   3760   3762     1  0.0000000  0.6508444  3
   3749   3748   3751   3760     1  0.0000000  0.6508444  3
   3749   3748   3751   3752     1  0.0000000  0.6508444  3
   3749   3748   3751   3753     1  0.0000000  0.6508444  3
   3750   3748   3751   3760     1  0.0000000  0.6508444  3
   3750   3748   3751   3752     1  0.0000000  0.6508444  3
   3750   3748   3751   3753     1  0.0000000  0.6508444  3
   3752   3751   3760   3769     1  0.0000000  1.0460000  1
   3752   3751   3760   3769     1  0.0000000  0.0000000  3
   3752   3751   3760   3761     1  0.0000000  0.6508444  3
   3752   3751   3760   3762     1  0.0000000  0.6508444  3
   3753   3751   3760   3769     1  0.0000000  1.0460000  1
   3753   3751   3760   3769     1  0.0000000  0.0000000  3
   3753   3751   3760   3761     1  0.0000000  0.6508444  3
   3753   3751   3760   3762     1  0.0000000  0.6508444  3
   3755   3754   3766   7537     1  0.0000000  1.0460000  1
   3755   3754   3766   7537     1  0.0000000  0.0000000  3
   3755   3754   3766   3767     1  0.0000000  0.6508444  3
   3755   3754   3766   3768     1  0.0000000  0.6508444  3
   3756   3754   3766   7537     1  0.0000000  1.0460000  1
   3756   3754   3766   7537     1  0.0000000  0.0000000  3
   3756   3754   3766   3767     1  0.0000000  0.6508444  3
   3756   3754   3766   3768     1  0.0000000  0.6508444  3
   3758   3757   3763   7514     1  0.0000000  1.0460000  1
   3758   3757   3763   7514     1  0.0000000  0.0000000  3
   3758   3757   3763   3764     1  0.0000000  0.6508444  3
   3758   3757   3763   3765     1  0.0000000  0.6508444  3
   3759   3757   3763   7514     1  0.0000000  1.0460000  1
   3759   3757   3763   7514     1  0.0000000  0.0000000  3
   3759   3757   3763   3764     1  0.0000000  0.6508444  3
   3759   3757   3763   3765     1  0.0000000  0.6508444  3
   3763   7514   7510   7513     1  0.0000000  1.6038667  3
   3764   3763   7514   7510     1  0.0000000  1.6038667  3
   3765   3763   7514   7510     1  0.0000000  1.6038667  3
   3766   7537   7533   7536     1  0.0000000  1.6038667  3
   3767   3766   7537   7533     1  0.0000000  1.6038667  3
   3768   3766   7537   7533     1  0.0000000  1.6038667  3
   3770   3771   3783   3784     1  0.0000000  0.6508444  3
   3770   3771   3783   3785     1  0.0000000  0.6508444  3
   3770   3774   3786   3787     1  0.0000000  0.6508444  3
   3770   3774   3786   3788     1  0.0000000  0.6508444  3
   3770   3777   3780   3781     1  0.0000000  0.6508444  3
   3770   3777   3780   3782     1  0.0000000  0.6508444  3
   3771   3770   3774   3775     1  0.0000000  1.2552000  3
   3771   3770   3774   3776     1  0.0000000  1.2552000  3
   3771   3770   3777   3778     1  0.0000000  1.2552000  3
   3771   3770   3777   3779     1  0.0000000  1.2552000  3
   3771   3783   3795   3796     1  0.0000000  0.6508444  3
   3771   3783   3795   3797     1  0.0000000  0.6508444  3
   3772   3771   3770   3774     1  0.0000000  1.2552000  3
   3772   3771   3770   3777     1  0.0000000  1.2552000  3
   3772   3771   3783   3795     1  0.0000000  0.6508444  3
   3772   3771   3783   3784     1  0.0000000  0.6508444  3
   3772   3771   3783   3785     1  0.0000000  0.6508444  3
   3773   3771   3770   3774     1  0.0000000  1.2552000  3
   3773   3771   3770   3777     1  0.0000000  1.2552000  3
   3773   3771   3783   3795     1  0.0000000  0.6508444  3
   3773   3771   3783   3784     1  0.0000000  0.6508444  3
   3773   3771   3783   3785     1  0.0000000  0.6508444  3
   3774   3770   3777   3778     1  0.0000000  1.2552000  3
   3774   3770   3777   3779     1  0.0000000  1.2552000  3
   3774   3786   3792   3793     1  0.0000000  0.6508444  3
   3774   3786   3792   3794     1  0.0000000  0.6508444  3
   3775   3774   3770   3777     1  0.0000000  1.2552000  3
   3775   3774   3786   3792     1  0.0000000  0.6508444  3
   3775   3774   3786   3787     1  0.0000000  0.6508444  3
   3775   3774   3786   3788     1  0.0000000  0.6508444  3
   3776   3774   3770   3777     1  0.0000000  1.2552000  3
   3776   3774   3786   3792     1  0.0000000  0.6508444  3
   3776   3774   3786   3787     1  0.0000000  0.6508444  3
   3776   3774   3786   3788     1  0.0000000  0.6508444  3
   3777   3780   3789   3790     1  0.0000000  0.6508444  3
   3777   3780   3789   3791     1  0.0000000  0.6508444  3
   3778   3777   3780   3789     1  0.0000000  0.6508444  3
   3778   3777   3780   3781     1  0.0000000  0.6508444  3
   3778   3777   3780   3782     1  0.0000000  0.6508444  3
   3779   3777   3780   3789     1  0.0000000  0.6508444  3
   3779   3777   3780   3781     1  0.0000000  0.6508444  3
   3779   3777   3780   3782     1  0.0000000  0.6508444  3
   3781   3780   3789   3798     1  0.0000000  1.0460000  1
   3781   3780   3789   3798     1  0.0000000  0.0000000  3
   3781   3780   3789   3790     1  0.0000000  0.6508444  3
   3781   3780   3789   3791     1  0.0000000  0.6508444  3
   3782   3780   3789   3798     1  0.0000000  1.0460000  1
   3782   3780   3789   3798     1  0.0000000  0.0000000  3
   3782   3780   3789   3790     1  0.0000000  0.6508444  3
   3782   3780   3789   3791     1  0.0000000  0.6508444  3
   3784   3783   3795   7583     1  0.0000000  1.0460000  1
   3784   3783   3795   7583     1  0.0000000  0.0000000  3
   3784   3783   3795   3796     1  0.0000000  0.6508444  3
   3784   3783   3795   3797     1  0.0000000  0.6508444  3
   3785   3783   3795   7583     1  0.0000000  1.0460000  1
   3785   3783   3795   7583     1  0.0000000  0.0000000  3
   3785   3783   3795   3796     1  0.0000000  0.6508444  3
   3785   3783   3795   3797     1  0.0000000  0.6508444  3
   3787   3786   3792   7560     1  0.0000000  1.0460000  1
   3787   3786   3792   7560     1  0.0000000  0.0000000  3
   3787   3786   3792   3793     1  0.0000000  0.6508444  3
   3787   3786   3792   3794     1  0.0000000  0.6508444  3
   3788   3786   3792   7560     1  0.0000000  1.0460000  1
   3788   3786   3792   7560     1  0.0000000  0.0000000  3
   3788   3786   3792   3793     1  0.0000000  0.6508444  3
   3788   3786   3792   3794     1  0.0000000  0.6508444  3
   3792   7560   7556   7559     1  0.0000000  1.6038667  3
   3793   3792   7560   7556     1  0.0000000  1.6038667  3
   3794   3792   7560   7556     1  0.0000000  1.6038667  3
   3795   7583   7579   7582     1  0.0000000  1.6038667  3
   3796   3795   7583   7579     1  0.0000000  1.6038667  3
   3797   3795   7583   7579     1  0.0000000  1.6038667  3
   3799   3800   3812   3813     1  0.0000000  0.6508444  3
   3799   3800   3812   3814     1  0.0000000  0.6508444  3
   3799   3803   3815   3816     1  0.0000000  0.6508444  3
   3799   3803   3815   3817     1  0.0000000  0.6508444  3
   3799   3806   3809   3810     1  0.0000000  0.6508444  3
   3799   3806   3809   3811     1  0.0000000  0.6508444  3
   3800   3799   3803   3804     1  0.0000000  1.2552000  3
   3800   3799   3803   3805     1  0.0000000  1.2552000  3
   3800   3799   3806   3807     1  0.0000000  1.2552000  3
   3800   3799   3806   3808     1  0.0000000  1.2552000  3
   3800   3812   3824   3825     1  0.0000000  0.6508444  3
   3800   3812   3824   3826     1  0.0000000  0.6508444  3
   3801   3800   3799   3803     1  0.0000000  1.2552000  3
   3801   3800   3799   3806     1  0.0000000  1.2552000  3
   3801   3800   3812   3824     1  0.0000000  0.6508444  3
   3801   3800   3812   3813     1  0.0000000  0.6508444  3
   3801   3800   3812   3814     1  0.0000000  0.6508444  3
   3802   3800   3799   3803     1  0.0000000  1.2552000  3
   3802   3800   3799   3806     1  0.0000000  1.2552000  3
   3802   3800   3812   3824     1  0.0000000  0.6508444  3
   3802   3800   3812   3813     1  0.0000000  0.6508444  3
   3802   3800   3812   3814     1  0.0000000  0.6508444  3
   3803   3799   3806   3807     1  0.0000000  1.2552000  3
   3803   3799   3806   3808     1  0.0000000  1.2552000  3
   3803   3815   3821   3822     1  0.0000000  0.6508444  3
   3803   3815   3821   3823     1  0.0000000  0.6508444  3
   3804   3803   3799   3806     1  0.0000000  1.2552000  3
   3804   3803   3815   3821     1  0.0000000  0.6508444  3
   3804   3803   3815   3816     1  0.0000000  0.6508444  3
   3804   3803   3815   3817     1  0.0000000  0.6508444  3
   3805   3803   3799   3806     1  0.0000000  1.2552000  3
   3805   3803   3815   3821     1  0.0000000  0.6508444  3
   3805   3803   3815   3816     1  0.0000000  0.6508444  3
   3805   3803   3815   3817     1  0.0000000  0.6508444  3
   3806   3809   3818   3819     1  0.0000000  0.6508444  3
   3806   3809   3818   3820     1  0.0000000  0.6508444  3
   3807   3806   3809   3818     1  0.0000000  0.6508444  3
   3807   3806   3809   3810     1  0.0000000  0.6508444  3
   3807   3806   3809   3811     1  0.0000000  0.6508444  3
   3808   3806   3809   3818     1  0.0000000  0.6508444  3
   3808   3806   3809   3810     1  0.0000000  0.6508444  3
   3808   3806   3809   3811     1  0.0000000  0.6508444  3
   3810   3809   3818   3827     1  0.0000000  1.0460000  1
   3810   3809   3818   3827     1  0.0000000  0.0000000  3
   3810   3809   3818   3819     1  0.0000000  0.6508444  3
   3810   3809   3818   3820     1  0.0000000  0.6508444  3
   3811   3809   3818   3827     1  0.0000000  1.0460000  1
   3811   3809   3818   3827     1  0.0000000  0.0000000  3
   3811   3809   3818   3819     1  0.0000000  0.6508444  3
   3811   3809   3818   3820     1  0.0000000  0.6508444  3
   3813   3812   3824   7629     1  0.0000000  1.0460000  1
   3813   3812   3824   7629     1  0.0000000  0.0000000  3
   3813   3812   3824   3825     1  0.0000000  0.6508444  3
   3813   3812   3824   3826     1  0.0000000  0.6508444  3
   3814   3812   3824   7629     1  0.0000000  1.0460000  1
   3814   3812   3824   7629     1  0.0000000  0.0000000  3
   3814   3812   3824   3825     1  0.0000000  0.6508444  3
   3814   3812   3824   3826     1  0.0000000  0.6508444  3
   3816   3815   3821   7606     1  0.0000000  1.0460000  1
   3816   3815   3821   7606     1  0.0000000  0.0000000  3
   3816   3815   3821   3822     1  0.0000000  0.6508444  3
   3816   3815   3821   3823     1  0.0000000  0.6508444  3
   3817   3815   3821   7606     1  0.0000000  1.0460000  1
   3817   3815   3821   7606     1  0.0000000  0.0000000  3
   3817   3815   3821   3822     1  0.0000000  0.6508444  3
   3817   3815   3821   3823     1  0.0000000  0.6508444  3
   3821   7606   7602   7605     1  0.0000000  1.6038667  3
   3822   3821   7606   7602     1  0.0000000  1.6038667  3
   3823   3821   7606   7602     1  0.0000000  1.6038667  3
   3824   7629   7625   7628     1  0.0000000  1.6038667  3
   3825   3824   7629   7625     1  0.0000000  1.6038667  3
   3826   3824   7629   7625     1  0.0000000  1.6038667  3
   3828   3829   3841   3842     1  0.0000000  0.6508444  3
   3828   3829   3841   3843     1  0.0000000  0.6508444  3
   3828   3832   3844   3845     1  0.0000000  0.6508444  3
   3828   3832   3844   3846     1  0.0000000  0.6508444  3
   3828   3835   3838   3839     1  0.0000000  0.6508444  3
   3828   3835   3838   3840     1  0.0000000  0.6508444  3
   3829   3828   3832   3833     1  0.0000000  1.2552000  3
   3829   3828   3832   3834     1  0.0000000  1.2552000  3
   3829   3828   3835   3836     1  0.0000000  1.2552000  3
   3829   3828   3835   3837     1  0.0000000  1.2552000  3
   3829   3841   3853   3854     1  0.0000000  0.6508444  3
   3829   3841   3853   3855     1  0.0000000  0.6508444  3
   3830   3829   3828   3832     1  0.0000000  1.2552000  3
   3830   3829   3828   3835     1  0.0000000  1.2552000  3
   3830   3829   3841   3853     1  0.0000000  0.6508444  3
   3830   3829   3841   3842     1  0.0000000  0.6508444  3
   3830   3829   3841   3843     1  0.0000000  0.6508444  3
   3831   3829   3828   3832     1  0.0000000  1.2552000  3
   3831   3829   3828   3835     1  0.0000000  1.2552000  3
   3831   3829   3841   3853     1  0.0000000  0.6508444  3
   3831   3829   3841   3842     1  0.0000000  0.6508444  3
   3831   3829   3841   3843     1  0.0000000  0.6508444  3
   3832   3828   3835   3836     1  0.0000000  1.2552000  3
   3832   3828   3835   3837     1  0.0000000  1.2552000  3
   3832   3844   3850   3851     1  0.0000000  0.6508444  3
   3832   3844   3850   3852     1  0.0000000  0.6508444  3
   3833   3832   3828   3835     1  0.0000000  1.2552000  3
   3833   3832   3844   3850     1  0.0000000  0.6508444  3
   3833   3832   3844   3845     1  0.0000000  0.6508444  3
   3833   3832   3844   3846     1  0.0000000  0.6508444  3
   3834   3832   3828   3835     1  0.0000000  1.2552000  3
   3834   3832   3844   3850     1  0.0000000  0.6508444  3
   3834   3832   3844   3845     1  0.0000000  0.6508444  3
   3834   3832   3844   3846     1  0.0000000  0.6508444  3
   3835   3838   3847   3848     1  0.0000000  0.6508444  3
   3835   3838   3847   3849     1  0.0000000  0.6508444  3
   3836   3835   3838   3847     1  0.0000000  0.6508444  3
   3836   3835   3838   3839     1  0.0000000  0.6508444  3
   3836   3835   3838   3840     1  0.0000000  0.6508444  3
   3837   3835   3838   3847     1  0.0000000  0.6508444  3
   3837   3835   3838   3839     1  0.0000000  0.6508444  3
   3837   3835   3838   3840     1  0.0000000  0.6508444  3
   3839   3838   3847   3856     1  0.0000000  1.0460000  1
   3839   3838   3847   3856     1  0.0000000  0.0000000  3
   3839   3838   3847   3848     1  0.0000000  0.6508444  3
   3839   3838   3847   3849     1  0.0000000  0.6508444  3
   3840   3838   3847   3856     1  0.0000000  1.0460000  1
   3840   3838   3847   3856     1  0.0000000  0.0000000  3
   3840   3838   3847   3848     1  0.0000000  0.6508444  3
   3840   3838   3847   3849     1  0.0000000  0.6508444  3
   3842   3841   3853   7675     1  0.0000000  1.0460000  1
   3842   3841   3853   7675     1  0.0000000  0.0000000  3
   3842   3841   3853   3854     1  0.0000000  0.6508444  3
   3842   3841   3853   3855     1  0.0000000  0.6508444  3
   3843   3841   3853   7675     1  0.0000000  1.0460000  1
   3843   3841   3853   7675     1  0.0000000  0.0000000  3
   3843   3841   3853   3854     1  0.0000000  0.6508444  3
   3843   3841   3853   3855     1  0.0000000  0.6508444  3
   3845   3844   3850   7652     1  0.0000000  1.0460000  1
   3845   3844   3850   7652     1  0.0000000  0.0000000  3
   3845   3844   3850   3851     1  0.0000000  0.6508444  3
   3845   3844   3850   3852     1  0.0000000  0.6508444  3
   3846   3844   3850   7652     1  0.0000000  1.0460000  1
   3846   3844   3850   7652     1  0.0000000  0.0000000  3
   3846   3844   3850   3851     1  0.0000000  0.6508444  3
   3846   3844   3850   3852     1  0.0000000  0.6508444  3
   3850   7652   7648   7651     1  0.0000000  1.6038667  3
   3851   3850   7652   7648     1  0.0000000  1.6038667  3
   3852   3850   7652   7648     1  0.0000000  1.6038667  3
   3853   7675   7671   7674     1  0.0000000  1.6038667  3
   3854   3853   7675   7671     1  0.0000000  1.6038667  3
   3855   3853   7675   7671     1  0.0000000  1.6038667  3
   3857   3858   3870   3871     1  0.0000000  0.6508444  3
   3857   3858   3870   3872     1  0.0000000  0.6508444  3
   3857   3861   3873   3874     1  0.0000000  0.6508444  3
   3857   3861   3873   3875     1  0.0000000  0.6508444  3
   3857   3864   3867   3868     1  0.0000000  0.6508444  3
   3857   3864   3867   3869     1  0.0000000  0.6508444  3
   3858   3857   3861   3862     1  0.0000000  1.2552000  3
   3858   3857   3861   3863     1  0.0000000  1.2552000  3
   3858   3857   3864   3865     1  0.0000000  1.2552000  3
   3858   3857   3864   3866     1  0.0000000  1.2552000  3
   3858   3870   3882   3883     1  0.0000000  0.6508444  3
   3858   3870   3882   3884     1  0.0000000  0.6508444  3
   3859   3858   3857   3861     1  0.0000000  1.2552000  3
   3859   3858   3857   3864     1  0.0000000  1.2552000  3
   3859   3858   3870   3882     1  0.0000000  0.6508444  3
   3859   3858   3870   3871     1  0.0000000  0.6508444  3
   3859   3858   3870   3872     1  0.0000000  0.6508444  3
   3860   3858   3857   3861     1  0.0000000  1.2552000  3
   3860   3858   3857   3864     1  0.0000000  1.2552000  3
   3860   3858   3870   3882     1  0.0000000  0.6508444  3
   3860   3858   3870   3871     1  0.0000000  0.6508444  3
   3860   3858   3870   3872     1  0.0000000  0.6508444  3
   3861   3857   3864   3865     1  0.0000000  1.2552000  3
   3861   3857   3864   3866     1  0.0000000  1.2552000  3
   3861   3873   3879   3880     1  0.0000000  0.6508444  3
   3861   3873   3879   3881     1  0.0000000  0.6508444  3
   3862   3861   3857   3864     1  0.0000000  1.2552000  3
   3862   3861   3873   3879     1  0.0000000  0.6508444  3
   3862   3861   3873   3874     1  0.0000000  0.6508444  3
   3862   3861   3873   3875     1  0.0000000  0.6508444  3
   3863   3861   3857   3864     1  0.0000000  1.2552000  3
   3863   3861   3873   3879     1  0.0000000  0.6508444  3
   3863   3861   3873   3874     1  0.0000000  0.6508444  3
   3863   3861   3873   3875     1  0.0000000  0.6508444  3
   3864   3867   3876   3877     1  0.0000000  0.6508444  3
   3864   3867   3876   3878     1  0.0000000  0.6508444  3
   3865   3864   3867   3876     1  0.0000000  0.6508444  3
   3865   3864   3867   3868     1  0.0000000  0.6508444  3
   3865   3864   3867   3869     1  0.0000000  0.6508444  3
   3866   3864   3867   3876     1  0.0000000  0.6508444  3
   3866   3864   3867   3868     1  0.0000000  0.6508444  3
   3866   3864   3867   3869     1  0.0000000  0.6508444  3
   3868   3867   3876   3885     1  0.0000000  1.0460000  1
   3868   3867   3876   3885     1  0.0000000  0.0000000  3
   3868   3867   3876   3877     1  0.0000000  0.6508444  3
   3868   3867   3876   3878     1  0.0000000  0.6508444  3
   3869   3867   3876   3885     1  0.0000000  1.0460000  1
   3869   3867   3876   3885     1  0.0000000  0.0000000  3
   3869   3867   3876   3877     1  0.0000000  0.6508444  3
   3869   3867   3876   3878     1  0.0000000  0.6508444  3
   3871   3870   3882   7721     1  0.0000000  1.0460000  1
   3871   3870   3882   7721     1  0.0000000  0.0000000  3
   3871   3870   3882   3883     1  0.0000000  0.6508444  3
   3871   3870   3882   3884     1  0.0000000  0.6508444  3
   3872   3870   3882   7721     1  0.0000000  1.0460000  1
   3872   3870   3882   7721     1  0.0000000  0.0000000  3
   3872   3870   3882   3883     1  0.0000000  0.6508444  3
   3872   3870   3882   3884     1  0.0000000  0.6508444  3
   3874   3873   3879   7698     1  0.0000000  1.0460000  1
   3874   3873   3879   7698     1  0.0000000  0.0000000  3
   3874   3873   3879   3880     1  0.0000000  0.6508444  3
   3874   3873   3879   3881     1  0.0000000  0.6508444  3
   3875   3873   3879   7698     1  0.0000000  1.0460000  1
   3875   3873   3879   7698     1  0.0000000  0.0000000  3
   3875   3873   3879   3880     1  0.0000000  0.6508444  3
   3875   3873   3879   3881     1  0.0000000  0.6508444  3
   3879   7698   7694   7697     1  0.0000000  1.6038667  3
   3880   3879   7698   7694     1  0.0000000  1.6038667  3
   3881   3879   7698   7694     1  0.0000000  1.6038667  3
   3882   7721   7717   7720     1  0.0000000  1.6038667  3
   3883   3882   7721   7717     1  0.0000000  1.6038667  3
   3884   3882   7721   7717     1  0.0000000  1.6038667  3
   3886   3887   3899   3900     1  0.0000000  0.6508444  3
   3886   3887   3899   3901     1  0.0000000  0.6508444  3
   3886   3890   3902   3903     1  0.0000000  0.6508444  3
   3886   3890   3902   3904     1  0.0000000  0.6508444  3
   3886   3893   3896   3897     1  0.0000000  0.6508444  3
   3886   3893   3896   3898     1  0.0000000  0.6508444  3
   3887   3886   3890   3891     1  0.0000000  1.2552000  3
   3887   3886   3890   3892     1  0.0000000  1.2552000  3
   3887   3886   3893   3894     1  0.0000000  1.2552000  3
   3887   3886   3893   3895     1  0.0000000  1.2552000  3
   3887   3899   3911   3912     1  0.0000000  0.6508444  3
   3887   3899   3911   3913     1  0.0000000  0.6508444  3
   3888   3887   3886   3890     1  0.0000000  1.2552000  3
   3888   3887   3886   3893     1  0.0000000  1.2552000  3
   3888   3887   3899   3911     1  0.0000000  0.6508444  3
   3888   3887   3899   3900     1  0.0000000  0.6508444  3
   3888   3887   3899   3901     1  0.0000000  0.6508444  3
   3889   3887   3886   3890     1  0.0000000  1.2552000  3
   3889   3887   3886   3893     1  0.0000000  1.2552000  3
   3889   3887   3899   3911     1  0.0000000  0.6508444  3
   3889   3887   3899   3900     1  0.0000000  0.6508444  3
   3889   3887   3899   3901     1  0.0000000  0.6508444  3
   3890   3886   3893   3894     1  0.0000000  1.2552000  3
   3890   3886   3893   3895     1  0.0000000  1.2552000  3
   3890   3902   3908   3909     1  0.0000000  0.6508444  3
   3890   3902   3908   3910     1  0.0000000  0.6508444  3
   3891   3890   3886   3893     1  0.0000000  1.2552000  3
   3891   3890   3902   3908     1  0.0000000  0.6508444  3
   3891   3890   3902   3903     1  0.0000000  0.6508444  3
   3891   3890   3902   3904     1  0.0000000  0.6508444  3
   3892   3890   3886   3893     1  0.0000000  1.2552000  3
   3892   3890   3902   3908     1  0.0000000  0.6508444  3
   3892   3890   3902   3903     1  0.0000000  0.6508444  3
   3892   3890   3902   3904     1  0.0000000  0.6508444  3
   3893   3896   3905   3906     1  0.0000000  0.6508444  3
   3893   3896   3905   3907     1  0.0000000  0.6508444  3
   3894   3893   3896   3905     1  0.0000000  0.6508444  3
   3894   3893   3896   3897     1  0.0000000  0.6508444  3
   3894   3893   3896   3898     1  0.0000000  0.6508444  3
   3895   3893   3896   3905     1  0.0000000  0.6508444  3
   3895   3893   3896   3897     1  0.0000000  0.6508444  3
   3895   3893   3896   3898     1  0.0000000  0.6508444  3
   3897   3896   3905   3914     1  0.0000000  1.0460000  1
   3897   3896   3905   3914     1  0.0000000  0.0000000  3
   3897   3896   3905   3906     1  0.0000000  0.6508444  3
   3897   3896   3905   3907     1  0.0000000  0.6508444  3
   3898   3896   3905   3914     1  0.0000000  1.0460000  1
   3898   3896   3905   3914     1  0.0000000  0.0000000  3
   3898   3896   3905   3906     1  0.0000000  0.6508444  3
   3898   3896   3905   3907     1  0.0000000  0.6508444  3
   3900   3899   3911   7767     1  0.0000000  1.0460000  1
   3900   3899   3911   7767     1  0.0000000  0.0000000  3
   3900   3899   3911   3912     1  0.0000000  0.6508444  3
   3900   3899   3911   3913     1  0.0000000  0.6508444  3
   3901   3899   3911   7767     1  0.0000000  1.0460000  1
   3901   3899   3911   7767     1  0.0000000  0.0000000  3
   3901   3899   3911   3912     1  0.0000000  0.6508444  3
   3901   3899   3911   3913     1  0.0000000  0.6508444  3
   3903   3902   3908   7744     1  0.0000000  1.0460000  1
   3903   3902   3908   7744     1  0.0000000  0.0000000  3
   3903   3902   3908   3909     1  0.0000000  0.6508444  3
   3903   3902   3908   3910     1  0.0000000  0.6508444  3
   3904   3902   3908   7744     1  0.0000000  1.0460000  1
   3904   3902   3908   7744     1  0.0000000  0.0000000  3
   3904   3902   3908   3909     1  0.0000000  0.6508444  3
   3904   3902   3908   3910     1  0.0000000  0.6508444  3
   3908   7744   7740   7743     1  0.0000000  1.6038667  3
   3909   3908   7744   7740     1  0.0000000  1.6038667  3
   3910   3908   7744   7740     1  0.0000000  1.6038667  3
   3911   7767   7763   7766     1  0.0000000  1.6038667  3
   3912   3911   7767   7763     1  0.0000000  1.6038667  3
   3913   3911   7767   7763     1  0.0000000  1.6038667  3
   3915   3916   3928   3929     1  0.0000000  0.6508444  3
   3915   3916   3928   3930     1  0.0000000  0.6508444  3
   3915   3919   3931   3932     1  0.0000000  0.6508444  3
   3915   3919   3931   3933     1  0.0000000  0.6508444  3
   3915   3922   3925   3926     1  0.0000000  0.6508444  3
   3915   3922   3925   3927     1  0.0000000  0.6508444  3
   3916   3915   3919   3920     1  0.0000000  1.2552000  3
   3916   3915   3919   3921     1  0.0000000  1.2552000  3
   3916   3915   3922   3923     1  0.0000000  1.2552000  3
   3916   3915   3922   3924     1  0.0000000  1.2552000  3
   3916   3928   3940   3941     1  0.0000000  0.6508444  3
   3916   3928   3940   3942     1  0.0000000  0.6508444  3
   3917   3916   3915   3919     1  0.0000000  1.2552000  3
   3917   3916   3915   3922     1  0.0000000  1.2552000  3
   3917   3916   3928   3940     1  0.0000000  0.6508444  3
   3917   3916   3928   3929     1  0.0000000  0.6508444  3
   3917   3916   3928   3930     1  0.0000000  0.6508444  3
   3918   3916   3915   3919     1  0.0000000  1.2552000  3
   3918   3916   3915   3922     1  0.0000000  1.2552000  3
   3918   3916   3928   3940     1  0.0000000  0.6508444  3
   3918   3916   3928   3929     1  0.0000000  0.6508444  3
   3918   3916   3928   3930     1  0.0000000  0.6508444  3
   3919   3915   3922   3923     1  0.0000000  1.2552000  3
   3919   3915   3922   3924     1  0.0000000  1.2552000  3
   3919   3931   3937   3938     1  0.0000000  0.6508444  3
   3919   3931   3937   3939     1  0.0000000  0.6508444  3
   3920   3919   3915   3922     1  0.0000000  1.2552000  3
   3920   3919   3931   3937     1  0.0000000  0.6508444  3
   3920   3919   3931   3932     1  0.0000000  0.6508444  3
   3920   3919   3931   3933     1  0.0000000  0.6508444  3
   3921   3919   3915   3922     1  0.0000000  1.2552000  3
   3921   3919   3931   3937     1  0.0000000  0.6508444  3
   3921   3919   3931   3932     1  0.0000000  0.6508444  3
   3921   3919   3931   3933     1  0.0000000  0.6508444  3
   3922   3925   3934   3935     1  0.0000000  0.6508444  3
   3922   3925   3934   3936     1  0.0000000  0.6508444  3
   3923   3922   3925   3934     1  0.0000000  0.6508444  3
   3923   3922   3925   3926     1  0.0000000  0.6508444  3
   3923   3922   3925   3927     1  0.0000000  0.6508444  3
   3924   3922   3925   3934     1  0.0000000  0.6508444  3
   3924   3922   3925   3926     1  0.0000000  0.6508444  3
   3924   3922   3925   3927     1  0.0000000  0.6508444  3
   3926   3925   3934   3943     1  0.0000000  1.0460000  1
   3926   3925   3934   3943     1  0.0000000  0.0000000  3
   3926   3925   3934   3935     1  0.0000000  0.6508444  3
   3926   3925   3934   3936     1  0.0000000  0.6508444  3
   3927   3925   3934   3943     1  0.0000000  1.0460000  1
   3927   3925   3934   3943     1  0.0000000  0.0000000  3
   3927   3925   3934   3935     1  0.0000000  0.6508444  3
   3927   3925   3934   3936     1  0.0000000  0.6508444  3
   3929   3928   3940   7813     1  0.0000000  1.0460000  1
   3929   3928   3940   7813     1  0.0000000  0.0000000  3
   3929   3928   3940   3941     1  0.0000000  0.6508444  3
   3929   3928   3940   3942     1  0.0000000  0.6508444  3
   3930   3928   3940   7813     1  0.0000000  1.0460000  1
   3930   3928   3940   7813     1  0.0000000  0.0000000  3
   3930   3928   3940   3941     1  0.0000000  0.6508444  3
   3930   3928   3940   3942     1  0.0000000  0.6508444  3
   3932   3931   3937   7790     1  0.0000000  1.0460000  1
   3932   3931   3937   7790     1  0.0000000  0.0000000  3
   3932   3931   3937   3938     1  0.0000000  0.6508444  3
   3932   3931   3937   3939     1  0.0000000  0.6508444  3
   3933   3931   3937   7790     1  0.0000000  1.0460000  1
   3933   3931   3937   7790     1  0.0000000  0.0000000  3
   3933   3931   3937   3938     1  0.0000000  0.6508444  3
   3933   3931   3937   3939     1  0.0000000  0.6508444  3
   3937   7790   7786   7789     1  0.0000000  1.6038667  3
   3938   3937   7790   7786     1  0.0000000  1.6038667  3
   3939   3937   7790   7786     1  0.0000000  1.6038667  3
   3940   7813   7809   7812     1  0.0000000  1.6038667  3
   3941   3940   7813   7809     1  0.0000000  1.6038667  3
   3942   3940   7813   7809     1  0.0000000  1.6038667  3
   3944   3945   3957   3958     1  0.0000000  0.6508444  3
   3944   3945   3957   3959     1  0.0000000  0.6508444  3
   3944   3948   3960   3961     1  0.0000000  0.6508444  3
   3944   3948   3960   3962     1  0.0000000  0.6508444  3
   3944   3951   3954   3955     1  0.0000000  0.6508444  3
   3944   3951   3954   3956     1  0.0000000  0.6508444  3
   3945   3944   3948   3949     1  0.0000000  1.2552000  3
   3945   3944   3948   3950     1  0.0000000  1.2552000  3
   3945   3944   3951   3952     1  0.0000000  1.2552000  3
   3945   3944   3951   3953     1  0.0000000  1.2552000  3
   3945   3957   3969   3970     1  0.0000000  0.6508444  3
   3945   3957   3969   3971     1  0.0000000  0.6508444  3
   3946   3945   3944   3948     1  0.0000000  1.2552000  3
   3946   3945   3944   3951     1  0.0000000  1.2552000  3
   3946   3945   3957   3969     1  0.0000000  0.6508444  3
   3946   3945   3957   3958     1  0.0000000  0.6508444  3
   3946   3945   3957   3959     1  0.0000000  0.6508444  3
   3947   3945   3944   3948     1  0.0000000  1.2552000  3
   3947   3945   3944   3951     1  0.0000000  1.2552000  3
   3947   3945   3957   3969     1  0.0000000  0.6508444  3
   3947   3945   3957   3958     1  0.0000000  0.6508444  3
   3947   3945   3957   3959     1  0.0000000  0.6508444  3
   3948   3944   3951   3952     1  0.0000000  1.2552000  3
   3948   3944   3951   3953     1  0.0000000  1.2552000  3
   3948   3960   3966   3967     1  0.0000000  0.6508444  3
   3948   3960   3966   3968     1  0.0000000  0.6508444  3
   3949   3948   3944   3951     1  0.0000000  1.2552000  3
   3949   3948   3960   3966     1  0.0000000  0.6508444  3
   3949   3948   3960   3961     1  0.0000000  0.6508444  3
   3949   3948   3960   3962     1  0.0000000  0.6508444  3
   3950   3948   3944   3951     1  0.0000000  1.2552000  3
   3950   3948   3960   3966     1  0.0000000  0.6508444  3
   3950   3948   3960   3961     1  0.0000000  0.6508444  3
   3950   3948   3960   3962     1  0.0000000  0.6508444  3
   3951   3954   3963   3964     1  0.0000000  0.6508444  3
   3951   3954   3963   3965     1  0.0000000  0.6508444  3
   3952   3951   3954   3963     1  0.0000000  0.6508444  3
   3952   3951   3954   3955     1  0.0000000  0.6508444  3
   3952   3951   3954   3956     1  0.0000000  0.6508444  3
   3953   3951   3954   3963     1  0.0000000  0.6508444  3
   3953   3951   3954   3955     1  0.0000000  0.6508444  3
   3953   3951   3954   3956     1  0.0000000  0.6508444  3
   3955   3954   3963   3972     1  0.0000000  1.0460000  1
   3955   3954   3963   3972     1  0.0000000  0.0000000  3
   3955   3954   3963   3964     1  0.0000000  0.6508444  3
   3955   3954   3963   3965     1  0.0000000  0.6508444  3
   3956   3954   3963   3972     1  0.0000000  1.0460000  1
   3956   3954   3963   3972     1  0.0000000  0.0000000  3
   3956   3954   3963   3964     1  0.0000000  0.6508444  3
   3956   3954   3963   3965     1  0.0000000  0.6508444  3
   3958   3957   3969   7859     1  0.0000000  1.0460000  1
   3958   3957   3969   7859     1  0.0000000  0.0000000  3
   3958   3957   3969   3970     1  0.0000000  0.6508444  3
   3958   3957   3969   3971     1  0.0000000  0.6508444  3
   3959   3957   3969   7859     1  0.0000000  1.0460000  1
   3959   3957   3969   7859     1  0.0000000  0.0000000  3
   3959   3957   3969   3970     1  0.0000000  0.6508444  3
   3959   3957   3969   3971     1  0.0000000  0.6508444  3
   3961   3960   3966   7836     1  0.0000000  1.0460000  1
   3961   3960   3966   7836     1  0.0000000  0.0000000  3
   3961   3960   3966   3967     1  0.0000000  0.6508444  3
   3961   3960   3966   3968     1  0.0000000  0.6508444  3
   3962   3960   3966   7836     1  0.0000000  1.0460000  1
   3962   3960   3966   7836     1  0.0000000  0.0000000  3
   3962   3960   3966   3967     1  0.0000000  0.6508444  3
   3962   3960   3966   3968     1  0.0000000  0.6508444  3
   3966   7836   7832   7835     1  0.0000000  1.6038667  3
   3967   3966   7836   7832     1  0.0000000  1.6038667  3
   3968   3966   7836   7832     1  0.0000000  1.6038667  3
   3969   7859   7855   7858     1  0.0000000  1.6038667  3
   3970   3969   7859   7855     1  0.0000000  1.6038667  3
   3971   3969   7859   7855     1  0.0000000  1.6038667  3
   3973   3974   3986   3987     1  0.0000000  0.6508444  3
   3973   3974   3986   3988     1  0.0000000  0.6508444  3
   3973   3977   3989   3990     1  0.0000000  0.6508444  3
   3973   3977   3989   3991     1  0.0000000  0.6508444  3
   3973   3980   3983   3984     1  0.0000000  0.6508444  3
   3973   3980   3983   3985     1  0.0000000  0.6508444  3
   3974   3973   3977   3978     1  0.0000000  1.2552000  3
   3974   3973   3977   3979     1  0.0000000  1.2552000  3
   3974   3973   3980   3981     1  0.0000000  1.2552000  3
   3974   3973   3980   3982     1  0.0000000  1.2552000  3
   3974   3986   3998   3999     1  0.0000000  0.6508444  3
   3974   3986   3998   4000     1  0.0000000  0.6508444  3
   3975   3974   3973   3977     1  0.0000000  1.2552000  3
   3975   3974   3973   3980     1  0.0000000  1.2552000  3
   3975   3974   3986   3998     1  0.0000000  0.6508444  3
   3975   3974   3986   3987     1  0.0000000  0.6508444  3
   3975   3974   3986   3988     1  0.0000000  0.6508444  3
   3976   3974   3973   3977     1  0.0000000  1.2552000  3
   3976   3974   3973   3980     1  0.0000000  1.2552000  3
   3976   3974   3986   3998     1  0.0000000  0.6508444  3
   3976   3974   3986   3987     1  0.0000000  0.6508444  3
   3976   3974   3986   3988     1  0.0000000  0.6508444  3
   3977   3973   3980   3981     1  0.0000000  1.2552000  3
   3977   3973   3980   3982     1  0.0000000  1.2552000  3
   3977   3989   3995   3996     1  0.0000000  0.6508444  3
   3977   3989   3995   3997     1  0.0000000  0.6508444  3
   3978   3977   3973   3980     1  0.0000000  1.2552000  3
   3978   3977   3989   3995     1  0.0000000  0.6508444  3
   3978   3977   3989   3990     1  0.0000000  0.6508444  3
   3978   3977   3989   3991     1  0.0000000  0.6508444  3
   3979   3977   3973   3980     1  0.0000000  1.2552000  3
   3979   3977   3989   3995     1  0.0000000  0.6508444  3
   3979   3977   3989   3990     1  0.0000000  0.6508444  3
   3979   3977   3989   3991     1  0.0000000  0.6508444  3
   3980   3983   3992   3993     1  0.0000000  0.6508444  3
   3980   3983   3992   3994     1  0.0000000  0.6508444  3
   3981   3980   3983   3992     1  0.0000000  0.6508444  3
   3981   3980   3983   3984     1  0.0000000  0.6508444  3
   3981   3980   3983   3985     1  0.0000000  0.6508444  3
   3982   3980   3983   3992     1  0.0000000  0.6508444  3
   3982   3980   3983   3984     1  0.0000000  0.6508444  3
   3982   3980   3983   3985     1  0.0000000  0.6508444  3
   3984   3983   3992   4001     1  0.0000000  1.0460000  1
   3984   3983   3992   4001     1  0.0000000  0.0000000  3
   3984   3983   3992   3993     1  0.0000000  0.6508444  3
   3984   3983   3992   3994     1  0.0000000  0.6508444  3
   3985   3983   3992   4001     1  0.0000000  1.0460000  1
   3985   3983   3992   4001     1  0.0000000  0.0000000  3
   3985   3983   3992   3993     1  0.0000000  0.6508444  3
   3985   3983   3992   3994     1  0.0000000  0.6508444  3
   3987   3986   3998   7905     1  0.0000000  1.0460000  1
   3987   3986   3998   7905     1  0.0000000  0.0000000  3
   3987   3986   3998   3999     1  0.0000000  0.6508444  3
   3987   3986   3998   4000     1  0.0000000  0.6508444  3
   3988   3986   3998   7905     1  0.0000000  1.0460000  1
   3988   3986   3998   7905     1  0.0000000  0.0000000  3
   3988   3986   3998   3999     1  0.0000000  0.6508444  3
   3988   3986   3998   4000     1  0.0000000  0.6508444  3
   3990   3989   3995   7882     1  0.0000000  1.0460000  1
   3990   3989   3995   7882     1  0.0000000  0.0000000  3
   3990   3989   3995   3996     1  0.0000000  0.6508444  3
   3990   3989   3995   3997     1  0.0000000  0.6508444  3
   3991   3989   3995   7882     1  0.0000000  1.0460000  1
   3991   3989   3995   7882     1  0.0000000  0.0000000  3
   3991   3989   3995   3996     1  0.0000000  0.6508444  3
   3991   3989   3995   3997     1  0.0000000  0.6508444  3
   3995   7882   7878   7881     1  0.0000000  1.6038667  3
   3996   3995   7882   7878     1  0.0000000  1.6038667  3
   3997   3995   7882   7878     1  0.0000000  1.6038667  3
   3998   7905   7901   7904     1  0.0000000  1.6038667  3
   3999   3998   7905   7901     1  0.0000000  1.6038667  3
   4000   3998   7905   7901     1  0.0000000  1.6038667  3
   4002   4003   4015   4016     1  0.0000000  0.6508444  3
   4002   4003   4015   4017     1  0.0000000  0.6508444  3
   4002   4006   4018   4019     1  0.0000000  0.6508444  3
   4002   4006   4018   4020     1  0.0000000  0.6508444  3
   4002   4009   4012   4013     1  0.0000000  0.6508444  3
   4002   4009   4012   4014     1  0.0000000  0.6508444  3
   4003   4002   4006   4007     1  0.0000000  1.2552000  3
   4003   4002   4006   4008     1  0.0000000  1.2552000  3
   4003   4002   4009   4010     1  0.0000000  1.2552000  3
   4003   4002   4009   4011     1  0.0000000  1.2552000  3
   4003   4015   4027   4028     1  0.0000000  0.6508444  3
   4003   4015   4027   4029     1  0.0000000  0.6508444  3
   4004   4003   4002   4006     1  0.0000000  1.2552000  3
   4004   4003   4002   4009     1  0.0000000  1.2552000  3
   4004   4003   4015   4027     1  0.0000000  0.6508444  3
   4004   4003   4015   4016     1  0.0000000  0.6508444  3
   4004   4003   4015   4017     1  0.0000000  0.6508444  3
   4005   4003   4002   4006     1  0.0000000  1.2552000  3
   4005   4003   4002   4009     1  0.0000000  1.2552000  3
   4005   4003   4015   4027     1  0.0000000  0.6508444  3
   4005   4003   4015   4016     1  0.0000000  0.6508444  3
   4005   4003   4015   4017     1  0.0000000  0.6508444  3
   4006   4002   4009   4010     1  0.0000000  1.2552000  3
   4006   4002   4009   4011     1  0.0000000  1.2552000  3
   4006   4018   4024   4025     1  0.0000000  0.6508444  3
   4006   4018   4024   4026     1  0.0000000  0.6508444  3
   4007   4006   4002   4009     1  0.0000000  1.2552000  3
   4007   4006   4018   4024     1  0.0000000  0.6508444  3
   4007   4006   4018   4019     1  0.0000000  0.6508444  3
   4007   4006   4018   4020     1  0.0000000  0.6508444  3
   4008   4006   4002   4009     1  0.0000000  1.2552000  3
   4008   4006   4018   4024     1  0.0000000  0.6508444  3
   4008   4006   4018   4019     1  0.0000000  0.6508444  3
   4008   4006   4018   4020     1  0.0000000  0.6508444  3
   4009   4012   4021   4022     1  0.0000000  0.6508444  3
   4009   4012   4021   4023     1  0.0000000  0.6508444  3
   4010   4009   4012   4021     1  0.0000000  0.6508444  3
   4010   4009   4012   4013     1  0.0000000  0.6508444  3
   4010   4009   4012   4014     1  0.0000000  0.6508444  3
   4011   4009   4012   4021     1  0.0000000  0.6508444  3
   4011   4009   4012   4013     1  0.0000000  0.6508444  3
   4011   4009   4012   4014     1  0.0000000  0.6508444  3
   4013   4012   4021   4030     1  0.0000000  1.0460000  1
   4013   4012   4021   4030     1  0.0000000  0.0000000  3
   4013   4012   4021   4022     1  0.0000000  0.6508444  3
   4013   4012   4021   4023     1  0.0000000  0.6508444  3
   4014   4012   4021   4030     1  0.0000000  1.0460000  1
   4014   4012   4021   4030     1  0.0000000  0.0000000  3
   4014   4012   4021   4022     1  0.0000000  0.6508444  3
   4014   4012   4021   4023     1  0.0000000  0.6508444  3
   4016   4015   4027   7951     1  0.0000000  1.0460000  1
   4016   4015   4027   7951     1  0.0000000  0.0000000  3
   4016   4015   4027   4028     1  0.0000000  0.6508444  3
   4016   4015   4027   4029     1  0.0000000  0.6508444  3
   4017   4015   4027   7951     1  0.0000000  1.0460000  1
   4017   4015   4027   7951     1  0.0000000  0.0000000  3
   4017   4015   4027   4028     1  0.0000000  0.6508444  3
   4017   4015   4027   4029     1  0.0000000  0.6508444  3
   4019   4018   4024   7928     1  0.0000000  1.0460000  1
   4019   4018   4024   7928     1  0.0000000  0.0000000  3
   4019   4018   4024   4025     1  0.0000000  0.6508444  3
   4019   4018   4024   4026     1  0.0000000  0.6508444  3
   4020   4018   4024   7928     1  0.0000000  1.0460000  1
   4020   4018   4024   7928     1  0.0000000  0.0000000  3
   4020   4018   4024   4025     1  0.0000000  0.6508444  3
   4020   4018   4024   4026     1  0.0000000  0.6508444  3
   4024   7928   7924   7927     1  0.0000000  1.6038667  3
   4025   4024   7928   7924     1  0.0000000  1.6038667  3
   4026   4024   7928   7924     1  0.0000000  1.6038667  3
   4027   7951   7947   7950     1  0.0000000  1.6038667  3
   4028   4027   7951   7947     1  0.0000000  1.6038667  3
   4029   4027   7951   7947     1  0.0000000  1.6038667  3
   4031   4032   4044   4045     1  0.0000000  0.6508444  3
   4031   4032   4044   4046     1  0.0000000  0.6508444  3
   4031   4035   4047   4048     1  0.0000000  0.6508444  3
   4031   4035   4047   4049     1  0.0000000  0.6508444  3
   4031   4038   4041   4042     1  0.0000000  0.6508444  3
   4031   4038   4041   4043     1  0.0000000  0.6508444  3
   4032   4031   4035   4036     1  0.0000000  1.2552000  3
   4032   4031   4035   4037     1  0.0000000  1.2552000  3
   4032   4031   4038   4039     1  0.0000000  1.2552000  3
   4032   4031   4038   4040     1  0.0000000  1.2552000  3
   4032   4044   4056   4057     1  0.0000000  0.6508444  3
   4032   4044   4056   4058     1  0.0000000  0.6508444  3
   4033   4032   4031   4035     1  0.0000000  1.2552000  3
   4033   4032   4031   4038     1  0.0000000  1.2552000  3
   4033   4032   4044   4056     1  0.0000000  0.6508444  3
   4033   4032   4044   4045     1  0.0000000  0.6508444  3
   4033   4032   4044   4046     1  0.0000000  0.6508444  3
   4034   4032   4031   4035     1  0.0000000  1.2552000  3
   4034   4032   4031   4038     1  0.0000000  1.2552000  3
   4034   4032   4044   4056     1  0.0000000  0.6508444  3
   4034   4032   4044   4045     1  0.0000000  0.6508444  3
   4034   4032   4044   4046     1  0.0000000  0.6508444  3
   4035   4031   4038   4039     1  0.0000000  1.2552000  3
   4035   4031   4038   4040     1  0.0000000  1.2552000  3
   4035   4047   4053   4054     1  0.0000000  0.6508444  3
   4035   4047   4053   4055     1  0.0000000  0.6508444  3
   4036   4035   4031   4038     1  0.0000000  1.2552000  3
   4036   4035   4047   4053     1  0.0000000  0.6508444  3
   4036   4035   4047   4048     1  0.0000000  0.6508444  3
   4036   4035   4047   4049     1  0.0000000  0.6508444  3
   4037   4035   4031   4038     1  0.0000000  1.2552000  3
   4037   4035   4047   4053     1  0.0000000  0.6508444  3
   4037   4035   4047   4048     1  0.0000000  0.6508444  3
   4037   4035   4047   4049     1  0.0000000  0.6508444  3
   4038   4041   4050   4051     1  0.0000000  0.6508444  3
   4038   4041   4050   4052     1  0.0000000  0.6508444  3
   4039   4038   4041   4050     1  0.0000000  0.6508444  3
   4039   4038   4041   4042     1  0.0000000  0.6508444  3
   4039   4038   4041   4043     1  0.0000000  0.6508444  3
   4040   4038   4041   4050     1  0.0000000  0.6508444  3
   4040   4038   4041   4042     1  0.0000000  0.6508444  3
   4040   4038   4041   4043     1  0.0000000  0.6508444  3
   4042   4041   4050   4059     1  0.0000000  1.0460000  1
   4042   4041   4050   4059     1  0.0000000  0.0000000  3
   4042   4041   4050   4051     1  0.0000000  0.6508444  3
   4042   4041   4050   4052     1  0.0000000  0.6508444  3
   4043   4041   4050   4059     1  0.0000000  1.0460000  1
   4043   4041   4050   4059     1  0.0000000  0.0000000  3
   4043   4041   4050   4051     1  0.0000000  0.6508444  3
   4043   4041   4050   4052     1  0.0000000  0.6508444  3
   4045   4044   4056   7997     1  0.0000000  1.0460000  1
   4045   4044   4056   7997     1  0.0000000  0.0000000  3
   4045   4044   4056   4057     1  0.0000000  0.6508444  3
   4045   4044   4056   4058     1  0.0000000  0.6508444  3
   4046   4044   4056   7997     1  0.0000000  1.0460000  1
   4046   4044   4056   7997     1  0.0000000  0.0000000  3
   4046   4044   4056   4057     1  0.0000000  0.6508444  3
   4046   4044   4056   4058     1  0.0000000  0.6508444  3
   4048   4047   4053   7974     1  0.0000000  1.0460000  1
   4048   4047   4053   7974     1  0.0000000  0.0000000  3
   4048   4047   4053   4054     1  0.0000000  0.6508444  3
   4048   4047   4053   4055     1  0.0000000  0.6508444  3
   4049   4047   4053   7974     1  0.0000000  1.0460000  1
   4049   4047   4053   7974     1  0.0000000  0.0000000  3
   4049   4047   4053   4054     1  0.0000000  0.6508444  3
   4049   4047   4053   4055     1  0.0000000  0.6508444  3
   4053   7974   7970   7973     1  0.0000000  1.6038667  3
   4054   4053   7974   7970     1  0.0000000  1.6038667  3
   4055   4053   7974   7970     1  0.0000000  1.6038667  3
   4056   7997   7993   7996     1  0.0000000  1.6038667  3
   4057   4056   7997   7993     1  0.0000000  1.6038667  3
   4058   4056   7997   7993     1  0.0000000  1.6038667  3
   4060   4061   4073   4074     1  0.0000000  0.6508444  3
   4060   4061   4073   4075     1  0.0000000  0.6508444  3
   4060   4064   4076   4077     1  0.0000000  0.6508444  3
   4060   4064   4076   4078     1  0.0000000  0.6508444  3
   4060   4067   4070   4071     1  0.0000000  0.6508444  3
   4060   4067   4070   4072     1  0.0000000  0.6508444  3
   4061   4060   4064   4065     1  0.0000000  1.2552000  3
   4061   4060   4064   4066     1  0.0000000  1.2552000  3
   4061   4060   4067   4068     1  0.0000000  1.2552000  3
   4061   4060   4067   4069     1  0.0000000  1.2552000  3
   4061   4073   4085   4086     1  0.0000000  0.6508444  3
   4061   4073   4085   4087     1  0.0000000  0.6508444  3
   4062   4061   4060   4064     1  0.0000000  1.2552000  3
   4062   4061   4060   4067     1  0.0000000  1.2552000  3
   4062   4061   4073   4085     1  0.0000000  0.6508444  3
   4062   4061   4073   4074     1  0.0000000  0.6508444  3
   4062   4061   4073   4075     1  0.0000000  0.6508444  3
   4063   4061   4060   4064     1  0.0000000  1.2552000  3
   4063   4061   4060   4067     1  0.0000000  1.2552000  3
   4063   4061   4073   4085     1  0.0000000  0.6508444  3
   4063   4061   4073   4074     1  0.0000000  0.6508444  3
   4063   4061   4073   4075     1  0.0000000  0.6508444  3
   4064   4060   4067   4068     1  0.0000000  1.2552000  3
   4064   4060   4067   4069     1  0.0000000  1.2552000  3
   4064   4076   4082   4083     1  0.0000000  0.6508444  3
   4064   4076   4082   4084     1  0.0000000  0.6508444  3
   4065   4064   4060   4067     1  0.0000000  1.2552000  3
   4065   4064   4076   4082     1  0.0000000  0.6508444  3
   4065   4064   4076   4077     1  0.0000000  0.6508444  3
   4065   4064   4076   4078     1  0.0000000  0.6508444  3
   4066   4064   4060   4067     1  0.0000000  1.2552000  3
   4066   4064   4076   4082     1  0.0000000  0.6508444  3
   4066   4064   4076   4077     1  0.0000000  0.6508444  3
   4066   4064   4076   4078     1  0.0000000  0.6508444  3
   4067   4070   4079   4080     1  0.0000000  0.6508444  3
   4067   4070   4079   4081     1  0.0000000  0.6508444  3
   4068   4067   4070   4079     1  0.0000000  0.6508444  3
   4068   4067   4070   4071     1  0.0000000  0.6508444  3
   4068   4067   4070   4072     1  0.0000000  0.6508444  3
   4069   4067   4070   4079     1  0.0000000  0.6508444  3
   4069   4067   4070   4071     1  0.0000000  0.6508444  3
   4069   4067   4070   4072     1  0.0000000  0.6508444  3
   4071   4070   4079   4088     1  0.0000000  1.0460000  1
   4071   4070   4079   4088     1  0.0000000  0.0000000  3
   4071   4070   4079   4080     1  0.0000000  0.6508444  3
   4071   4070   4079   4081     1  0.0000000  0.6508444  3
   4072   4070   4079   4088     1  0.0000000  1.0460000  1
   4072   4070   4079   4088     1  0.0000000  0.0000000  3
   4072   4070   4079   4080     1  0.0000000  0.6508444  3
   4072   4070   4079   4081     1  0.0000000  0.6508444  3
   4074   4073   4085   8043     1  0.0000000  1.0460000  1
   4074   4073   4085   8043     1  0.0000000  0.0000000  3
   4074   4073   4085   4086     1  0.0000000  0.6508444  3
   4074   4073   4085   4087     1  0.0000000  0.6508444  3
   4075   4073   4085   8043     1  0.0000000  1.0460000  1
   4075   4073   4085   8043     1  0.0000000  0.0000000  3
   4075   4073   4085   4086     1  0.0000000  0.6508444  3
   4075   4073   4085   4087     1  0.0000000  0.6508444  3
   4077   4076   4082   8020     1  0.0000000  1.0460000  1
   4077   4076   4082   8020     1  0.0000000  0.0000000  3
   4077   4076   4082   4083     1  0.0000000  0.6508444  3
   4077   4076   4082   4084     1  0.0000000  0.6508444  3
   4078   4076   4082   8020     1  0.0000000  1.0460000  1
   4078   4076   4082   8020     1  0.0000000  0.0000000  3
   4078   4076   4082   4083     1  0.0000000  0.6508444  3
   4078   4076   4082   4084     1  0.0000000  0.6508444  3
   4082   8020   8016   8019     1  0.0000000  1.6038667  3
   4083   4082   8020   8016     1  0.0000000  1.6038667  3
   4084   4082   8020   8016     1  0.0000000  1.6038667  3
   4085   8043   8039   8042     1  0.0000000  1.6038667  3
   4086   4085   8043   8039     1  0.0000000  1.6038667  3
   4087   4085   8043   8039     1  0.0000000  1.6038667  3
   4089   4090   4102   4103     1  0.0000000  0.6508444  3
   4089   4090   4102   4104     1  0.0000000  0.6508444  3
   4089   4093   4105   4106     1  0.0000000  0.6508444  3
   4089   4093   4105   4107     1  0.0000000  0.6508444  3
   4089   4096   4099   4100     1  0.0000000  0.6508444  3
   4089   4096   4099   4101     1  0.0000000  0.6508444  3
   4090   4089   4093   4094     1  0.0000000  1.2552000  3
   4090   4089   4093   4095     1  0.0000000  1.2552000  3
   4090   4089   4096   4097     1  0.0000000  1.2552000  3
   4090   4089   4096   4098     1  0.0000000  1.2552000  3
   4090   4102   4114   4115     1  0.0000000  0.6508444  3
   4090   4102   4114   4116     1  0.0000000  0.6508444  3
   4091   4090   4089   4093     1  0.0000000  1.2552000  3
   4091   4090   4089   4096     1  0.0000000  1.2552000  3
   4091   4090   4102   4114     1  0.0000000  0.6508444  3
   4091   4090   4102   4103     1  0.0000000  0.6508444  3
   4091   4090   4102   4104     1  0.0000000  0.6508444  3
   4092   4090   4089   4093     1  0.0000000  1.2552000  3
   4092   4090   4089   4096     1  0.0000000  1.2552000  3
   4092   4090   4102   4114     1  0.0000000  0.6508444  3
   4092   4090   4102   4103     1  0.0000000  0.6508444  3
   4092   4090   4102   4104     1  0.0000000  0.6508444  3
   4093   4089   4096   4097     1  0.0000000  1.2552000  3
   4093   4089   4096   4098     1  0.0000000  1.2552000  3
   4093   4105   4111   4112     1  0.0000000  0.6508444  3
   4093   4105   4111   4113     1  0.0000000  0.6508444  3
   4094   4093   4089   4096     1  0.0000000  1.2552000  3
   4094   4093   4105   4111     1  0.0000000  0.6508444  3
   4094   4093   4105   4106     1  0.0000000  0.6508444  3
   4094   4093   4105   4107     1  0.0000000  0.6508444  3
   4095   4093   4089   4096     1  0.0000000  1.2552000  3
   4095   4093   4105   4111     1  0.0000000  0.6508444  3
   4095   4093   4105   4106     1  0.0000000  0.6508444  3
   4095   4093   4105   4107     1  0.0000000  0.6508444  3
   4096   4099   4108   4109     1  0.0000000  0.6508444  3
   4096   4099   4108   4110     1  0.0000000  0.6508444  3
   4097   4096   4099   4108     1  0.0000000  0.6508444  3
   4097   4096   4099   4100     1  0.0000000  0.6508444  3
   4097   4096   4099   4101     1  0.0000000  0.6508444  3
   4098   4096   4099   4108     1  0.0000000  0.6508444  3
   4098   4096   4099   4100     1  0.0000000  0.6508444  3
   4098   4096   4099   4101     1  0.0000000  0.6508444  3
   4100   4099   4108   4117     1  0.0000000  1.0460000  1
   4100   4099   4108   4117     1  0.0000000  0.0000000  3
   4100   4099   4108   4109     1  0.0000000  0.6508444  3
   4100   4099   4108   4110     1  0.0000000  0.6508444  3
   4101   4099   4108   4117     1  0.0000000  1.0460000  1
   4101   4099   4108   4117     1  0.0000000  0.0000000  3
   4101   4099   4108   4109     1  0.0000000  0.6508444  3
   4101   4099   4108   4110     1  0.0000000  0.6508444  3
   4103   4102   4114   8089     1  0.0000000  1.0460000  1
   4103   4102   4114   8089     1  0.0000000  0.0000000  3
   4103   4102   4114   4115     1  0.0000000  0.6508444  3
   4103   4102   4114   4116     1  0.0000000  0.6508444  3
   4104   4102   4114   8089     1  0.0000000  1.0460000  1
   4104   4102   4114   8089     1  0.0000000  0.0000000  3
   4104   4102   4114   4115     1  0.0000000  0.6508444  3
   4104   4102   4114   4116     1  0.0000000  0.6508444  3
   4106   4105   4111   8066     1  0.0000000  1.0460000  1
   4106   4105   4111   8066     1  0.0000000  0.0000000  3
   4106   4105   4111   4112     1  0.0000000  0.6508444  3
   4106   4105   4111   4113     1  0.0000000  0.6508444  3
   4107   4105   4111   8066     1  0.0000000  1.0460000  1
   4107   4105   4111   8066     1  0.0000000  0.0000000  3
   4107   4105   4111   4112     1  0.0000000  0.6508444  3
   4107   4105   4111   4113     1  0.0000000  0.6508444  3
   4111   8066   8062   8065     1  0.0000000  1.6038667  3
   4112   4111   8066   8062     1  0.0000000  1.6038667  3
   4113   4111   8066   8062     1  0.0000000  1.6038667  3
   4114   8089   8085   8088     1  0.0000000  1.6038667  3
   4115   4114   8089   8085     1  0.0000000  1.6038667  3
   4116   4114   8089   8085     1  0.0000000  1.6038667  3
   4118   4119   4131   4132     1  0.0000000  0.6508444  3
   4118   4119   4131   4133     1  0.0000000  0.6508444  3
   4118   4122   4134   4135     1  0.0000000  0.6508444  3
   4118   4122   4134   4136     1  0.0000000  0.6508444  3
   4118   4125   4128   4129     1  0.0000000  0.6508444  3
   4118   4125   4128   4130     1  0.0000000  0.6508444  3
   4119   4118   4122   4123     1  0.0000000  1.2552000  3
   4119   4118   4122   4124     1  0.0000000  1.2552000  3
   4119   4118   4125   4126     1  0.0000000  1.2552000  3
   4119   4118   4125   4127     1  0.0000000  1.2552000  3
   4119   4131   4143   4144     1  0.0000000  0.6508444  3
   4119   4131   4143   4145     1  0.0000000  0.6508444  3
   4120   4119   4118   4122     1  0.0000000  1.2552000  3
   4120   4119   4118   4125     1  0.0000000  1.2552000  3
   4120   4119   4131   4143     1  0.0000000  0.6508444  3
   4120   4119   4131   4132     1  0.0000000  0.6508444  3
   4120   4119   4131   4133     1  0.0000000  0.6508444  3
   4121   4119   4118   4122     1  0.0000000  1.2552000  3
   4121   4119   4118   4125     1  0.0000000  1.2552000  3
   4121   4119   4131   4143     1  0.0000000  0.6508444  3
   4121   4119   4131   4132     1  0.0000000  0.6508444  3
   4121   4119   4131   4133     1  0.0000000  0.6508444  3
   4122   4118   4125   4126     1  0.0000000  1.2552000  3
   4122   4118   4125   4127     1  0.0000000  1.2552000  3
   4122   4134   4140   4141     1  0.0000000  0.6508444  3
   4122   4134   4140   4142     1  0.0000000  0.6508444  3
   4123   4122   4118   4125     1  0.0000000  1.2552000  3
   4123   4122   4134   4140     1  0.0000000  0.6508444  3
   4123   4122   4134   4135     1  0.0000000  0.6508444  3
   4123   4122   4134   4136     1  0.0000000  0.6508444  3
   4124   4122   4118   4125     1  0.0000000  1.2552000  3
   4124   4122   4134   4140     1  0.0000000  0.6508444  3
   4124   4122   4134   4135     1  0.0000000  0.6508444  3
   4124   4122   4134   4136     1  0.0000000  0.6508444  3
   4125   4128   4137   4138     1  0.0000000  0.6508444  3
   4125   4128   4137   4139     1  0.0000000  0.6508444  3
   4126   4125   4128   4137     1  0.0000000  0.6508444  3
   4126   4125   4128   4129     1  0.0000000  0.6508444  3
   4126   4125   4128   4130     1  0.0000000  0.6508444  3
   4127   4125   4128   4137     1  0.0000000  0.6508444  3
   4127   4125   4128   4129     1  0.0000000  0.6508444  3
   4127   4125   4128   4130     1  0.0000000  0.6508444  3
   4129   4128   4137   4146     1  0.0000000  1.0460000  1
   4129   4128   4137   4146     1  0.0000000  0.0000000  3
   4129   4128   4137   4138     1  0.0000000  0.6508444  3
   4129   4128   4137   4139     1  0.0000000  0.6508444  3
   4130   4128   4137   4146     1  0.0000000  1.0460000  1
   4130   4128   4137   4146     1  0.0000000  0.0000000  3
   4130   4128   4137   4138     1  0.0000000  0.6508444  3
   4130   4128   4137   4139     1  0.0000000  0.6508444  3
   4132   4131   4143   8135     1  0.0000000  1.0460000  1
   4132   4131   4143   8135     1  0.0000000  0.0000000  3
   4132   4131   4143   4144     1  0.0000000  0.6508444  3
   4132   4131   4143   4145     1  0.0000000  0.6508444  3
   4133   4131   4143   8135     1  0.0000000  1.0460000  1
   4133   4131   4143   8135     1  0.0000000  0.0000000  3
   4133   4131   4143   4144     1  0.0000000  0.6508444  3
   4133   4131   4143   4145     1  0.0000000  0.6508444  3
   4135   4134   4140   8112     1  0.0000000  1.0460000  1
   4135   4134   4140   8112     1  0.0000000  0.0000000  3
   4135   4134   4140   4141     1  0.0000000  0.6508444  3
   4135   4134   4140   4142     1  0.0000000  0.6508444  3
   4136   4134   4140   8112     1  0.0000000  1.0460000  1
   4136   4134   4140   8112     1  0.0000000  0.0000000  3
   4136   4134   4140   4141     1  0.0000000  0.6508444  3
   4136   4134   4140   4142     1  0.0000000  0.6508444  3
   4140   8112   8108   8111     1  0.0000000  1.6038667  3
   4141   4140   8112   8108     1  0.0000000  1.6038667  3
   4142   4140   8112   8108     1  0.0000000  1.6038667  3
   4143   8135   8131   8134     1  0.0000000  1.6038667  3
   4144   4143   8135   8131     1  0.0000000  1.6038667  3
   4145   4143   8135   8131     1  0.0000000  1.6038667  3
   4147   4148   4160   4161     1  0.0000000  0.6508444  3
   4147   4148   4160   4162     1  0.0000000  0.6508444  3
   4147   4151   4163   4164     1  0.0000000  0.6508444  3
   4147   4151   4163   4165     1  0.0000000  0.6508444  3
   4147   4154   4157   4158     1  0.0000000  0.6508444  3
   4147   4154   4157   4159     1  0.0000000  0.6508444  3
   4148   4147   4151   4152     1  0.0000000  1.2552000  3
   4148   4147   4151   4153     1  0.0000000  1.2552000  3
   4148   4147   4154   4155     1  0.0000000  1.2552000  3
   4148   4147   4154   4156     1  0.0000000  1.2552000  3
   4148   4160   4172   4173     1  0.0000000  0.6508444  3
   4148   4160   4172   4174     1  0.0000000  0.6508444  3
   4149   4148   4147   4151     1  0.0000000  1.2552000  3
   4149   4148   4147   4154     1  0.0000000  1.2552000  3
   4149   4148   4160   4172     1  0.0000000  0.6508444  3
   4149   4148   4160   4161     1  0.0000000  0.6508444  3
   4149   4148   4160   4162     1  0.0000000  0.6508444  3
   4150   4148   4147   4151     1  0.0000000  1.2552000  3
   4150   4148   4147   4154     1  0.0000000  1.2552000  3
   4150   4148   4160   4172     1  0.0000000  0.6508444  3
   4150   4148   4160   4161     1  0.0000000  0.6508444  3
   4150   4148   4160   4162     1  0.0000000  0.6508444  3
   4151   4147   4154   4155     1  0.0000000  1.2552000  3
   4151   4147   4154   4156     1  0.0000000  1.2552000  3
   4151   4163   4169   4170     1  0.0000000  0.6508444  3
   4151   4163   4169   4171     1  0.0000000  0.6508444  3
   4152   4151   4147   4154     1  0.0000000  1.2552000  3
   4152   4151   4163   4169     1  0.0000000  0.6508444  3
   4152   4151   4163   4164     1  0.0000000  0.6508444  3
   4152   4151   4163   4165     1  0.0000000  0.6508444  3
   4153   4151   4147   4154     1  0.0000000  1.2552000  3
   4153   4151   4163   4169     1  0.0000000  0.6508444  3
   4153   4151   4163   4164     1  0.0000000  0.6508444  3
   4153   4151   4163   4165     1  0.0000000  0.6508444  3
   4154   4157   4166   4167     1  0.0000000  0.6508444  3
   4154   4157   4166   4168     1  0.0000000  0.6508444  3
   4155   4154   4157   4166     1  0.0000000  0.6508444  3
   4155   4154   4157   4158     1  0.0000000  0.6508444  3
   4155   4154   4157   4159     1  0.0000000  0.6508444  3
   4156   4154   4157   4166     1  0.0000000  0.6508444  3
   4156   4154   4157   4158     1  0.0000000  0.6508444  3
   4156   4154   4157   4159     1  0.0000000  0.6508444  3
   4158   4157   4166   4175     1  0.0000000  1.0460000  1
   4158   4157   4166   4175     1  0.0000000  0.0000000  3
   4158   4157   4166   4167     1  0.0000000  0.6508444  3
   4158   4157   4166   4168     1  0.0000000  0.6508444  3
   4159   4157   4166   4175     1  0.0000000  1.0460000  1
   4159   4157   4166   4175     1  0.0000000  0.0000000  3
   4159   4157   4166   4167     1  0.0000000  0.6508444  3
   4159   4157   4166   4168     1  0.0000000  0.6508444  3
   4161   4160   4172   8181     1  0.0000000  1.0460000  1
   4161   4160   4172   8181     1  0.0000000  0.0000000  3
   4161   4160   4172   4173     1  0.0000000  0.6508444  3
   4161   4160   4172   4174     1  0.0000000  0.6508444  3
   4162   4160   4172   8181     1  0.0000000  1.0460000  1
   4162   4160   4172   8181     1  0.0000000  0.0000000  3
   4162   4160   4172   4173     1  0.0000000  0.6508444  3
   4162   4160   4172   4174     1  0.0000000  0.6508444  3
   4164   4163   4169   8158     1  0.0000000  1.0460000  1
   4164   4163   4169   8158     1  0.0000000  0.0000000  3
   4164   4163   4169   4170     1  0.0000000  0.6508444  3
   4164   4163   4169   4171     1  0.0000000  0.6508444  3
   4165   4163   4169   8158     1  0.0000000  1.0460000  1
   4165   4163   4169   8158     1  0.0000000  0.0000000  3
   4165   4163   4169   4170     1  0.0000000  0.6508444  3
   4165   4163   4169   4171     1  0.0000000  0.6508444  3
   4169   8158   8154   8157     1  0.0000000  1.6038667  3
   4170   4169   8158   8154     1  0.0000000  1.6038667  3
   4171   4169   8158   8154     1  0.0000000  1.6038667  3
   4172   8181   8177   8180     1  0.0000000  1.6038667  3
   4173   4172   8181   8177     1  0.0000000  1.6038667  3
   4174   4172   8181   8177     1  0.0000000  1.6038667  3
   4176   4177   4189   4190     1  0.0000000  0.6508444  3
   4176   4177   4189   4191     1  0.0000000  0.6508444  3
   4176   4180   4192   4193     1  0.0000000  0.6508444  3
   4176   4180   4192   4194     1  0.0000000  0.6508444  3
   4176   4183   4186   4187     1  0.0000000  0.6508444  3
   4176   4183   4186   4188     1  0.0000000  0.6508444  3
   4177   4176   4180   4181     1  0.0000000  1.2552000  3
   4177   4176   4180   4182     1  0.0000000  1.2552000  3
   4177   4176   4183   4184     1  0.0000000  1.2552000  3
   4177   4176   4183   4185     1  0.0000000  1.2552000  3
   4177   4189   4201   4202     1  0.0000000  0.6508444  3
   4177   4189   4201   4203     1  0.0000000  0.6508444  3
   4178   4177   4176   4180     1  0.0000000  1.2552000  3
   4178   4177   4176   4183     1  0.0000000  1.2552000  3
   4178   4177   4189   4201     1  0.0000000  0.6508444  3
   4178   4177   4189   4190     1  0.0000000  0.6508444  3
   4178   4177   4189   4191     1  0.0000000  0.6508444  3
   4179   4177   4176   4180     1  0.0000000  1.2552000  3
   4179   4177   4176   4183     1  0.0000000  1.2552000  3
   4179   4177   4189   4201     1  0.0000000  0.6508444  3
   4179   4177   4189   4190     1  0.0000000  0.6508444  3
   4179   4177   4189   4191     1  0.0000000  0.6508444  3
   4180   4176   4183   4184     1  0.0000000  1.2552000  3
   4180   4176   4183   4185     1  0.0000000  1.2552000  3
   4180   4192   4198   4199     1  0.0000000  0.6508444  3
   4180   4192   4198   4200     1  0.0000000  0.6508444  3
   4181   4180   4176   4183     1  0.0000000  1.2552000  3
   4181   4180   4192   4198     1  0.0000000  0.6508444  3
   4181   4180   4192   4193     1  0.0000000  0.6508444  3
   4181   4180   4192   4194     1  0.0000000  0.6508444  3
   4182   4180   4176   4183     1  0.0000000  1.2552000  3
   4182   4180   4192   4198     1  0.0000000  0.6508444  3
   4182   4180   4192   4193     1  0.0000000  0.6508444  3
   4182   4180   4192   4194     1  0.0000000  0.6508444  3
   4183   4186   4195   4196     1  0.0000000  0.6508444  3
   4183   4186   4195   4197     1  0.0000000  0.6508444  3
   4184   4183   4186   4195     1  0.0000000  0.6508444  3
   4184   4183   4186   4187     1  0.0000000  0.6508444  3
   4184   4183   4186   4188     1  0.0000000  0.6508444  3
   4185   4183   4186   4195     1  0.0000000  0.6508444  3
   4185   4183   4186   4187     1  0.0000000  0.6508444  3
   4185   4183   4186   4188     1  0.0000000  0.6508444  3
   4187   4186   4195   4204     1  0.0000000  1.0460000  1
   4187   4186   4195   4204     1  0.0000000  0.0000000  3
   4187   4186   4195   4196     1  0.0000000  0.6508444  3
   4187   4186   4195   4197     1  0.0000000  0.6508444  3
   4188   4186   4195   4204     1  0.0000000  1.0460000  1
   4188   4186   4195   4204     1  0.0000000  0.0000000  3
   4188   4186   4195   4196     1  0.0000000  0.6508444  3
   4188   4186   4195   4197     1  0.0000000  0.6508444  3
   4190   4189   4201   8227     1  0.0000000  1.0460000  1
   4190   4189   4201   8227     1  0.0000000  0.0000000  3
   4190   4189   4201   4202     1  0.0000000  0.6508444  3
   4190   4189   4201   4203     1  0.0000000  0.6508444  3
   4191   4189   4201   8227     1  0.0000000  1.0460000  1
   4191   4189   4201   8227     1  0.0000000  0.0000000  3
   4191   4189   4201   4202     1  0.0000000  0.6508444  3
   4191   4189   4201   4203     1  0.0000000  0.6508444  3
   4193   4192   4198   8204     1  0.0000000  1.0460000  1
   4193   4192   4198   8204     1  0.0000000  0.0000000  3
   4193   4192   4198   4199     1  0.0000000  0.6508444  3
   4193   4192   4198   4200     1  0.0000000  0.6508444  3
   4194   4192   4198   8204     1  0.0000000  1.0460000  1
   4194   4192   4198   8204     1  0.0000000  0.0000000  3
   4194   4192   4198   4199     1  0.0000000  0.6508444  3
   4194   4192   4198   4200     1  0.0000000  0.6508444  3
   4198   8204   8200   8203     1  0.0000000  1.6038667  3
   4199   4198   8204   8200     1  0.0000000  1.6038667  3
   4200   4198   8204   8200     1  0.0000000  1.6038667  3
   4201   8227   8223   8226     1  0.0000000  1.6038667  3
   4202   4201   8227   8223     1  0.0000000  1.6038667  3
   4203   4201   8227   8223     1  0.0000000  1.6038667  3
   4205   4206   4218   4219     1  0.0000000  0.6508444  3
   4205   4206   4218   4220     1  0.0000000  0.6508444  3
   4205   4209   4221   4222     1  0.0000000  0.6508444  3
   4205   4209   4221   4223     1  0.0000000  0.6508444  3
   4205   4212   4215   4216     1  0.0000000  0.6508444  3
   4205   4212   4215   4217     1  0.0000000  0.6508444  3
   4206   4205   4209   4210     1  0.0000000  1.2552000  3
   4206   4205   4209   4211     1  0.0000000  1.2552000  3
   4206   4205   4212   4213     1  0.0000000  1.2552000  3
   4206   4205   4212   4214     1  0.0000000  1.2552000  3
   4206   4218   4230   4231     1  0.0000000  0.6508444  3
   4206   4218   4230   4232     1  0.0000000  0.6508444  3
   4207   4206   4205   4209     1  0.0000000  1.2552000  3
   4207   4206   4205   4212     1  0.0000000  1.2552000  3
   4207   4206   4218   4230     1  0.0000000  0.6508444  3
   4207   4206   4218   4219     1  0.0000000  0.6508444  3
   4207   4206   4218   4220     1  0.0000000  0.6508444  3
   4208   4206   4205   4209     1  0.0000000  1.2552000  3
   4208   4206   4205   4212     1  0.0000000  1.2552000  3
   4208   4206   4218   4230     1  0.0000000  0.6508444  3
   4208   4206   4218   4219     1  0.0000000  0.6508444  3
   4208   4206   4218   4220     1  0.0000000  0.6508444  3
   4209   4205   4212   4213     1  0.0000000  1.2552000  3
   4209   4205   4212   4214     1  0.0000000  1.2552000  3
   4209   4221   4227   4228     1  0.0000000  0.6508444  3
   4209   4221   4227   4229     1  0.0000000  0.6508444  3
   4210   4209   4205   4212     1  0.0000000  1.2552000  3
   4210   4209   4221   4227     1  0.0000000  0.6508444  3
   4210   4209   4221   4222     1  0.0000000  0.6508444  3
   4210   4209   4221   4223     1  0.0000000  0.6508444  3
   4211   4209   4205   4212     1  0.0000000  1.2552000  3
   4211   4209   4221   4227     1  0.0000000  0.6508444  3
   4211   4209   4221   4222     1  0.0000000  0.6508444  3
   4211   4209   4221   4223     1  0.0000000  0.6508444  3
   4212   4215   4224   4225     1  0.0000000  0.6508444  3
   4212   4215   4224   4226     1  0.0000000  0.6508444  3
   4213   4212   4215   4224     1  0.0000000  0.6508444  3
   4213   4212   4215   4216     1  0.0000000  0.6508444  3
   4213   4212   4215   4217     1  0.0000000  0.6508444  3
   4214   4212   4215   4224     1  0.0000000  0.6508444  3
   4214   4212   4215   4216     1  0.0000000  0.6508444  3
   4214   4212   4215   4217     1  0.0000000  0.6508444  3
   4216   4215   4224   4233     1  0.0000000  1.0460000  1
   4216   4215   4224   4233     1  0.0000000  0.0000000  3
   4216   4215   4224   4225     1  0.0000000  0.6508444  3
   4216   4215   4224   4226     1  0.0000000  0.6508444  3
   4217   4215   4224   4233     1  0.0000000  1.0460000  1
   4217   4215   4224   4233     1  0.0000000  0.0000000  3
   4217   4215   4224   4225     1  0.0000000  0.6508444  3
   4217   4215   4224   4226     1  0.0000000  0.6508444  3
   4219   4218   4230   8273     1  0.0000000  1.0460000  1
   4219   4218   4230   8273     1  0.0000000  0.0000000  3
   4219   4218   4230   4231     1  0.0000000  0.6508444  3
   4219   4218   4230   4232     1  0.0000000  0.6508444  3
   4220   4218   4230   8273     1  0.0000000  1.0460000  1
   4220   4218   4230   8273     1  0.0000000  0.0000000  3
   4220   4218   4230   4231     1  0.0000000  0.6508444  3
   4220   4218   4230   4232     1  0.0000000  0.6508444  3
   4222   4221   4227   8250     1  0.0000000  1.0460000  1
   4222   4221   4227   8250     1  0.0000000  0.0000000  3
   4222   4221   4227   4228     1  0.0000000  0.6508444  3
   4222   4221   4227   4229     1  0.0000000  0.6508444  3
   4223   4221   4227   8250     1  0.0000000  1.0460000  1
   4223   4221   4227   8250     1  0.0000000  0.0000000  3
   4223   4221   4227   4228     1  0.0000000  0.6508444  3
   4223   4221   4227   4229     1  0.0000000  0.6508444  3
   4227   8250   8246   8249     1  0.0000000  1.6038667  3
   4228   4227   8250   8246     1  0.0000000  1.6038667  3
   4229   4227   8250   8246     1  0.0000000  1.6038667  3
   4230   8273   8269   8272     1  0.0000000  1.6038667  3
   4231   4230   8273   8269     1  0.0000000  1.6038667  3
   4232   4230   8273   8269     1  0.0000000  1.6038667  3
   4234   4235   4247   4248     1  0.0000000  0.6508444  3
   4234   4235   4247   4249     1  0.0000000  0.6508444  3
   4234   4238   4250   4251     1  0.0000000  0.6508444  3
   4234   4238   4250   4252     1  0.0000000  0.6508444  3
   4234   4241   4244   4245     1  0.0000000  0.6508444  3
   4234   4241   4244   4246     1  0.0000000  0.6508444  3
   4235   4234   4238   4239     1  0.0000000  1.2552000  3
   4235   4234   4238   4240     1  0.0000000  1.2552000  3
   4235   4234   4241   4242     1  0.0000000  1.2552000  3
   4235   4234   4241   4243     1  0.0000000  1.2552000  3
   4235   4247   4259   4260     1  0.0000000  0.6508444  3
   4235   4247   4259   4261     1  0.0000000  0.6508444  3
   4236   4235   4234   4238     1  0.0000000  1.2552000  3
   4236   4235   4234   4241     1  0.0000000  1.2552000  3
   4236   4235   4247   4259     1  0.0000000  0.6508444  3
   4236   4235   4247   4248     1  0.0000000  0.6508444  3
   4236   4235   4247   4249     1  0.0000000  0.6508444  3
   4237   4235   4234   4238     1  0.0000000  1.2552000  3
   4237   4235   4234   4241     1  0.0000000  1.2552000  3
   4237   4235   4247   4259     1  0.0000000  0.6508444  3
   4237   4235   4247   4248     1  0.0000000  0.6508444  3
   4237   4235   4247   4249     1  0.0000000  0.6508444  3
   4238   4234   4241   4242     1  0.0000000  1.2552000  3
   4238   4234   4241   4243     1  0.0000000  1.2552000  3
   4238   4250   4256   4257     1  0.0000000  0.6508444  3
   4238   4250   4256   4258     1  0.0000000  0.6508444  3
   4239   4238   4234   4241     1  0.0000000  1.2552000  3
   4239   4238   4250   4256     1  0.0000000  0.6508444  3
   4239   4238   4250   4251     1  0.0000000  0.6508444  3
   4239   4238   4250   4252     1  0.0000000  0.6508444  3
   4240   4238   4234   4241     1  0.0000000  1.2552000  3
   4240   4238   4250   4256     1  0.0000000  0.6508444  3
   4240   4238   4250   4251     1  0.0000000  0.6508444  3
   4240   4238   4250   4252     1  0.0000000  0.6508444  3
   4241   4244   4253   4254     1  0.0000000  0.6508444  3
   4241   4244   4253   4255     1  0.0000000  0.6508444  3
   4242   4241   4244   4253     1  0.0000000  0.6508444  3
   4242   4241   4244   4245     1  0.0000000  0.6508444  3
   4242   4241   4244   4246     1  0.0000000  0.6508444  3
   4243   4241   4244   4253     1  0.0000000  0.6508444  3
   4243   4241   4244   4245     1  0.0000000  0.6508444  3
   4243   4241   4244   4246     1  0.0000000  0.6508444  3
   4245   4244   4253   4262     1  0.0000000  1.0460000  1
   4245   4244   4253   4262     1  0.0000000  0.0000000  3
   4245   4244   4253   4254     1  0.0000000  0.6508444  3
   4245   4244   4253   4255     1  0.0000000  0.6508444  3
   4246   4244   4253   4262     1  0.0000000  1.0460000  1
   4246   4244   4253   4262     1  0.0000000  0.0000000  3
   4246   4244   4253   4254     1  0.0000000  0.6508444  3
   4246   4244   4253   4255     1  0.0000000  0.6508444  3
   4248   4247   4259   8319     1  0.0000000  1.0460000  1
   4248   4247   4259   8319     1  0.0000000  0.0000000  3
   4248   4247   4259   4260     1  0.0000000  0.6508444  3
   4248   4247   4259   4261     1  0.0000000  0.6508444  3
   4249   4247   4259   8319     1  0.0000000  1.0460000  1
   4249   4247   4259   8319     1  0.0000000  0.0000000  3
   4249   4247   4259   4260     1  0.0000000  0.6508444  3
   4249   4247   4259   4261     1  0.0000000  0.6508444  3
   4251   4250   4256   8296     1  0.0000000  1.0460000  1
   4251   4250   4256   8296     1  0.0000000  0.0000000  3
   4251   4250   4256   4257     1  0.0000000  0.6508444  3
   4251   4250   4256   4258     1  0.0000000  0.6508444  3
   4252   4250   4256   8296     1  0.0000000  1.0460000  1
   4252   4250   4256   8296     1  0.0000000  0.0000000  3
   4252   4250   4256   4257     1  0.0000000  0.6508444  3
   4252   4250   4256   4258     1  0.0000000  0.6508444  3
   4256   8296   8292   8295     1  0.0000000  1.6038667  3
   4257   4256   8296   8292     1  0.0000000  1.6038667  3
   4258   4256   8296   8292     1  0.0000000  1.6038667  3
   4259   8319   8315   8318     1  0.0000000  1.6038667  3
   4260   4259   8319   8315     1  0.0000000  1.6038667  3
   4261   4259   8319   8315     1  0.0000000  1.6038667  3
   4263   4264   4276   4277     1  0.0000000  0.6508444  3
   4263   4264   4276   4278     1  0.0000000  0.6508444  3
   4263   4267   4279   4280     1  0.0000000  0.6508444  3
   4263   4267   4279   4281     1  0.0000000  0.6508444  3
   4263   4270   4273   4274     1  0.0000000  0.6508444  3
   4263   4270   4273   4275     1  0.0000000  0.6508444  3
   4264   4263   4267   4268     1  0.0000000  1.2552000  3
   4264   4263   4267   4269     1  0.0000000  1.2552000  3
   4264   4263   4270   4271     1  0.0000000  1.2552000  3
   4264   4263   4270   4272     1  0.0000000  1.2552000  3
   4264   4276   4288   4289     1  0.0000000  0.6508444  3
   4264   4276   4288   4290     1  0.0000000  0.6508444  3
   4265   4264   4263   4267     1  0.0000000  1.2552000  3
   4265   4264   4263   4270     1  0.0000000  1.2552000  3
   4265   4264   4276   4288     1  0.0000000  0.6508444  3
   4265   4264   4276   4277     1  0.0000000  0.6508444  3
   4265   4264   4276   4278     1  0.0000000  0.6508444  3
   4266   4264   4263   4267     1  0.0000000  1.2552000  3
   4266   4264   4263   4270     1  0.0000000  1.2552000  3
   4266   4264   4276   4288     1  0.0000000  0.6508444  3
   4266   4264   4276   4277     1  0.0000000  0.6508444  3
   4266   4264   4276   4278     1  0.0000000  0.6508444  3
   4267   4263   4270   4271     1  0.0000000  1.2552000  3
   4267   4263   4270   4272     1  0.0000000  1.2552000  3
   4267   4279   4285   4286     1  0.0000000  0.6508444  3
   4267   4279   4285   4287     1  0.0000000  0.6508444  3
   4268   4267   4263   4270     1  0.0000000  1.2552000  3
   4268   4267   4279   4285     1  0.0000000  0.6508444  3
   4268   4267   4279   4280     1  0.0000000  0.6508444  3
   4268   4267   4279   4281     1  0.0000000  0.6508444  3
   4269   4267   4263   4270     1  0.0000000  1.2552000  3
   4269   4267   4279   4285     1  0.0000000  0.6508444  3
   4269   4267   4279   4280     1  0.0000000  0.6508444  3
   4269   4267   4279   4281     1  0.0000000  0.6508444  3
   4270   4273   4282   4283     1  0.0000000  0.6508444  3
   4270   4273   4282   4284     1  0.0000000  0.6508444  3
   4271   4270   4273   4282     1  0.0000000  0.6508444  3
   4271   4270   4273   4274     1  0.0000000  0.6508444  3
   4271   4270   4273   4275     1  0.0000000  0.6508444  3
   4272   4270   4273   4282     1  0.0000000  0.6508444  3
   4272   4270   4273   4274     1  0.0000000  0.6508444  3
   4272   4270   4273   4275     1  0.0000000  0.6508444  3
   4274   4273   4282   4291     1  0.0000000  1.0460000  1
   4274   4273   4282   4291     1  0.0000000  0.0000000  3
   4274   4273   4282   4283     1  0.0000000  0.6508444  3
   4274   4273   4282   4284     1  0.0000000  0.6508444  3
   4275   4273   4282   4291     1  0.0000000  1.0460000  1
   4275   4273   4282   4291     1  0.0000000  0.0000000  3
   4275   4273   4282   4283     1  0.0000000  0.6508444  3
   4275   4273   4282   4284     1  0.0000000  0.6508444  3
   4277   4276   4288   8365     1  0.0000000  1.0460000  1
   4277   4276   4288   8365     1  0.0000000  0.0000000  3
   4277   4276   4288   4289     1  0.0000000  0.6508444  3
   4277   4276   4288   4290     1  0.0000000  0.6508444  3
   4278   4276   4288   8365     1  0.0000000  1.0460000  1
   4278   4276   4288   8365     1  0.0000000  0.0000000  3
   4278   4276   4288   4289     1  0.0000000  0.6508444  3
   4278   4276   4288   4290     1  0.0000000  0.6508444  3
   4280   4279   4285   8342     1  0.0000000  1.0460000  1
   4280   4279   4285   8342     1  0.0000000  0.0000000  3
   4280   4279   4285   4286     1  0.0000000  0.6508444  3
   4280   4279   4285   4287     1  0.0000000  0.6508444  3
   4281   4279   4285   8342     1  0.0000000  1.0460000  1
   4281   4279   4285   8342     1  0.0000000  0.0000000  3
   4281   4279   4285   4286     1  0.0000000  0.6508444  3
   4281   4279   4285   4287     1  0.0000000  0.6508444  3
   4285   8342   8338   8341     1  0.0000000  1.6038667  3
   4286   4285   8342   8338     1  0.0000000  1.6038667  3
   4287   4285   8342   8338     1  0.0000000  1.6038667  3
   4288   8365   8361   8364     1  0.0000000  1.6038667  3
   4289   4288   8365   8361     1  0.0000000  1.6038667  3
   4290   4288   8365   8361     1  0.0000000  1.6038667  3
   4292   4293   4305   4306     1  0.0000000  0.6508444  3
   4292   4293   4305   4307     1  0.0000000  0.6508444  3
   4292   4296   4308   4309     1  0.0000000  0.6508444  3
   4292   4296   4308   4310     1  0.0000000  0.6508444  3
   4292   4299   4302   4303     1  0.0000000  0.6508444  3
   4292   4299   4302   4304     1  0.0000000  0.6508444  3
   4293   4292   4296   4297     1  0.0000000  1.2552000  3
   4293   4292   4296   4298     1  0.0000000  1.2552000  3
   4293   4292   4299   4300     1  0.0000000  1.2552000  3
   4293   4292   4299   4301     1  0.0000000  1.2552000  3
   4293   4305   4317   4318     1  0.0000000  0.6508444  3
   4293   4305   4317   4319     1  0.0000000  0.6508444  3
   4294   4293   4292   4296     1  0.0000000  1.2552000  3
   4294   4293   4292   4299     1  0.0000000  1.2552000  3
   4294   4293   4305   4317     1  0.0000000  0.6508444  3
   4294   4293   4305   4306     1  0.0000000  0.6508444  3
   4294   4293   4305   4307     1  0.0000000  0.6508444  3
   4295   4293   4292   4296     1  0.0000000  1.2552000  3
   4295   4293   4292   4299     1  0.0000000  1.2552000  3
   4295   4293   4305   4317     1  0.0000000  0.6508444  3
   4295   4293   4305   4306     1  0.0000000  0.6508444  3
   4295   4293   4305   4307     1  0.0000000  0.6508444  3
   4296   4292   4299   4300     1  0.0000000  1.2552000  3
   4296   4292   4299   4301     1  0.0000000  1.2552000  3
   4296   4308   4314   4315     1  0.0000000  0.6508444  3
   4296   4308   4314   4316     1  0.0000000  0.6508444  3
   4297   4296   4292   4299     1  0.0000000  1.2552000  3
   4297   4296   4308   4314     1  0.0000000  0.6508444  3
   4297   4296   4308   4309     1  0.0000000  0.6508444  3
   4297   4296   4308   4310     1  0.0000000  0.6508444  3
   4298   4296   4292   4299     1  0.0000000  1.2552000  3
   4298   4296   4308   4314     1  0.0000000  0.6508444  3
   4298   4296   4308   4309     1  0.0000000  0.6508444  3
   4298   4296   4308   4310     1  0.0000000  0.6508444  3
   4299   4302   4311   4312     1  0.0000000  0.6508444  3
   4299   4302   4311   4313     1  0.0000000  0.6508444  3
   4300   4299   4302   4311     1  0.0000000  0.6508444  3
   4300   4299   4302   4303     1  0.0000000  0.6508444  3
   4300   4299   4302   4304     1  0.0000000  0.6508444  3
   4301   4299   4302   4311     1  0.0000000  0.6508444  3
   4301   4299   4302   4303     1  0.0000000  0.6508444  3
   4301   4299   4302   4304     1  0.0000000  0.6508444  3
   4303   4302   4311   4320     1  0.0000000  1.0460000  1
   4303   4302   4311   4320     1  0.0000000  0.0000000  3
   4303   4302   4311   4312     1  0.0000000  0.6508444  3
   4303   4302   4311   4313     1  0.0000000  0.6508444  3
   4304   4302   4311   4320     1  0.0000000  1.0460000  1
   4304   4302   4311   4320     1  0.0000000  0.0000000  3
   4304   4302   4311   4312     1  0.0000000  0.6508444  3
   4304   4302   4311   4313     1  0.0000000  0.6508444  3
   4306   4305   4317   8411     1  0.0000000  1.0460000  1
   4306   4305   4317   8411     1  0.0000000  0.0000000  3
   4306   4305   4317   4318     1  0.0000000  0.6508444  3
   4306   4305   4317   4319     1  0.0000000  0.6508444  3
   4307   4305   4317   8411     1  0.0000000  1.0460000  1
   4307   4305   4317   8411     1  0.0000000  0.0000000  3
   4307   4305   4317   4318     1  0.0000000  0.6508444  3
   4307   4305   4317   4319     1  0.0000000  0.6508444  3
   4309   4308   4314   8388     1  0.0000000  1.0460000  1
   4309   4308   4314   8388     1  0.0000000  0.0000000  3
   4309   4308   4314   4315     1  0.0000000  0.6508444  3
   4309   4308   4314   4316     1  0.0000000  0.6508444  3
   4310   4308   4314   8388     1  0.0000000  1.0460000  1
   4310   4308   4314   8388     1  0.0000000  0.0000000  3
   4310   4308   4314   4315     1  0.0000000  0.6508444  3
   4310   4308   4314   4316     1  0.0000000  0.6508444  3
   4314   8388   8384   8387     1  0.0000000  1.6038667  3
   4315   4314   8388   8384     1  0.0000000  1.6038667  3
   4316   4314   8388   8384     1  0.0000000  1.6038667  3
   4317   8411   8407   8410     1  0.0000000  1.6038667  3
   4318   4317   8411   8407     1  0.0000000  1.6038667  3
   4319   4317   8411   8407     1  0.0000000  1.6038667  3
   4321   4322   4334   4335     1  0.0000000  0.6508444  3
   4321   4322   4334   4336     1  0.0000000  0.6508444  3
   4321   4325   4337   4338     1  0.0000000  0.6508444  3
   4321   4325   4337   4339     1  0.0000000  0.6508444  3
   4321   4328   4331   4332     1  0.0000000  0.6508444  3
   4321   4328   4331   4333     1  0.0000000  0.6508444  3
   4322   4321   4325   4326     1  0.0000000  1.2552000  3
   4322   4321   4325   4327     1  0.0000000  1.2552000  3
   4322   4321   4328   4329     1  0.0000000  1.2552000  3
   4322   4321   4328   4330     1  0.0000000  1.2552000  3
   4322   4334   4346   4347     1  0.0000000  0.6508444  3
   4322   4334   4346   4348     1  0.0000000  0.6508444  3
   4323   4322   4321   4325     1  0.0000000  1.2552000  3
   4323   4322   4321   4328     1  0.0000000  1.2552000  3
   4323   4322   4334   4346     1  0.0000000  0.6508444  3
   4323   4322   4334   4335     1  0.0000000  0.6508444  3
   4323   4322   4334   4336     1  0.0000000  0.6508444  3
   4324   4322   4321   4325     1  0.0000000  1.2552000  3
   4324   4322   4321   4328     1  0.0000000  1.2552000  3
   4324   4322   4334   4346     1  0.0000000  0.6508444  3
   4324   4322   4334   4335     1  0.0000000  0.6508444  3
   4324   4322   4334   4336     1  0.0000000  0.6508444  3
   4325   4321   4328   4329     1  0.0000000  1.2552000  3
   4325   4321   4328   4330     1  0.0000000  1.2552000  3
   4325   4337   4343   4344     1  0.0000000  0.6508444  3
   4325   4337   4343   4345     1  0.0000000  0.6508444  3
   4326   4325   4321   4328     1  0.0000000  1.2552000  3
   4326   4325   4337   4343     1  0.0000000  0.6508444  3
   4326   4325   4337   4338     1  0.0000000  0.6508444  3
   4326   4325   4337   4339     1  0.0000000  0.6508444  3
   4327   4325   4321   4328     1  0.0000000  1.2552000  3
   4327   4325   4337   4343     1  0.0000000  0.6508444  3
   4327   4325   4337   4338     1  0.0000000  0.6508444  3
   4327   4325   4337   4339     1  0.0000000  0.6508444  3
   4328   4331   4340   4341     1  0.0000000  0.6508444  3
   4328   4331   4340   4342     1  0.0000000  0.6508444  3
   4329   4328   4331   4340     1  0.0000000  0.6508444  3
   4329   4328   4331   4332     1  0.0000000  0.6508444  3
   4329   4328   4331   4333     1  0.0000000  0.6508444  3
   4330   4328   4331   4340     1  0.0000000  0.6508444  3
   4330   4328   4331   4332     1  0.0000000  0.6508444  3
   4330   4328   4331   4333     1  0.0000000  0.6508444  3
   4332   4331   4340   4349     1  0.0000000  1.0460000  1
   4332   4331   4340   4349     1  0.0000000  0.0000000  3
   4332   4331   4340   4341     1  0.0000000  0.6508444  3
   4332   4331   4340   4342     1  0.0000000  0.6508444  3
   4333   4331   4340   4349     1  0.0000000  1.0460000  1
   4333   4331   4340   4349     1  0.0000000  0.0000000  3
   4333   4331   4340   4341     1  0.0000000  0.6508444  3
   4333   4331   4340   4342     1  0.0000000  0.6508444  3
   4335   4334   4346   8457     1  0.0000000  1.0460000  1
   4335   4334   4346   8457     1  0.0000000  0.0000000  3
   4335   4334   4346   4347     1  0.0000000  0.6508444  3
   4335   4334   4346   4348     1  0.0000000  0.6508444  3
   4336   4334   4346   8457     1  0.0000000  1.0460000  1
   4336   4334   4346   8457     1  0.0000000  0.0000000  3
   4336   4334   4346   4347     1  0.0000000  0.6508444  3
   4336   4334   4346   4348     1  0.0000000  0.6508444  3
   4338   4337   4343   8434     1  0.0000000  1.0460000  1
   4338   4337   4343   8434     1  0.0000000  0.0000000  3
   4338   4337   4343   4344     1  0.0000000  0.6508444  3
   4338   4337   4343   4345     1  0.0000000  0.6508444  3
   4339   4337   4343   8434     1  0.0000000  1.0460000  1
   4339   4337   4343   8434     1  0.0000000  0.0000000  3
   4339   4337   4343   4344     1  0.0000000  0.6508444  3
   4339   4337   4343   4345     1  0.0000000  0.6508444  3
   4343   8434   8430   8433     1  0.0000000  1.6038667  3
   4344   4343   8434   8430     1  0.0000000  1.6038667  3
   4345   4343   8434   8430     1  0.0000000  1.6038667  3
   4346   8457   8453   8456     1  0.0000000  1.6038667  3
   4347   4346   8457   8453     1  0.0000000  1.6038667  3
   4348   4346   8457   8453     1  0.0000000  1.6038667  3
   4350   4351   4363   4364     1  0.0000000  0.6508444  3
   4350   4351   4363   4365     1  0.0000000  0.6508444  3
   4350   4354   4366   4367     1  0.0000000  0.6508444  3
   4350   4354   4366   4368     1  0.0000000  0.6508444  3
   4350   4357   4360   4361     1  0.0000000  0.6508444  3
   4350   4357   4360   4362     1  0.0000000  0.6508444  3
   4351   4350   4354   4355     1  0.0000000  1.2552000  3
   4351   4350   4354   4356     1  0.0000000  1.2552000  3
   4351   4350   4357   4358     1  0.0000000  1.2552000  3
   4351   4350   4357   4359     1  0.0000000  1.2552000  3
   4351   4363   4375   4376     1  0.0000000  0.6508444  3
   4351   4363   4375   4377     1  0.0000000  0.6508444  3
   4352   4351   4350   4354     1  0.0000000  1.2552000  3
   4352   4351   4350   4357     1  0.0000000  1.2552000  3
   4352   4351   4363   4375     1  0.0000000  0.6508444  3
   4352   4351   4363   4364     1  0.0000000  0.6508444  3
   4352   4351   4363   4365     1  0.0000000  0.6508444  3
   4353   4351   4350   4354     1  0.0000000  1.2552000  3
   4353   4351   4350   4357     1  0.0000000  1.2552000  3
   4353   4351   4363   4375     1  0.0000000  0.6508444  3
   4353   4351   4363   4364     1  0.0000000  0.6508444  3
   4353   4351   4363   4365     1  0.0000000  0.6508444  3
   4354   4350   4357   4358     1  0.0000000  1.2552000  3
   4354   4350   4357   4359     1  0.0000000  1.2552000  3
   4354   4366   4372   4373     1  0.0000000  0.6508444  3
   4354   4366   4372   4374     1  0.0000000  0.6508444  3
   4355   4354   4350   4357     1  0.0000000  1.2552000  3
   4355   4354   4366   4372     1  0.0000000  0.6508444  3
   4355   4354   4366   4367     1  0.0000000  0.6508444  3
   4355   4354   4366   4368     1  0.0000000  0.6508444  3
   4356   4354   4350   4357     1  0.0000000  1.2552000  3
   4356   4354   4366   4372     1  0.0000000  0.6508444  3
   4356   4354   4366   4367     1  0.0000000  0.6508444  3
   4356   4354   4366   4368     1  0.0000000  0.6508444  3
   4357   4360   4369   4370     1  0.0000000  0.6508444  3
   4357   4360   4369   4371     1  0.0000000  0.6508444  3
   4358   4357   4360   4369     1  0.0000000  0.6508444  3
   4358   4357   4360   4361     1  0.0000000  0.6508444  3
   4358   4357   4360   4362     1  0.0000000  0.6508444  3
   4359   4357   4360   4369     1  0.0000000  0.6508444  3
   4359   4357   4360   4361     1  0.0000000  0.6508444  3
   4359   4357   4360   4362     1  0.0000000  0.6508444  3
   4361   4360   4369   4378     1  0.0000000  1.0460000  1
   4361   4360   4369   4378     1  0.0000000  0.0000000  3
   4361   4360   4369   4370     1  0.0000000  0.6508444  3
   4361   4360   4369   4371     1  0.0000000  0.6508444  3
   4362   4360   4369   4378     1  0.0000000  1.0460000  1
   4362   4360   4369   4378     1  0.0000000  0.0000000  3
   4362   4360   4369   4370     1  0.0000000  0.6508444  3
   4362   4360   4369   4371     1  0.0000000  0.6508444  3
   4364   4363   4375   8503     1  0.0000000  1.0460000  1
   4364   4363   4375   8503     1  0.0000000  0.0000000  3
   4364   4363   4375   4376     1  0.0000000  0.6508444  3
   4364   4363   4375   4377     1  0.0000000  0.6508444  3
   4365   4363   4375   8503     1  0.0000000  1.0460000  1
   4365   4363   4375   8503     1  0.0000000  0.0000000  3
   4365   4363   4375   4376     1  0.0000000  0.6508444  3
   4365   4363   4375   4377     1  0.0000000  0.6508444  3
   4367   4366   4372   8480     1  0.0000000  1.0460000  1
   4367   4366   4372   8480     1  0.0000000  0.0000000  3
   4367   4366   4372   4373     1  0.0000000  0.6508444  3
   4367   4366   4372   4374     1  0.0000000  0.6508444  3
   4368   4366   4372   8480     1  0.0000000  1.0460000  1
   4368   4366   4372   8480     1  0.0000000  0.0000000  3
   4368   4366   4372   4373     1  0.0000000  0.6508444  3
   4368   4366   4372   4374     1  0.0000000  0.6508444  3
   4372   8480   8476   8479     1  0.0000000  1.6038667  3
   4373   4372   8480   8476     1  0.0000000  1.6038667  3
   4374   4372   8480   8476     1  0.0000000  1.6038667  3
   4375   8503   8499   8502     1  0.0000000  1.6038667  3
   4376   4375   8503   8499     1  0.0000000  1.6038667  3
   4377   4375   8503   8499     1  0.0000000  1.6038667  3
   4379   4380   4392   4393     1  0.0000000  0.6508444  3
   4379   4380   4392   4394     1  0.0000000  0.6508444  3
   4379   4383   4395   4396     1  0.0000000  0.6508444  3
   4379   4383   4395   4397     1  0.0000000  0.6508444  3
   4379   4386   4389   4390     1  0.0000000  0.6508444  3
   4379   4386   4389   4391     1  0.0000000  0.6508444  3
   4380   4379   4383   4384     1  0.0000000  1.2552000  3
   4380   4379   4383   4385     1  0.0000000  1.2552000  3
   4380   4379   4386   4387     1  0.0000000  1.2552000  3
   4380   4379   4386   4388     1  0.0000000  1.2552000  3
   4380   4392   4404   4405     1  0.0000000  0.6508444  3
   4380   4392   4404   4406     1  0.0000000  0.6508444  3
   4381   4380   4379   4383     1  0.0000000  1.2552000  3
   4381   4380   4379   4386     1  0.0000000  1.2552000  3
   4381   4380   4392   4404     1  0.0000000  0.6508444  3
   4381   4380   4392   4393     1  0.0000000  0.6508444  3
   4381   4380   4392   4394     1  0.0000000  0.6508444  3
   4382   4380   4379   4383     1  0.0000000  1.2552000  3
   4382   4380   4379   4386     1  0.0000000  1.2552000  3
   4382   4380   4392   4404     1  0.0000000  0.6508444  3
   4382   4380   4392   4393     1  0.0000000  0.6508444  3
   4382   4380   4392   4394     1  0.0000000  0.6508444  3
   4383   4379   4386   4387     1  0.0000000  1.2552000  3
   4383   4379   4386   4388     1  0.0000000  1.2552000  3
   4383   4395   4401   4402     1  0.0000000  0.6508444  3
   4383   4395   4401   4403     1  0.0000000  0.6508444  3
   4384   4383   4379   4386     1  0.0000000  1.2552000  3
   4384   4383   4395   4401     1  0.0000000  0.6508444  3
   4384   4383   4395   4396     1  0.0000000  0.6508444  3
   4384   4383   4395   4397     1  0.0000000  0.6508444  3
   4385   4383   4379   4386     1  0.0000000  1.2552000  3
   4385   4383   4395   4401     1  0.0000000  0.6508444  3
   4385   4383   4395   4396     1  0.0000000  0.6508444  3
   4385   4383   4395   4397     1  0.0000000  0.6508444  3
   4386   4389   4398   4399     1  0.0000000  0.6508444  3
   4386   4389   4398   4400     1  0.0000000  0.6508444  3
   4387   4386   4389   4398     1  0.0000000  0.6508444  3
   4387   4386   4389   4390     1  0.0000000  0.6508444  3
   4387   4386   4389   4391     1  0.0000000  0.6508444  3
   4388   4386   4389   4398     1  0.0000000  0.6508444  3
   4388   4386   4389   4390     1  0.0000000  0.6508444  3
   4388   4386   4389   4391     1  0.0000000  0.6508444  3
   4390   4389   4398   4407     1  0.0000000  1.0460000  1
   4390   4389   4398   4407     1  0.0000000  0.0000000  3
   4390   4389   4398   4399     1  0.0000000  0.6508444  3
   4390   4389   4398   4400     1  0.0000000  0.6508444  3
   4391   4389   4398   4407     1  0.0000000  1.0460000  1
   4391   4389   4398   4407     1  0.0000000  0.0000000  3
   4391   4389   4398   4399     1  0.0000000  0.6508444  3
   4391   4389   4398   4400     1  0.0000000  0.6508444  3
   4393   4392   4404   8549     1  0.0000000  1.0460000  1
   4393   4392   4404   8549     1  0.0000000  0.0000000  3
   4393   4392   4404   4405     1  0.0000000  0.6508444  3
   4393   4392   4404   4406     1  0.0000000  0.6508444  3
   4394   4392   4404   8549     1  0.0000000  1.0460000  1
   4394   4392   4404   8549     1  0.0000000  0.0000000  3
   4394   4392   4404   4405     1  0.0000000  0.6508444  3
   4394   4392   4404   4406     1  0.0000000  0.6508444  3
   4396   4395   4401   8526     1  0.0000000  1.0460000  1
   4396   4395   4401   8526     1  0.0000000  0.0000000  3
   4396   4395   4401   4402     1  0.0000000  0.6508444  3
   4396   4395   4401   4403     1  0.0000000  0.6508444  3
   4397   4395   4401   8526     1  0.0000000  1.0460000  1
   4397   4395   4401   8526     1  0.0000000  0.0000000  3
   4397   4395   4401   4402     1  0.0000000  0.6508444  3
   4397   4395   4401   4403     1  0.0000000  0.6508444  3
   4401   8526   8522   8525     1  0.0000000  1.6038667  3
   4402   4401   8526   8522     1  0.0000000  1.6038667  3
   4403   4401   8526   8522     1  0.0000000  1.6038667  3
   4404   8549   8545   8548     1  0.0000000  1.6038667  3
   4405   4404   8549   8545     1  0.0000000  1.6038667  3
   4406   4404   8549   8545     1  0.0000000  1.6038667  3
   4408   4409   4421   4422     1  0.0000000  0.6508444  3
   4408   4409   4421   4423     1  0.0000000  0.6508444  3
   4408   4412   4424   4425     1  0.0000000  0.6508444  3
   4408   4412   4424   4426     1  0.0000000  0.6508444  3
   4408   4415   4418   4419     1  0.0000000  0.6508444  3
   4408   4415   4418   4420     1  0.0000000  0.6508444  3
   4409   4408   4412   4413     1  0.0000000  1.2552000  3
   4409   4408   4412   4414     1  0.0000000  1.2552000  3
   4409   4408   4415   4416     1  0.0000000  1.2552000  3
   4409   4408   4415   4417     1  0.0000000  1.2552000  3
   4409   4421   4433   4434     1  0.0000000  0.6508444  3
   4409   4421   4433   4435     1  0.0000000  0.6508444  3
   4410   4409   4408   4412     1  0.0000000  1.2552000  3
   4410   4409   4408   4415     1  0.0000000  1.2552000  3
   4410   4409   4421   4433     1  0.0000000  0.6508444  3
   4410   4409   4421   4422     1  0.0000000  0.6508444  3
   4410   4409   4421   4423     1  0.0000000  0.6508444  3
   4411   4409   4408   4412     1  0.0000000  1.2552000  3
   4411   4409   4408   4415     1  0.0000000  1.2552000  3
   4411   4409   4421   4433     1  0.0000000  0.6508444  3
   4411   4409   4421   4422     1  0.0000000  0.6508444  3
   4411   4409   4421   4423     1  0.0000000  0.6508444  3
   4412   4408   4415   4416     1  0.0000000  1.2552000  3
   4412   4408   4415   4417     1  0.0000000  1.2552000  3
   4412   4424   4430   4431     1  0.0000000  0.6508444  3
   4412   4424   4430   4432     1  0.0000000  0.6508444  3
   4413   4412   4408   4415     1  0.0000000  1.2552000  3
   4413   4412   4424   4430     1  0.0000000  0.6508444  3
   4413   4412   4424   4425     1  0.0000000  0.6508444  3
   4413   4412   4424   4426     1  0.0000000  0.6508444  3
   4414   4412   4408   4415     1  0.0000000  1.2552000  3
   4414   4412   4424   4430     1  0.0000000  0.6508444  3
   4414   4412   4424   4425     1  0.0000000  0.6508444  3
   4414   4412   4424   4426     1  0.0000000  0.6508444  3
   4415   4418   4427   4428     1  0.0000000  0.6508444  3
   4415   4418   4427   4429     1  0.0000000  0.6508444  3
   4416   4415   4418   4427     1  0.0000000  0.6508444  3
   4416   4415   4418   4419     1  0.0000000  0.6508444  3
   4416   4415   4418   4420     1  0.0000000  0.6508444  3
   4417   4415   4418   4427     1  0.0000000  0.6508444  3
   4417   4415   4418   4419     1  0.0000000  0.6508444  3
   4417   4415   4418   4420     1  0.0000000  0.6508444  3
   4419   4418   4427   4436     1  0.0000000  1.0460000  1
   4419   4418   4427   4436     1  0.0000000  0.0000000  3
   4419   4418   4427   4428     1  0.0000000  0.6508444  3
   4419   4418   4427   4429     1  0.0000000  0.6508444  3
   4420   4418   4427   4436     1  0.0000000  1.0460000  1
   4420   4418   4427   4436     1  0.0000000  0.0000000  3
   4420   4418   4427   4428     1  0.0000000  0.6508444  3
   4420   4418   4427   4429     1  0.0000000  0.6508444  3
   4422   4421   4433   8595     1  0.0000000  1.0460000  1
   4422   4421   4433   8595     1  0.0000000  0.0000000  3
   4422   4421   4433   4434     1  0.0000000  0.6508444  3
   4422   4421   4433   4435     1  0.0000000  0.6508444  3
   4423   4421   4433   8595     1  0.0000000  1.0460000  1
   4423   4421   4433   8595     1  0.0000000  0.0000000  3
   4423   4421   4433   4434     1  0.0000000  0.6508444  3
   4423   4421   4433   4435     1  0.0000000  0.6508444  3
   4425   4424   4430   8572     1  0.0000000  1.0460000  1
   4425   4424   4430   8572     1  0.0000000  0.0000000  3
   4425   4424   4430   4431     1  0.0000000  0.6508444  3
   4425   4424   4430   4432     1  0.0000000  0.6508444  3
   4426   4424   4430   8572     1  0.0000000  1.0460000  1
   4426   4424   4430   8572     1  0.0000000  0.0000000  3
   4426   4424   4430   4431     1  0.0000000  0.6508444  3
   4426   4424   4430   4432     1  0.0000000  0.6508444  3
   4430   8572   8568   8571     1  0.0000000  1.6038667  3
   4431   4430   8572   8568     1  0.0000000  1.6038667  3
   4432   4430   8572   8568     1  0.0000000  1.6038667  3
   4433   8595   8591   8594     1  0.0000000  1.6038667  3
   4434   4433   8595   8591     1  0.0000000  1.6038667  3
   4435   4433   8595   8591     1  0.0000000  1.6038667  3
   4437   4438   4450   4451     1  0.0000000  0.6508444  3
   4437   4438   4450   4452     1  0.0000000  0.6508444  3
   4437   4441   4453   4454     1  0.0000000  0.6508444  3
   4437   4441   4453   4455     1  0.0000000  0.6508444  3
   4437   4444   4447   4448     1  0.0000000  0.6508444  3
   4437   4444   4447   4449     1  0.0000000  0.6508444  3
   4438   4437   4441   4442     1  0.0000000  1.2552000  3
   4438   4437   4441   4443     1  0.0000000  1.2552000  3
   4438   4437   4444   4445     1  0.0000000  1.2552000  3
   4438   4437   4444   4446     1  0.0000000  1.2552000  3
   4438   4450   4462   4463     1  0.0000000  0.6508444  3
   4438   4450   4462   4464     1  0.0000000  0.6508444  3
   4439   4438   4437   4441     1  0.0000000  1.2552000  3
   4439   4438   4437   4444     1  0.0000000  1.2552000  3
   4439   4438   4450   4462     1  0.0000000  0.6508444  3
   4439   4438   4450   4451     1  0.0000000  0.6508444  3
   4439   4438   4450   4452     1  0.0000000  0.6508444  3
   4440   4438   4437   4441     1  0.0000000  1.2552000  3
   4440   4438   4437   4444     1  0.0000000  1.2552000  3
   4440   4438   4450   4462     1  0.0000000  0.6508444  3
   4440   4438   4450   4451     1  0.0000000  0.6508444  3
   4440   4438   4450   4452     1  0.0000000  0.6508444  3
   4441   4437   4444   4445     1  0.0000000  1.2552000  3
   4441   4437   4444   4446     1  0.0000000  1.2552000  3
   4441   4453   4459   4460     1  0.0000000  0.6508444  3
   4441   4453   4459   4461     1  0.0000000  0.6508444  3
   4442   4441   4437   4444     1  0.0000000  1.2552000  3
   4442   4441   4453   4459     1  0.0000000  0.6508444  3
   4442   4441   4453   4454     1  0.0000000  0.6508444  3
   4442   4441   4453   4455     1  0.0000000  0.6508444  3
   4443   4441   4437   4444     1  0.0000000  1.2552000  3
   4443   4441   4453   4459     1  0.0000000  0.6508444  3
   4443   4441   4453   4454     1  0.0000000  0.6508444  3
   4443   4441   4453   4455     1  0.0000000  0.6508444  3
   4444   4447   4456   4457     1  0.0000000  0.6508444  3
   4444   4447   4456   4458     1  0.0000000  0.6508444  3
   4445   4444   4447   4456     1  0.0000000  0.6508444  3
   4445   4444   4447   4448     1  0.0000000  0.6508444  3
   4445   4444   4447   4449     1  0.0000000  0.6508444  3
   4446   4444   4447   4456     1  0.0000000  0.6508444  3
   4446   4444   4447   4448     1  0.0000000  0.6508444  3
   4446   4444   4447   4449     1  0.0000000  0.6508444  3
   4448   4447   4456   4465     1  0.0000000  1.0460000  1
   4448   4447   4456   4465     1  0.0000000  0.0000000  3
   4448   4447   4456   4457     1  0.0000000  0.6508444  3
   4448   4447   4456   4458     1  0.0000000  0.6508444  3
   4449   4447   4456   4465     1  0.0000000  1.0460000  1
   4449   4447   4456   4465     1  0.0000000  0.0000000  3
   4449   4447   4456   4457     1  0.0000000  0.6508444  3
   4449   4447   4456   4458     1  0.0000000  0.6508444  3
   4451   4450   4462   8641     1  0.0000000  1.0460000  1
   4451   4450   4462   8641     1  0.0000000  0.0000000  3
   4451   4450   4462   4463     1  0.0000000  0.6508444  3
   4451   4450   4462   4464     1  0.0000000  0.6508444  3
   4452   4450   4462   8641     1  0.0000000  1.0460000  1
   4452   4450   4462   8641     1  0.0000000  0.0000000  3
   4452   4450   4462   4463     1  0.0000000  0.6508444  3
   4452   4450   4462   4464     1  0.0000000  0.6508444  3
   4454   4453   4459   8618     1  0.0000000  1.0460000  1
   4454   4453   4459   8618     1  0.0000000  0.0000000  3
   4454   4453   4459   4460     1  0.0000000  0.6508444  3
   4454   4453   4459   4461     1  0.0000000  0.6508444  3
   4455   4453   4459   8618     1  0.0000000  1.0460000  1
   4455   4453   4459   8618     1  0.0000000  0.0000000  3
   4455   4453   4459   4460     1  0.0000000  0.6508444  3
   4455   4453   4459   4461     1  0.0000000  0.6508444  3
   4459   8618   8614   8617     1  0.0000000  1.6038667  3
   4460   4459   8618   8614     1  0.0000000  1.6038667  3
   4461   4459   8618   8614     1  0.0000000  1.6038667  3
   4462   8641   8637   8640     1  0.0000000  1.6038667  3
   4463   4462   8641   8637     1  0.0000000  1.6038667  3
   4464   4462   8641   8637     1  0.0000000  1.6038667  3
   4466   4467   4479   4480     1  0.0000000  0.6508444  3
   4466   4467   4479   4481     1  0.0000000  0.6508444  3
   4466   4470   4482   4483     1  0.0000000  0.6508444  3
   4466   4470   4482   4484     1  0.0000000  0.6508444  3
   4466   4473   4476   4477     1  0.0000000  0.6508444  3
   4466   4473   4476   4478     1  0.0000000  0.6508444  3
   4467   4466   4470   4471     1  0.0000000  1.2552000  3
   4467   4466   4470   4472     1  0.0000000  1.2552000  3
   4467   4466   4473   4474     1  0.0000000  1.2552000  3
   4467   4466   4473   4475     1  0.0000000  1.2552000  3
   4467   4479   4491   4492     1  0.0000000  0.6508444  3
   4467   4479   4491   4493     1  0.0000000  0.6508444  3
   4468   4467   4466   4470     1  0.0000000  1.2552000  3
   4468   4467   4466   4473     1  0.0000000  1.2552000  3
   4468   4467   4479   4491     1  0.0000000  0.6508444  3
   4468   4467   4479   4480     1  0.0000000  0.6508444  3
   4468   4467   4479   4481     1  0.0000000  0.6508444  3
   4469   4467   4466   4470     1  0.0000000  1.2552000  3
   4469   4467   4466   4473     1  0.0000000  1.2552000  3
   4469   4467   4479   4491     1  0.0000000  0.6508444  3
   4469   4467   4479   4480     1  0.0000000  0.6508444  3
   4469   4467   4479   4481     1  0.0000000  0.6508444  3
   4470   4466   4473   4474     1  0.0000000  1.2552000  3
   4470   4466   4473   4475     1  0.0000000  1.2552000  3
   4470   4482   4488   4489     1  0.0000000  0.6508444  3
   4470   4482   4488   4490     1  0.0000000  0.6508444  3
   4471   4470   4466   4473     1  0.0000000  1.2552000  3
   4471   4470   4482   4488     1  0.0000000  0.6508444  3
   4471   4470   4482   4483     1  0.0000000  0.6508444  3
   4471   4470   4482   4484     1  0.0000000  0.6508444  3
   4472   4470   4466   4473     1  0.0000000  1.2552000  3
   4472   4470   4482   4488     1  0.0000000  0.6508444  3
   4472   4470   4482   4483     1  0.0000000  0.6508444  3
   4472   4470   4482   4484     1  0.0000000  0.6508444  3
   4473   4476   4485   4486     1  0.0000000  0.6508444  3
   4473   4476   4485   4487     1  0.0000000  0.6508444  3
   4474   4473   4476   4485     1  0.0000000  0.6508444  3
   4474   4473   4476   4477     1  0.0000000  0.6508444  3
   4474   4473   4476   4478     1  0.0000000  0.6508444  3
   4475   4473   4476   4485     1  0.0000000  0.6508444  3
   4475   4473   4476   4477     1  0.0000000  0.6508444  3
   4475   4473   4476   4478     1  0.0000000  0.6508444  3
   4477   4476   4485   4494     1  0.0000000  1.0460000  1
   4477   4476   4485   4494     1  0.0000000  0.0000000  3
   4477   4476   4485   4486     1  0.0000000  0.6508444  3
   4477   4476   4485   4487     1  0.0000000  0.6508444  3
   4478   4476   4485   4494     1  0.0000000  1.0460000  1
   4478   4476   4485   4494     1  0.0000000  0.0000000  3
   4478   4476   4485   4486     1  0.0000000  0.6508444  3
   4478   4476   4485   4487     1  0.0000000  0.6508444  3
   4480   4479   4491   8687     1  0.0000000  1.0460000  1
   4480   4479   4491   8687     1  0.0000000  0.0000000  3
   4480   4479   4491   4492     1  0.0000000  0.6508444  3
   4480   4479   4491   4493     1  0.0000000  0.6508444  3
   4481   4479   4491   8687     1  0.0000000  1.0460000  1
   4481   4479   4491   8687     1  0.0000000  0.0000000  3
   4481   4479   4491   4492     1  0.0000000  0.6508444  3
   4481   4479   4491   4493     1  0.0000000  0.6508444  3
   4483   4482   4488   8664     1  0.0000000  1.0460000  1
   4483   4482   4488   8664     1  0.0000000  0.0000000  3
   4483   4482   4488   4489     1  0.0000000  0.6508444  3
   4483   4482   4488   4490     1  0.0000000  0.6508444  3
   4484   4482   4488   8664     1  0.0000000  1.0460000  1
   4484   4482   4488   8664     1  0.0000000  0.0000000  3
   4484   4482   4488   4489     1  0.0000000  0.6508444  3
   4484   4482   4488   4490     1  0.0000000  0.6508444  3
   4488   8664   8660   8663     1  0.0000000  1.6038667  3
   4489   4488   8664   8660     1  0.0000000  1.6038667  3
   4490   4488   8664   8660     1  0.0000000  1.6038667  3
   4491   8687   8683   8686     1  0.0000000  1.6038667  3
   4492   4491   8687   8683     1  0.0000000  1.6038667  3
   4493   4491   8687   8683     1  0.0000000  1.6038667  3
   4495   4496   4508   4509     1  0.0000000  0.6508444  3
   4495   4496   4508   4510     1  0.0000000  0.6508444  3
   4495   4499   4511   4512     1  0.0000000  0.6508444  3
   4495   4499   4511   4513     1  0.0000000  0.6508444  3
   4495   4502   4505   4506     1  0.0000000  0.6508444  3
   4495   4502   4505   4507     1  0.0000000  0.6508444  3
   4496   4495   4499   4500     1  0.0000000  1.2552000  3
   4496   4495   4499   4501     1  0.0000000  1.2552000  3
   4496   4495   4502   4503     1  0.0000000  1.2552000  3
   4496   4495   4502   4504     1  0.0000000  1.2552000  3
   4496   4508   4520   4521     1  0.0000000  0.6508444  3
   4496   4508   4520   4522     1  0.0000000  0.6508444  3
   4497   4496   4495   4499     1  0.0000000  1.2552000  3
   4497   4496   4495   4502     1  0.0000000  1.2552000  3
   4497   4496   4508   4520     1  0.0000000  0.6508444  3
   4497   4496   4508   4509     1  0.0000000  0.6508444  3
   4497   4496   4508   4510     1  0.0000000  0.6508444  3
   4498   4496   4495   4499     1  0.0000000  1.2552000  3
   4498   4496   4495   4502     1  0.0000000  1.2552000  3
   4498   4496   4508   4520     1  0.0000000  0.6508444  3
   4498   4496   4508   4509     1  0.0000000  0.6508444  3
   4498   4496   4508   4510     1  0.0000000  0.6508444  3
   4499   4495   4502   4503     1  0.0000000  1.2552000  3
   4499   4495   4502   4504     1  0.0000000  1.2552000  3
   4499   4511   4517   4518     1  0.0000000  0.6508444  3
   4499   4511   4517   4519     1  0.0000000  0.6508444  3
   4500   4499   4495   4502     1  0.0000000  1.2552000  3
   4500   4499   4511   4517     1  0.0000000  0.6508444  3
   4500   4499   4511   4512     1  0.0000000  0.6508444  3
   4500   4499   4511   4513     1  0.0000000  0.6508444  3
   4501   4499   4495   4502     1  0.0000000  1.2552000  3
   4501   4499   4511   4517     1  0.0000000  0.6508444  3
   4501   4499   4511   4512     1  0.0000000  0.6508444  3
   4501   4499   4511   4513     1  0.0000000  0.6508444  3
   4502   4505   4514   4515     1  0.0000000  0.6508444  3
   4502   4505   4514   4516     1  0.0000000  0.6508444  3
   4503   4502   4505   4514     1  0.0000000  0.6508444  3
   4503   4502   4505   4506     1  0.0000000  0.6508444  3
   4503   4502   4505   4507     1  0.0000000  0.6508444  3
   4504   4502   4505   4514     1  0.0000000  0.6508444  3
   4504   4502   4505   4506     1  0.0000000  0.6508444  3
   4504   4502   4505   4507     1  0.0000000  0.6508444  3
   4506   4505   4514   4523     1  0.0000000  1.0460000  1
   4506   4505   4514   4523     1  0.0000000  0.0000000  3
   4506   4505   4514   4515     1  0.0000000  0.6508444  3
   4506   4505   4514   4516     1  0.0000000  0.6508444  3
   4507   4505   4514   4523     1  0.0000000  1.0460000  1
   4507   4505   4514   4523     1  0.0000000  0.0000000  3
   4507   4505   4514   4515     1  0.0000000  0.6508444  3
   4507   4505   4514   4516     1  0.0000000  0.6508444  3
   4509   4508   4520   8733     1  0.0000000  1.0460000  1
   4509   4508   4520   8733     1  0.0000000  0.0000000  3
   4509   4508   4520   4521     1  0.0000000  0.6508444  3
   4509   4508   4520   4522     1  0.0000000  0.6508444  3
   4510   4508   4520   8733     1  0.0000000  1.0460000  1
   4510   4508   4520   8733     1  0.0000000  0.0000000  3
   4510   4508   4520   4521     1  0.0000000  0.6508444  3
   4510   4508   4520   4522     1  0.0000000  0.6508444  3
   4512   4511   4517   8710     1  0.0000000  1.0460000  1
   4512   4511   4517   8710     1  0.0000000  0.0000000  3
   4512   4511   4517   4518     1  0.0000000  0.6508444  3
   4512   4511   4517   4519     1  0.0000000  0.6508444  3
   4513   4511   4517   8710     1  0.0000000  1.0460000  1
   4513   4511   4517   8710     1  0.0000000  0.0000000  3
   4513   4511   4517   4518     1  0.0000000  0.6508444  3
   4513   4511   4517   4519     1  0.0000000  0.6508444  3
   4517   8710   8706   8709     1  0.0000000  1.6038667  3
   4518   4517   8710   8706     1  0.0000000  1.6038667  3
   4519   4517   8710   8706     1  0.0000000  1.6038667  3
   4520   8733   8729   8732     1  0.0000000  1.6038667  3
   4521   4520   8733   8729     1  0.0000000  1.6038667  3
   4522   4520   8733   8729     1  0.0000000  1.6038667  3
   4524   4525   4537   4538     1  0.0000000  0.6508444  3
   4524   4525   4537   4539     1  0.0000000  0.6508444  3
   4524   4528   4540   4541     1  0.0000000  0.6508444  3
   4524   4528   4540   4542     1  0.0000000  0.6508444  3
   4524   4531   4534   4535     1  0.0000000  0.6508444  3
   4524   4531   4534   4536     1  0.0000000  0.6508444  3
   4525   4524   4528   4529     1  0.0000000  1.2552000  3
   4525   4524   4528   4530     1  0.0000000  1.2552000  3
   4525   4524   4531   4532     1  0.0000000  1.2552000  3
   4525   4524   4531   4533     1  0.0000000  1.2552000  3
   4525   4537   4549   4550     1  0.0000000  0.6508444  3
   4525   4537   4549   4551     1  0.0000000  0.6508444  3
   4526   4525   4524   4528     1  0.0000000  1.2552000  3
   4526   4525   4524   4531     1  0.0000000  1.2552000  3
   4526   4525   4537   4549     1  0.0000000  0.6508444  3
   4526   4525   4537   4538     1  0.0000000  0.6508444  3
   4526   4525   4537   4539     1  0.0000000  0.6508444  3
   4527   4525   4524   4528     1  0.0000000  1.2552000  3
   4527   4525   4524   4531     1  0.0000000  1.2552000  3
   4527   4525   4537   4549     1  0.0000000  0.6508444  3
   4527   4525   4537   4538     1  0.0000000  0.6508444  3
   4527   4525   4537   4539     1  0.0000000  0.6508444  3
   4528   4524   4531   4532     1  0.0000000  1.2552000  3
   4528   4524   4531   4533     1  0.0000000  1.2552000  3
   4528   4540   4546   4547     1  0.0000000  0.6508444  3
   4528   4540   4546   4548     1  0.0000000  0.6508444  3
   4529   4528   4524   4531     1  0.0000000  1.2552000  3
   4529   4528   4540   4546     1  0.0000000  0.6508444  3
   4529   4528   4540   4541     1  0.0000000  0.6508444  3
   4529   4528   4540   4542     1  0.0000000  0.6508444  3
   4530   4528   4524   4531     1  0.0000000  1.2552000  3
   4530   4528   4540   4546     1  0.0000000  0.6508444  3
   4530   4528   4540   4541     1  0.0000000  0.6508444  3
   4530   4528   4540   4542     1  0.0000000  0.6508444  3
   4531   4534   4543   4544     1  0.0000000  0.6508444  3
   4531   4534   4543   4545     1  0.0000000  0.6508444  3
   4532   4531   4534   4543     1  0.0000000  0.6508444  3
   4532   4531   4534   4535     1  0.0000000  0.6508444  3
   4532   4531   4534   4536     1  0.0000000  0.6508444  3
   4533   4531   4534   4543     1  0.0000000  0.6508444  3
   4533   4531   4534   4535     1  0.0000000  0.6508444  3
   4533   4531   4534   4536     1  0.0000000  0.6508444  3
   4535   4534   4543   4552     1  0.0000000  1.0460000  1
   4535   4534   4543   4552     1  0.0000000  0.0000000  3
   4535   4534   4543   4544     1  0.0000000  0.6508444  3
   4535   4534   4543   4545     1  0.0000000  0.6508444  3
   4536   4534   4543   4552     1  0.0000000  1.0460000  1
   4536   4534   4543   4552     1  0.0000000  0.0000000  3
   4536   4534   4543   4544     1  0.0000000  0.6508444  3
   4536   4534   4543   4545     1  0.0000000  0.6508444  3
   4538   4537   4549   8779     1  0.0000000  1.0460000  1
   4538   4537   4549   8779     1  0.0000000  0.0000000  3
   4538   4537   4549   4550     1  0.0000000  0.6508444  3
   4538   4537   4549   4551     1  0.0000000  0.6508444  3
   4539   4537   4549   8779     1  0.0000000  1.0460000  1
   4539   4537   4549   8779     1  0.0000000  0.0000000  3
   4539   4537   4549   4550     1  0.0000000  0.6508444  3
   4539   4537   4549   4551     1  0.0000000  0.6508444  3
   4541   4540   4546   8756     1  0.0000000  1.0460000  1
   4541   4540   4546   8756     1  0.0000000  0.0000000  3
   4541   4540   4546   4547     1  0.0000000  0.6508444  3
   4541   4540   4546   4548     1  0.0000000  0.6508444  3
   4542   4540   4546   8756     1  0.0000000  1.0460000  1
   4542   4540   4546   8756     1  0.0000000  0.0000000  3
   4542   4540   4546   4547     1  0.0000000  0.6508444  3
   4542   4540   4546   4548     1  0.0000000  0.6508444  3
   4546   8756   8752   8755     1  0.0000000  1.6038667  3
   4547   4546   8756   8752     1  0.0000000  1.6038667  3
   4548   4546   8756   8752     1  0.0000000  1.6038667  3
   4549   8779   8775   8778     1  0.0000000  1.6038667  3
   4550   4549   8779   8775     1  0.0000000  1.6038667  3
   4551   4549   8779   8775     1  0.0000000  1.6038667  3
   4553   4554   4566   4567     1  0.0000000  0.6508444  3
   4553   4554   4566   4568     1  0.0000000  0.6508444  3
   4553   4557   4569   4570     1  0.0000000  0.6508444  3
   4553   4557   4569   4571     1  0.0000000  0.6508444  3
   4553   4560   4563   4564     1  0.0000000  0.6508444  3
   4553   4560   4563   4565     1  0.0000000  0.6508444  3
   4554   4553   4557   4558     1  0.0000000  1.2552000  3
   4554   4553   4557   4559     1  0.0000000  1.2552000  3
   4554   4553   4560   4561     1  0.0000000  1.2552000  3
   4554   4553   4560   4562     1  0.0000000  1.2552000  3
   4554   4566   4578   4579     1  0.0000000  0.6508444  3
   4554   4566   4578   4580     1  0.0000000  0.6508444  3
   4555   4554   4553   4557     1  0.0000000  1.2552000  3
   4555   4554   4553   4560     1  0.0000000  1.2552000  3
   4555   4554   4566   4578     1  0.0000000  0.6508444  3
   4555   4554   4566   4567     1  0.0000000  0.6508444  3
   4555   4554   4566   4568     1  0.0000000  0.6508444  3
   4556   4554   4553   4557     1  0.0000000  1.2552000  3
   4556   4554   4553   4560     1  0.0000000  1.2552000  3
   4556   4554   4566   4578     1  0.0000000  0.6508444  3
   4556   4554   4566   4567     1  0.0000000  0.6508444  3
   4556   4554   4566   4568     1  0.0000000  0.6508444  3
   4557   4553   4560   4561     1  0.0000000  1.2552000  3
   4557   4553   4560   4562     1  0.0000000  1.2552000  3
   4557   4569   4575   4576     1  0.0000000  0.6508444  3
   4557   4569   4575   4577     1  0.0000000  0.6508444  3
   4558   4557   4553   4560     1  0.0000000  1.2552000  3
   4558   4557   4569   4575     1  0.0000000  0.6508444  3
   4558   4557   4569   4570     1  0.0000000  0.6508444  3
   4558   4557   4569   4571     1  0.0000000  0.6508444  3
   4559   4557   4553   4560     1  0.0000000  1.2552000  3
   4559   4557   4569   4575     1  0.0000000  0.6508444  3
   4559   4557   4569   4570     1  0.0000000  0.6508444  3
   4559   4557   4569   4571     1  0.0000000  0.6508444  3
   4560   4563   4572   4573     1  0.0000000  0.6508444  3
   4560   4563   4572   4574     1  0.0000000  0.6508444  3
   4561   4560   4563   4572     1  0.0000000  0.6508444  3
   4561   4560   4563   4564     1  0.0000000  0.6508444  3
   4561   4560   4563   4565     1  0.0000000  0.6508444  3
   4562   4560   4563   4572     1  0.0000000  0.6508444  3
   4562   4560   4563   4564     1  0.0000000  0.6508444  3
   4562   4560   4563   4565     1  0.0000000  0.6508444  3
   4564   4563   4572   4581     1  0.0000000  1.0460000  1
   4564   4563   4572   4581     1  0.0000000  0.0000000  3
   4564   4563   4572   4573     1  0.0000000  0.6508444  3
   4564   4563   4572   4574     1  0.0000000  0.6508444  3
   4565   4563   4572   4581     1  0.0000000  1.0460000  1
   4565   4563   4572   4581     1  0.0000000  0.0000000  3
   4565   4563   4572   4573     1  0.0000000  0.6508444  3
   4565   4563   4572   4574     1  0.0000000  0.6508444  3
   4567   4566   4578   8825     1  0.0000000  1.0460000  1
   4567   4566   4578   8825     1  0.0000000  0.0000000  3
   4567   4566   4578   4579     1  0.0000000  0.6508444  3
   4567   4566   4578   4580     1  0.0000000  0.6508444  3
   4568   4566   4578   8825     1  0.0000000  1.0460000  1
   4568   4566   4578   8825     1  0.0000000  0.0000000  3
   4568   4566   4578   4579     1  0.0000000  0.6508444  3
   4568   4566   4578   4580     1  0.0000000  0.6508444  3
   4570   4569   4575   8802     1  0.0000000  1.0460000  1
   4570   4569   4575   8802     1  0.0000000  0.0000000  3
   4570   4569   4575   4576     1  0.0000000  0.6508444  3
   4570   4569   4575   4577     1  0.0000000  0.6508444  3
   4571   4569   4575   8802     1  0.0000000  1.0460000  1
   4571   4569   4575   8802     1  0.0000000  0.0000000  3
   4571   4569   4575   4576     1  0.0000000  0.6508444  3
   4571   4569   4575   4577     1  0.0000000  0.6508444  3
   4575   8802   8798   8801     1  0.0000000  1.6038667  3
   4576   4575   8802   8798     1  0.0000000  1.6038667  3
   4577   4575   8802   8798     1  0.0000000  1.6038667  3
   4578   8825   8821   8824     1  0.0000000  1.6038667  3
   4579   4578   8825   8821     1  0.0000000  1.6038667  3
   4580   4578   8825   8821     1  0.0000000  1.6038667  3
   4582   4583   4595   4596     1  0.0000000  0.6508444  3
   4582   4583   4595   4597     1  0.0000000  0.6508444  3
   4582   4586   4598   4599     1  0.0000000  0.6508444  3
   4582   4586   4598   4600     1  0.0000000  0.6508444  3
   4582   4589   4592   4593     1  0.0000000  0.6508444  3
   4582   4589   4592   4594     1  0.0000000  0.6508444  3
   4583   4582   4586   4587     1  0.0000000  1.2552000  3
   4583   4582   4586   4588     1  0.0000000  1.2552000  3
   4583   4582   4589   4590     1  0.0000000  1.2552000  3
   4583   4582   4589   4591     1  0.0000000  1.2552000  3
   4583   4595   4607   4608     1  0.0000000  0.6508444  3
   4583   4595   4607   4609     1  0.0000000  0.6508444  3
   4584   4583   4582   4586     1  0.0000000  1.2552000  3
   4584   4583   4582   4589     1  0.0000000  1.2552000  3
   4584   4583   4595   4607     1  0.0000000  0.6508444  3
   4584   4583   4595   4596     1  0.0000000  0.6508444  3
   4584   4583   4595   4597     1  0.0000000  0.6508444  3
   4585   4583   4582   4586     1  0.0000000  1.2552000  3
   4585   4583   4582   4589     1  0.0000000  1.2552000  3
   4585   4583   4595   4607     1  0.0000000  0.6508444  3
   4585   4583   4595   4596     1  0.0000000  0.6508444  3
   4585   4583   4595   4597     1  0.0000000  0.6508444  3
   4586   4582   4589   4590     1  0.0000000  1.2552000  3
   4586   4582   4589   4591     1  0.0000000  1.2552000  3
   4586   4598   4604   4605     1  0.0000000  0.6508444  3
   4586   4598   4604   4606     1  0.0000000  0.6508444  3
   4587   4586   4582   4589     1  0.0000000  1.2552000  3
   4587   4586   4598   4604     1  0.0000000  0.6508444  3
   4587   4586   4598   4599     1  0.0000000  0.6508444  3
   4587   4586   4598   4600     1  0.0000000  0.6508444  3
   4588   4586   4582   4589     1  0.0000000  1.2552000  3
   4588   4586   4598   4604     1  0.0000000  0.6508444  3
   4588   4586   4598   4599     1  0.0000000  0.6508444  3
   4588   4586   4598   4600     1  0.0000000  0.6508444  3
   4589   4592   4601   4602     1  0.0000000  0.6508444  3
   4589   4592   4601   4603     1  0.0000000  0.6508444  3
   4590   4589   4592   4601     1  0.0000000  0.6508444  3
   4590   4589   4592   4593     1  0.0000000  0.6508444  3
   4590   4589   4592   4594     1  0.0000000  0.6508444  3
   4591   4589   4592   4601     1  0.0000000  0.6508444  3
   4591   4589   4592   4593     1  0.0000000  0.6508444  3
   4591   4589   4592   4594     1  0.0000000  0.6508444  3
   4593   4592   4601   4610     1  0.0000000  1.0460000  1
   4593   4592   4601   4610     1  0.0000000  0.0000000  3
   4593   4592   4601   4602     1  0.0000000  0.6508444  3
   4593   4592   4601   4603     1  0.0000000  0.6508444  3
   4594   4592   4601   4610     1  0.0000000  1.0460000  1
   4594   4592   4601   4610     1  0.0000000  0.0000000  3
   4594   4592   4601   4602     1  0.0000000  0.6508444  3
   4594   4592   4601   4603     1  0.0000000  0.6508444  3
   4596   4595   4607   8871     1  0.0000000  1.0460000  1
   4596   4595   4607   8871     1  0.0000000  0.0000000  3
   4596   4595   4607   4608     1  0.0000000  0.6508444  3
   4596   4595   4607   4609     1  0.0000000  0.6508444  3
   4597   4595   4607   8871     1  0.0000000  1.0460000  1
   4597   4595   4607   8871     1  0.0000000  0.0000000  3
   4597   4595   4607   4608     1  0.0000000  0.6508444  3
   4597   4595   4607   4609     1  0.0000000  0.6508444  3
   4599   4598   4604   8848     1  0.0000000  1.0460000  1
   4599   4598   4604   8848     1  0.0000000  0.0000000  3
   4599   4598   4604   4605     1  0.0000000  0.6508444  3
   4599   4598   4604   4606     1  0.0000000  0.6508444  3
   4600   4598   4604   8848     1  0.0000000  1.0460000  1
   4600   4598   4604   8848     1  0.0000000  0.0000000  3
   4600   4598   4604   4605     1  0.0000000  0.6508444  3
   4600   4598   4604   4606     1  0.0000000  0.6508444  3
   4604   8848   8844   8847     1  0.0000000  1.6038667  3
   4605   4604   8848   8844     1  0.0000000  1.6038667  3
   4606   4604   8848   8844     1  0.0000000  1.6038667  3
   4607   8871   8867   8870     1  0.0000000  1.6038667  3
   4608   4607   8871   8867     1  0.0000000  1.6038667  3
   4609   4607   8871   8867     1  0.0000000  1.6038667  3
   4611   4612   4624   4625     1  0.0000000  0.6508444  3
   4611   4612   4624   4626     1  0.0000000  0.6508444  3
   4611   4615   4627   4628     1  0.0000000  0.6508444  3
   4611   4615   4627   4629     1  0.0000000  0.6508444  3
   4611   4618   4621   4622     1  0.0000000  0.6508444  3
   4611   4618   4621   4623     1  0.0000000  0.6508444  3
   4612   4611   4615   4616     1  0.0000000  1.2552000  3
   4612   4611   4615   4617     1  0.0000000  1.2552000  3
   4612   4611   4618   4619     1  0.0000000  1.2552000  3
   4612   4611   4618   4620     1  0.0000000  1.2552000  3
   4612   4624   4636   4637     1  0.0000000  0.6508444  3
   4612   4624   4636   4638     1  0.0000000  0.6508444  3
   4613   4612   4611   4615     1  0.0000000  1.2552000  3
   4613   4612   4611   4618     1  0.0000000  1.2552000  3
   4613   4612   4624   4636     1  0.0000000  0.6508444  3
   4613   4612   4624   4625     1  0.0000000  0.6508444  3
   4613   4612   4624   4626     1  0.0000000  0.6508444  3
   4614   4612   4611   4615     1  0.0000000  1.2552000  3
   4614   4612   4611   4618     1  0.0000000  1.2552000  3
   4614   4612   4624   4636     1  0.0000000  0.6508444  3
   4614   4612   4624   4625     1  0.0000000  0.6508444  3
   4614   4612   4624   4626     1  0.0000000  0.6508444  3
   4615   4611   4618   4619     1  0.0000000  1.2552000  3
   4615   4611   4618   4620     1  0.0000000  1.2552000  3
   4615   4627   4633   4634     1  0.0000000  0.6508444  3
   4615   4627   4633   4635     1  0.0000000  0.6508444  3
   4616   4615   4611   4618     1  0.0000000  1.2552000  3
   4616   4615   4627   4633     1  0.0000000  0.6508444  3
   4616   4615   4627   4628     1  0.0000000  0.6508444  3
   4616   4615   4627   4629     1  0.0000000  0.6508444  3
   4617   4615   4611   4618     1  0.0000000  1.2552000  3
   4617   4615   4627   4633     1  0.0000000  0.6508444  3
   4617   4615   4627   4628     1  0.0000000  0.6508444  3
   4617   4615   4627   4629     1  0.0000000  0.6508444  3
   4618   4621   4630   4631     1  0.0000000  0.6508444  3
   4618   4621   4630   4632     1  0.0000000  0.6508444  3
   4619   4618   4621   4630     1  0.0000000  0.6508444  3
   4619   4618   4621   4622     1  0.0000000  0.6508444  3
   4619   4618   4621   4623     1  0.0000000  0.6508444  3
   4620   4618   4621   4630     1  0.0000000  0.6508444  3
   4620   4618   4621   4622     1  0.0000000  0.6508444  3
   4620   4618   4621   4623     1  0.0000000  0.6508444  3
   4622   4621   4630   4639     1  0.0000000  1.0460000  1
   4622   4621   4630   4639     1  0.0000000  0.0000000  3
   4622   4621   4630   4631     1  0.0000000  0.6508444  3
   4622   4621   4630   4632     1  0.0000000  0.6508444  3
   4623   4621   4630   4639     1  0.0000000  1.0460000  1
   4623   4621   4630   4639     1  0.0000000  0.0000000  3
   4623   4621   4630   4631     1  0.0000000  0.6508444  3
   4623   4621   4630   4632     1  0.0000000  0.6508444  3
   4625   4624   4636   8917     1  0.0000000  1.0460000  1
   4625   4624   4636   8917     1  0.0000000  0.0000000  3
   4625   4624   4636   4637     1  0.0000000  0.6508444  3
   4625   4624   4636   4638     1  0.0000000  0.6508444  3
   4626   4624   4636   8917     1  0.0000000  1.0460000  1
   4626   4624   4636   8917     1  0.0000000  0.0000000  3
   4626   4624   4636   4637     1  0.0000000  0.6508444  3
   4626   4624   4636   4638     1  0.0000000  0.6508444  3
   4628   4627   4633   8894     1  0.0000000  1.0460000  1
   4628   4627   4633   8894     1  0.0000000  0.0000000  3
   4628   4627   4633   4634     1  0.0000000  0.6508444  3
   4628   4627   4633   4635     1  0.0000000  0.6508444  3
   4629   4627   4633   8894     1  0.0000000  1.0460000  1
   4629   4627   4633   8894     1  0.0000000  0.0000000  3
   4629   4627   4633   4634     1  0.0000000  0.6508444  3
   4629   4627   4633   4635     1  0.0000000  0.6508444  3
   4633   8894   8890   8893     1  0.0000000  1.6038667  3
   4634   4633   8894   8890     1  0.0000000  1.6038667  3
   4635   4633   8894   8890     1  0.0000000  1.6038667  3
   4636   8917   8913   8916     1  0.0000000  1.6038667  3
   4637   4636   8917   8913     1  0.0000000  1.6038667  3
   4638   4636   8917   8913     1  0.0000000  1.6038667  3
   4640   4641   4653   4654     1  0.0000000  0.6508444  3
   4640   4641   4653   4655     1  0.0000000  0.6508444  3
   4640   4644   4656   4657     1  0.0000000  0.6508444  3
   4640   4644   4656   4658     1  0.0000000  0.6508444  3
   4640   4647   4650   4651     1  0.0000000  0.6508444  3
   4640   4647   4650   4652     1  0.0000000  0.6508444  3
   4641   4640   4644   4645     1  0.0000000  1.2552000  3
   4641   4640   4644   4646     1  0.0000000  1.2552000  3
   4641   4640   4647   4648     1  0.0000000  1.2552000  3
   4641   4640   4647   4649     1  0.0000000  1.2552000  3
   4641   4653   4665   4666     1  0.0000000  0.6508444  3
   4641   4653   4665   4667     1  0.0000000  0.6508444  3
   4642   4641   4640   4644     1  0.0000000  1.2552000  3
   4642   4641   4640   4647     1  0.0000000  1.2552000  3
   4642   4641   4653   4665     1  0.0000000  0.6508444  3
   4642   4641   4653   4654     1  0.0000000  0.6508444  3
   4642   4641   4653   4655     1  0.0000000  0.6508444  3
   4643   4641   4640   4644     1  0.0000000  1.2552000  3
   4643   4641   4640   4647     1  0.0000000  1.2552000  3
   4643   4641   4653   4665     1  0.0000000  0.6508444  3
   4643   4641   4653   4654     1  0.0000000  0.6508444  3
   4643   4641   4653   4655     1  0.0000000  0.6508444  3
   4644   4640   4647   4648     1  0.0000000  1.2552000  3
   4644   4640   4647   4649     1  0.0000000  1.2552000  3
   4644   4656   4662   4663     1  0.0000000  0.6508444  3
   4644   4656   4662   4664     1  0.0000000  0.6508444  3
   4645   4644   4640   4647     1  0.0000000  1.2552000  3
   4645   4644   4656   4662     1  0.0000000  0.6508444  3
   4645   4644   4656   4657     1  0.0000000  0.6508444  3
   4645   4644   4656   4658     1  0.0000000  0.6508444  3
   4646   4644   4640   4647     1  0.0000000  1.2552000  3
   4646   4644   4656   4662     1  0.0000000  0.6508444  3
   4646   4644   4656   4657     1  0.0000000  0.6508444  3
   4646   4644   4656   4658     1  0.0000000  0.6508444  3
   4647   4650   4659   4660     1  0.0000000  0.6508444  3
   4647   4650   4659   4661     1  0.0000000  0.6508444  3
   4648   4647   4650   4659     1  0.0000000  0.6508444  3
   4648   4647   4650   4651     1  0.0000000  0.6508444  3
   4648   4647   4650   4652     1  0.0000000  0.6508444  3
   4649   4647   4650   4659     1  0.0000000  0.6508444  3
   4649   4647   4650   4651     1  0.0000000  0.6508444  3
   4649   4647   4650   4652     1  0.0000000  0.6508444  3
   4651   4650   4659   4668     1  0.0000000  1.0460000  1
   4651   4650   4659   4668     1  0.0000000  0.0000000  3
   4651   4650   4659   4660     1  0.0000000  0.6508444  3
   4651   4650   4659   4661     1  0.0000000  0.6508444  3
   4652   4650   4659   4668     1  0.0000000  1.0460000  1
   4652   4650   4659   4668     1  0.0000000  0.0000000  3
   4652   4650   4659   4660     1  0.0000000  0.6508444  3
   4652   4650   4659   4661     1  0.0000000  0.6508444  3
   4654   4653   4665   8963     1  0.0000000  1.0460000  1
   4654   4653   4665   8963     1  0.0000000  0.0000000  3
   4654   4653   4665   4666     1  0.0000000  0.6508444  3
   4654   4653   4665   4667     1  0.0000000  0.6508444  3
   4655   4653   4665   8963     1  0.0000000  1.0460000  1
   4655   4653   4665   8963     1  0.0000000  0.0000000  3
   4655   4653   4665   4666     1  0.0000000  0.6508444  3
   4655   4653   4665   4667     1  0.0000000  0.6508444  3
   4657   4656   4662   8940     1  0.0000000  1.0460000  1
   4657   4656   4662   8940     1  0.0000000  0.0000000  3
   4657   4656   4662   4663     1  0.0000000  0.6508444  3
   4657   4656   4662   4664     1  0.0000000  0.6508444  3
   4658   4656   4662   8940     1  0.0000000  1.0460000  1
   4658   4656   4662   8940     1  0.0000000  0.0000000  3
   4658   4656   4662   4663     1  0.0000000  0.6508444  3
   4658   4656   4662   4664     1  0.0000000  0.6508444  3
   4662   8940   8936   8939     1  0.0000000  1.6038667  3
   4663   4662   8940   8936     1  0.0000000  1.6038667  3
   4664   4662   8940   8936     1  0.0000000  1.6038667  3
   4665   8963   8959   8962     1  0.0000000  1.6038667  3
   4666   4665   8963   8959     1  0.0000000  1.6038667  3
   4667   4665   8963   8959     1  0.0000000  1.6038667  3
   4669   4670   4682   4683     1  0.0000000  0.6508444  3
   4669   4670   4682   4684     1  0.0000000  0.6508444  3
   4669   4673   4685   4686     1  0.0000000  0.6508444  3
   4669   4673   4685   4687     1  0.0000000  0.6508444  3
   4669   4676   4679   4680     1  0.0000000  0.6508444  3
   4669   4676   4679   4681     1  0.0000000  0.6508444  3
   4670   4669   4673   4674     1  0.0000000  1.2552000  3
   4670   4669   4673   4675     1  0.0000000  1.2552000  3
   4670   4669   4676   4677     1  0.0000000  1.2552000  3
   4670   4669   4676   4678     1  0.0000000  1.2552000  3
   4670   4682   4694   4695     1  0.0000000  0.6508444  3
   4670   4682   4694   4696     1  0.0000000  0.6508444  3
   4671   4670   4669   4673     1  0.0000000  1.2552000  3
   4671   4670   4669   4676     1  0.0000000  1.2552000  3
   4671   4670   4682   4694     1  0.0000000  0.6508444  3
   4671   4670   4682   4683     1  0.0000000  0.6508444  3
   4671   4670   4682   4684     1  0.0000000  0.6508444  3
   4672   4670   4669   4673     1  0.0000000  1.2552000  3
   4672   4670   4669   4676     1  0.0000000  1.2552000  3
   4672   4670   4682   4694     1  0.0000000  0.6508444  3
   4672   4670   4682   4683     1  0.0000000  0.6508444  3
   4672   4670   4682   4684     1  0.0000000  0.6508444  3
   4673   4669   4676   4677     1  0.0000000  1.2552000  3
   4673   4669   4676   4678     1  0.0000000  1.2552000  3
   4673   4685   4691   4692     1  0.0000000  0.6508444  3
   4673   4685   4691   4693     1  0.0000000  0.6508444  3
   4674   4673   4669   4676     1  0.0000000  1.2552000  3
   4674   4673   4685   4691     1  0.0000000  0.6508444  3
   4674   4673   4685   4686     1  0.0000000  0.6508444  3
   4674   4673   4685   4687     1  0.0000000  0.6508444  3
   4675   4673   4669   4676     1  0.0000000  1.2552000  3
   4675   4673   4685   4691     1  0.0000000  0.6508444  3
   4675   4673   4685   4686     1  0.0000000  0.6508444  3
   4675   4673   4685   4687     1  0.0000000  0.6508444  3
   4676   4679   4688   4689     1  0.0000000  0.6508444  3
   4676   4679   4688   4690     1  0.0000000  0.6508444  3
   4677   4676   4679   4688     1  0.0000000  0.6508444  3
   4677   4676   4679   4680     1  0.0000000  0.6508444  3
   4677   4676   4679   4681     1  0.0000000  0.6508444  3
   4678   4676   4679   4688     1  0.0000000  0.6508444  3
   4678   4676   4679   4680     1  0.0000000  0.6508444  3
   4678   4676   4679   4681     1  0.0000000  0.6508444  3
   4680   4679   4688   4697     1  0.0000000  1.0460000  1
   4680   4679   4688   4697     1  0.0000000  0.0000000  3
   4680   4679   4688   4689     1  0.0000000  0.6508444  3
   4680   4679   4688   4690     1  0.0000000  0.6508444  3
   4681   4679   4688   4697     1  0.0000000  1.0460000  1
   4681   4679   4688   4697     1  0.0000000  0.0000000  3
   4681   4679   4688   4689     1  0.0000000  0.6508444  3
   4681   4679   4688   4690     1  0.0000000  0.6508444  3
   4683   4682   4694   9009     1  0.0000000  1.0460000  1
   4683   4682   4694   9009     1  0.0000000  0.0000000  3
   4683   4682   4694   4695     1  0.0000000  0.6508444  3
   4683   4682   4694   4696     1  0.0000000  0.6508444  3
   4684   4682   4694   9009     1  0.0000000  1.0460000  1
   4684   4682   4694   9009     1  0.0000000  0.0000000  3
   4684   4682   4694   4695     1  0.0000000  0.6508444  3
   4684   4682   4694   4696     1  0.0000000  0.6508444  3
   4686   4685   4691   8986     1  0.0000000  1.0460000  1
   4686   4685   4691   8986     1  0.0000000  0.0000000  3
   4686   4685   4691   4692     1  0.0000000  0.6508444  3
   4686   4685   4691   4693     1  0.0000000  0.6508444  3
   4687   4685   4691   8986     1  0.0000000  1.0460000  1
   4687   4685   4691   8986     1  0.0000000  0.0000000  3
   4687   4685   4691   4692     1  0.0000000  0.6508444  3
   4687   4685   4691   4693     1  0.0000000  0.6508444  3
   4691   8986   8982   8985     1  0.0000000  1.6038667  3
   4692   4691   8986   8982     1  0.0000000  1.6038667  3
   4693   4691   8986   8982     1  0.0000000  1.6038667  3
   4694   9009   9005   9008     1  0.0000000  1.6038667  3
   4695   4694   9009   9005     1  0.0000000  1.6038667  3
   4696   4694   9009   9005     1  0.0000000  1.6038667  3
   4698   4699   4711   4712     1  0.0000000  0.6508444  3
   4698   4699   4711   4713     1  0.0000000  0.6508444  3
   4698   4702   4714   4715     1  0.0000000  0.6508444  3
   4698   4702   4714   4716     1  0.0000000  0.6508444  3
   4698   4705   4708   4709     1  0.0000000  0.6508444  3
   4698   4705   4708   4710     1  0.0000000  0.6508444  3
   4699   4698   4702   4703     1  0.0000000  1.2552000  3
   4699   4698   4702   4704     1  0.0000000  1.2552000  3
   4699   4698   4705   4706     1  0.0000000  1.2552000  3
   4699   4698   4705   4707     1  0.0000000  1.2552000  3
   4699   4711   4723   4724     1  0.0000000  0.6508444  3
   4699   4711   4723   4725     1  0.0000000  0.6508444  3
   4700   4699   4698   4702     1  0.0000000  1.2552000  3
   4700   4699   4698   4705     1  0.0000000  1.2552000  3
   4700   4699   4711   4723     1  0.0000000  0.6508444  3
   4700   4699   4711   4712     1  0.0000000  0.6508444  3
   4700   4699   4711   4713     1  0.0000000  0.6508444  3
   4701   4699   4698   4702     1  0.0000000  1.2552000  3
   4701   4699   4698   4705     1  0.0000000  1.2552000  3
   4701   4699   4711   4723     1  0.0000000  0.6508444  3
   4701   4699   4711   4712     1  0.0000000  0.6508444  3
   4701   4699   4711   4713     1  0.0000000  0.6508444  3
   4702   4698   4705   4706     1  0.0000000  1.2552000  3
   4702   4698   4705   4707     1  0.0000000  1.2552000  3
   4702   4714   4720   4721     1  0.0000000  0.6508444  3
   4702   4714   4720   4722     1  0.0000000  0.6508444  3
   4703   4702   4698   4705     1  0.0000000  1.2552000  3
   4703   4702   4714   4720     1  0.0000000  0.6508444  3
   4703   4702   4714   4715     1  0.0000000  0.6508444  3
   4703   4702   4714   4716     1  0.0000000  0.6508444  3
   4704   4702   4698   4705     1  0.0000000  1.2552000  3
   4704   4702   4714   4720     1  0.0000000  0.6508444  3
   4704   4702   4714   4715     1  0.0000000  0.6508444  3
   4704   4702   4714   4716     1  0.0000000  0.6508444  3
   4705   4708   4717   4718     1  0.0000000  0.6508444  3
   4705   4708   4717   4719     1  0.0000000  0.6508444  3
   4706   4705   4708   4717     1  0.0000000  0.6508444  3
   4706   4705   4708   4709     1  0.0000000  0.6508444  3
   4706   4705   4708   4710     1  0.0000000  0.6508444  3
   4707   4705   4708   4717     1  0.0000000  0.6508444  3
   4707   4705   4708   4709     1  0.0000000  0.6508444  3
   4707   4705   4708   4710     1  0.0000000  0.6508444  3
   4709   4708   4717   4726     1  0.0000000  1.0460000  1
   4709   4708   4717   4726     1  0.0000000  0.0000000  3
   4709   4708   4717   4718     1  0.0000000  0.6508444  3
   4709   4708   4717   4719     1  0.0000000  0.6508444  3
   4710   4708   4717   4726     1  0.0000000  1.0460000  1
   4710   4708   4717   4726     1  0.0000000  0.0000000  3
   4710   4708   4717   4718     1  0.0000000  0.6508444  3
   4710   4708   4717   4719     1  0.0000000  0.6508444  3
   4712   4711   4723   9055     1  0.0000000  1.0460000  1
   4712   4711   4723   9055     1  0.0000000  0.0000000  3
   4712   4711   4723   4724     1  0.0000000  0.6508444  3
   4712   4711   4723   4725     1  0.0000000  0.6508444  3
   4713   4711   4723   9055     1  0.0000000  1.0460000  1
   4713   4711   4723   9055     1  0.0000000  0.0000000  3
   4713   4711   4723   4724     1  0.0000000  0.6508444  3
   4713   4711   4723   4725     1  0.0000000  0.6508444  3
   4715   4714   4720   9032     1  0.0000000  1.0460000  1
   4715   4714   4720   9032     1  0.0000000  0.0000000  3
   4715   4714   4720   4721     1  0.0000000  0.6508444  3
   4715   4714   4720   4722     1  0.0000000  0.6508444  3
   4716   4714   4720   9032     1  0.0000000  1.0460000  1
   4716   4714   4720   9032     1  0.0000000  0.0000000  3
   4716   4714   4720   4721     1  0.0000000  0.6508444  3
   4716   4714   4720   4722     1  0.0000000  0.6508444  3
   4720   9032   9028   9031     1  0.0000000  1.6038667  3
   4721   4720   9032   9028     1  0.0000000  1.6038667  3
   4722   4720   9032   9028     1  0.0000000  1.6038667  3
   4723   9055   9051   9054     1  0.0000000  1.6038667  3
   4724   4723   9055   9051     1  0.0000000  1.6038667  3
   4725   4723   9055   9051     1  0.0000000  1.6038667  3
   4727   4728   4740   4741     1  0.0000000  0.6508444  3
   4727   4728   4740   4742     1  0.0000000  0.6508444  3
   4727   4731   4743   4744     1  0.0000000  0.6508444  3
   4727   4731   4743   4745     1  0.0000000  0.6508444  3
   4727   4734   4737   4738     1  0.0000000  0.6508444  3
   4727   4734   4737   4739     1  0.0000000  0.6508444  3
   4728   4727   4731   4732     1  0.0000000  1.2552000  3
   4728   4727   4731   4733     1  0.0000000  1.2552000  3
   4728   4727   4734   4735     1  0.0000000  1.2552000  3
   4728   4727   4734   4736     1  0.0000000  1.2552000  3
   4728   4740   4752   4753     1  0.0000000  0.6508444  3
   4728   4740   4752   4754     1  0.0000000  0.6508444  3
   4729   4728   4727   4731     1  0.0000000  1.2552000  3
   4729   4728   4727   4734     1  0.0000000  1.2552000  3
   4729   4728   4740   4752     1  0.0000000  0.6508444  3
   4729   4728   4740   4741     1  0.0000000  0.6508444  3
   4729   4728   4740   4742     1  0.0000000  0.6508444  3
   4730   4728   4727   4731     1  0.0000000  1.2552000  3
   4730   4728   4727   4734     1  0.0000000  1.2552000  3
   4730   4728   4740   4752     1  0.0000000  0.6508444  3
   4730   4728   4740   4741     1  0.0000000  0.6508444  3
   4730   4728   4740   4742     1  0.0000000  0.6508444  3
   4731   4727   4734   4735     1  0.0000000  1.2552000  3
   4731   4727   4734   4736     1  0.0000000  1.2552000  3
   4731   4743   4749   4750     1  0.0000000  0.6508444  3
   4731   4743   4749   4751     1  0.0000000  0.6508444  3
   4732   4731   4727   4734     1  0.0000000  1.2552000  3
   4732   4731   4743   4749     1  0.0000000  0.6508444  3
   4732   4731   4743   4744     1  0.0000000  0.6508444  3
   4732   4731   4743   4745     1  0.0000000  0.6508444  3
   4733   4731   4727   4734     1  0.0000000  1.2552000  3
   4733   4731   4743   4749     1  0.0000000  0.6508444  3
   4733   4731   4743   4744     1  0.0000000  0.6508444  3
   4733   4731   4743   4745     1  0.0000000  0.6508444  3
   4734   4737   4746   4747     1  0.0000000  0.6508444  3
   4734   4737   4746   4748     1  0.0000000  0.6508444  3
   4735   4734   4737   4746     1  0.0000000  0.6508444  3
   4735   4734   4737   4738     1  0.0000000  0.6508444  3
   4735   4734   4737   4739     1  0.0000000  0.6508444  3
   4736   4734   4737   4746     1  0.0000000  0.6508444  3
   4736   4734   4737   4738     1  0.0000000  0.6508444  3
   4736   4734   4737   4739     1  0.0000000  0.6508444  3
   4738   4737   4746   4755     1  0.0000000  1.0460000  1
   4738   4737   4746   4755     1  0.0000000  0.0000000  3
   4738   4737   4746   4747     1  0.0000000  0.6508444  3
   4738   4737   4746   4748     1  0.0000000  0.6508444  3
   4739   4737   4746   4755     1  0.0000000  1.0460000  1
   4739   4737   4746   4755     1  0.0000000  0.0000000  3
   4739   4737   4746   4747     1  0.0000000  0.6508444  3
   4739   4737   4746   4748     1  0.0000000  0.6508444  3
   4741   4740   4752   9101     1  0.0000000  1.0460000  1
   4741   4740   4752   9101     1  0.0000000  0.0000000  3
   4741   4740   4752   4753     1  0.0000000  0.6508444  3
   4741   4740   4752   4754     1  0.0000000  0.6508444  3
   4742   4740   4752   9101     1  0.0000000  1.0460000  1
   4742   4740   4752   9101     1  0.0000000  0.0000000  3
   4742   4740   4752   4753     1  0.0000000  0.6508444  3
   4742   4740   4752   4754     1  0.0000000  0.6508444  3
   4744   4743   4749   9078     1  0.0000000  1.0460000  1
   4744   4743   4749   9078     1  0.0000000  0.0000000  3
   4744   4743   4749   4750     1  0.0000000  0.6508444  3
   4744   4743   4749   4751     1  0.0000000  0.6508444  3
   4745   4743   4749   9078     1  0.0000000  1.0460000  1
   4745   4743   4749   9078     1  0.0000000  0.0000000  3
   4745   4743   4749   4750     1  0.0000000  0.6508444  3
   4745   4743   4749   4751     1  0.0000000  0.6508444  3
   4749   9078   9074   9077     1  0.0000000  1.6038667  3
   4750   4749   9078   9074     1  0.0000000  1.6038667  3
   4751   4749   9078   9074     1  0.0000000  1.6038667  3
   4752   9101   9097   9100     1  0.0000000  1.6038667  3
   4753   4752   9101   9097     1  0.0000000  1.6038667  3
   4754   4752   9101   9097     1  0.0000000  1.6038667  3
   4756   4757   4769   4770     1  0.0000000  0.6508444  3
   4756   4757   4769   4771     1  0.0000000  0.6508444  3
   4756   4760   4772   4773     1  0.0000000  0.6508444  3
   4756   4760   4772   4774     1  0.0000000  0.6508444  3
   4756   4763   4766   4767     1  0.0000000  0.6508444  3
   4756   4763   4766   4768     1  0.0000000  0.6508444  3
   4757   4756   4760   4761     1  0.0000000  1.2552000  3
   4757   4756   4760   4762     1  0.0000000  1.2552000  3
   4757   4756   4763   4764     1  0.0000000  1.2552000  3
   4757   4756   4763   4765     1  0.0000000  1.2552000  3
   4757   4769   4781   4782     1  0.0000000  0.6508444  3
   4757   4769   4781   4783     1  0.0000000  0.6508444  3
   4758   4757   4756   4760     1  0.0000000  1.2552000  3
   4758   4757   4756   4763     1  0.0000000  1.2552000  3
   4758   4757   4769   4781     1  0.0000000  0.6508444  3
   4758   4757   4769   4770     1  0.0000000  0.6508444  3
   4758   4757   4769   4771     1  0.0000000  0.6508444  3
   4759   4757   4756   4760     1  0.0000000  1.2552000  3
   4759   4757   4756   4763     1  0.0000000  1.2552000  3
   4759   4757   4769   4781     1  0.0000000  0.6508444  3
   4759   4757   4769   4770     1  0.0000000  0.6508444  3
   4759   4757   4769   4771     1  0.0000000  0.6508444  3
   4760   4756   4763   4764     1  0.0000000  1.2552000  3
   4760   4756   4763   4765     1  0.0000000  1.2552000  3
   4760   4772   4778   4779     1  0.0000000  0.6508444  3
   4760   4772   4778   4780     1  0.0000000  0.6508444  3
   4761   4760   4756   4763     1  0.0000000  1.2552000  3
   4761   4760   4772   4778     1  0.0000000  0.6508444  3
   4761   4760   4772   4773     1  0.0000000  0.6508444  3
   4761   4760   4772   4774     1  0.0000000  0.6508444  3
   4762   4760   4756   4763     1  0.0000000  1.2552000  3
   4762   4760   4772   4778     1  0.0000000  0.6508444  3
   4762   4760   4772   4773     1  0.0000000  0.6508444  3
   4762   4760   4772   4774     1  0.0000000  0.6508444  3
   4763   4766   4775   4776     1  0.0000000  0.6508444  3
   4763   4766   4775   4777     1  0.0000000  0.6508444  3
   4764   4763   4766   4775     1  0.0000000  0.6508444  3
   4764   4763   4766   4767     1  0.0000000  0.6508444  3
   4764   4763   4766   4768     1  0.0000000  0.6508444  3
   4765   4763   4766   4775     1  0.0000000  0.6508444  3
   4765   4763   4766   4767     1  0.0000000  0.6508444  3
   4765   4763   4766   4768     1  0.0000000  0.6508444  3
   4767   4766   4775   4784     1  0.0000000  1.0460000  1
   4767   4766   4775   4784     1  0.0000000  0.0000000  3
   4767   4766   4775   4776     1  0.0000000  0.6508444  3
   4767   4766   4775   4777     1  0.0000000  0.6508444  3
   4768   4766   4775   4784     1  0.0000000  1.0460000  1
   4768   4766   4775   4784     1  0.0000000  0.0000000  3
   4768   4766   4775   4776     1  0.0000000  0.6508444  3
   4768   4766   4775   4777     1  0.0000000  0.6508444  3
   4770   4769   4781   9147     1  0.0000000  1.0460000  1
   4770   4769   4781   9147     1  0.0000000  0.0000000  3
   4770   4769   4781   4782     1  0.0000000  0.6508444  3
   4770   4769   4781   4783     1  0.0000000  0.6508444  3
   4771   4769   4781   9147     1  0.0000000  1.0460000  1
   4771   4769   4781   9147     1  0.0000000  0.0000000  3
   4771   4769   4781   4782     1  0.0000000  0.6508444  3
   4771   4769   4781   4783     1  0.0000000  0.6508444  3
   4773   4772   4778   9124     1  0.0000000  1.0460000  1
   4773   4772   4778   9124     1  0.0000000  0.0000000  3
   4773   4772   4778   4779     1  0.0000000  0.6508444  3
   4773   4772   4778   4780     1  0.0000000  0.6508444  3
   4774   4772   4778   9124     1  0.0000000  1.0460000  1
   4774   4772   4778   9124     1  0.0000000  0.0000000  3
   4774   4772   4778   4779     1  0.0000000  0.6508444  3
   4774   4772   4778   4780     1  0.0000000  0.6508444  3
   4778   9124   9120   9123     1  0.0000000  1.6038667  3
   4779   4778   9124   9120     1  0.0000000  1.6038667  3
   4780   4778   9124   9120     1  0.0000000  1.6038667  3
   4781   9147   9143   9146     1  0.0000000  1.6038667  3
   4782   4781   9147   9143     1  0.0000000  1.6038667  3
   4783   4781   9147   9143     1  0.0000000  1.6038667  3
   4785   4786   4798   4799     1  0.0000000  0.6508444  3
   4785   4786   4798   4800     1  0.0000000  0.6508444  3
   4785   4789   4801   4802     1  0.0000000  0.6508444  3
   4785   4789   4801   4803     1  0.0000000  0.6508444  3
   4785   4792   4795   4796     1  0.0000000  0.6508444  3
   4785   4792   4795   4797     1  0.0000000  0.6508444  3
   4786   4785   4789   4790     1  0.0000000  1.2552000  3
   4786   4785   4789   4791     1  0.0000000  1.2552000  3
   4786   4785   4792   4793     1  0.0000000  1.2552000  3
   4786   4785   4792   4794     1  0.0000000  1.2552000  3
   4786   4798   4810   4811     1  0.0000000  0.6508444  3
   4786   4798   4810   4812     1  0.0000000  0.6508444  3
   4787   4786   4785   4789     1  0.0000000  1.2552000  3
   4787   4786   4785   4792     1  0.0000000  1.2552000  3
   4787   4786   4798   4810     1  0.0000000  0.6508444  3
   4787   4786   4798   4799     1  0.0000000  0.6508444  3
   4787   4786   4798   4800     1  0.0000000  0.6508444  3
   4788   4786   4785   4789     1  0.0000000  1.2552000  3
   4788   4786   4785   4792     1  0.0000000  1.2552000  3
   4788   4786   4798   4810     1  0.0000000  0.6508444  3
   4788   4786   4798   4799     1  0.0000000  0.6508444  3
   4788   4786   4798   4800     1  0.0000000  0.6508444  3
   4789   4785   4792   4793     1  0.0000000  1.2552000  3
   4789   4785   4792   4794     1  0.0000000  1.2552000  3
   4789   4801   4807   4808     1  0.0000000  0.6508444  3
   4789   4801   4807   4809     1  0.0000000  0.6508444  3
   4790   4789   4785   4792     1  0.0000000  1.2552000  3
   4790   4789   4801   4807     1  0.0000000  0.6508444  3
   4790   4789   4801   4802     1  0.0000000  0.6508444  3
   4790   4789   4801   4803     1  0.0000000  0.6508444  3
   4791   4789   4785   4792     1  0.0000000  1.2552000  3
   4791   4789   4801   4807     1  0.0000000  0.6508444  3
   4791   4789   4801   4802     1  0.0000000  0.6508444  3
   4791   4789   4801   4803     1  0.0000000  0.6508444  3
   4792   4795   4804   4805     1  0.0000000  0.6508444  3
   4792   4795   4804   4806     1  0.0000000  0.6508444  3
   4793   4792   4795   4804     1  0.0000000  0.6508444  3
   4793   4792   4795   4796     1  0.0000000  0.6508444  3
   4793   4792   4795   4797     1  0.0000000  0.6508444  3
   4794   4792   4795   4804     1  0.0000000  0.6508444  3
   4794   4792   4795   4796     1  0.0000000  0.6508444  3
   4794   4792   4795   4797     1  0.0000000  0.6508444  3
   4796   4795   4804   4813     1  0.0000000  1.0460000  1
   4796   4795   4804   4813     1  0.0000000  0.0000000  3
   4796   4795   4804   4805     1  0.0000000  0.6508444  3
   4796   4795   4804   4806     1  0.0000000  0.6508444  3
   4797   4795   4804   4813     1  0.0000000  1.0460000  1
   4797   4795   4804   4813     1  0.0000000  0.0000000  3
   4797   4795   4804   4805     1  0.0000000  0.6508444  3
   4797   4795   4804   4806     1  0.0000000  0.6508444  3
   4799   4798   4810   9193     1  0.0000000  1.0460000  1
   4799   4798   4810   9193     1  0.0000000  0.0000000  3
   4799   4798   4810   4811     1  0.0000000  0.6508444  3
   4799   4798   4810   4812     1  0.0000000  0.6508444  3
   4800   4798   4810   9193     1  0.0000000  1.0460000  1
   4800   4798   4810   9193     1  0.0000000  0.0000000  3
   4800   4798   4810   4811     1  0.0000000  0.6508444  3
   4800   4798   4810   4812     1  0.0000000  0.6508444  3
   4802   4801   4807   9170     1  0.0000000  1.0460000  1
   4802   4801   4807   9170     1  0.0000000  0.0000000  3
   4802   4801   4807   4808     1  0.0000000  0.6508444  3
   4802   4801   4807   4809     1  0.0000000  0.6508444  3
   4803   4801   4807   9170     1  0.0000000  1.0460000  1
   4803   4801   4807   9170     1  0.0000000  0.0000000  3
   4803   4801   4807   4808     1  0.0000000  0.6508444  3
   4803   4801   4807   4809     1  0.0000000  0.6508444  3
   4807   9170   9166   9169     1  0.0000000  1.6038667  3
   4808   4807   9170   9166     1  0.0000000  1.6038667  3
   4809   4807   9170   9166     1  0.0000000  1.6038667  3
   4810   9193   9189   9192     1  0.0000000  1.6038667  3
   4811   4810   9193   9189     1  0.0000000  1.6038667  3
   4812   4810   9193   9189     1  0.0000000  1.6038667  3
   4814   4815   4827   4828     1  0.0000000  0.6508444  3
   4814   4815   4827   4829     1  0.0000000  0.6508444  3
   4814   4818   4830   4831     1  0.0000000  0.6508444  3
   4814   4818   4830   4832     1  0.0000000  0.6508444  3
   4814   4821   4824   4825     1  0.0000000  0.6508444  3
   4814   4821   4824   4826     1  0.0000000  0.6508444  3
   4815   4814   4818   4819     1  0.0000000  1.2552000  3
   4815   4814   4818   4820     1  0.0000000  1.2552000  3
   4815   4814   4821   4822     1  0.0000000  1.2552000  3
   4815   4814   4821   4823     1  0.0000000  1.2552000  3
   4815   4827   4839   4840     1  0.0000000  0.6508444  3
   4815   4827   4839   4841     1  0.0000000  0.6508444  3
   4816   4815   4814   4818     1  0.0000000  1.2552000  3
   4816   4815   4814   4821     1  0.0000000  1.2552000  3
   4816   4815   4827   4839     1  0.0000000  0.6508444  3
   4816   4815   4827   4828     1  0.0000000  0.6508444  3
   4816   4815   4827   4829     1  0.0000000  0.6508444  3
   4817   4815   4814   4818     1  0.0000000  1.2552000  3
   4817   4815   4814   4821     1  0.0000000  1.2552000  3
   4817   4815   4827   4839     1  0.0000000  0.6508444  3
   4817   4815   4827   4828     1  0.0000000  0.6508444  3
   4817   4815   4827   4829     1  0.0000000  0.6508444  3
   4818   4814   4821   4822     1  0.0000000  1.2552000  3
   4818   4814   4821   4823     1  0.0000000  1.2552000  3
   4818   4830   4836   4837     1  0.0000000  0.6508444  3
   4818   4830   4836   4838     1  0.0000000  0.6508444  3
   4819   4818   4814   4821     1  0.0000000  1.2552000  3
   4819   4818   4830   4836     1  0.0000000  0.6508444  3
   4819   4818   4830   4831     1  0.0000000  0.6508444  3
   4819   4818   4830   4832     1  0.0000000  0.6508444  3
   4820   4818   4814   4821     1  0.0000000  1.2552000  3
   4820   4818   4830   4836     1  0.0000000  0.6508444  3
   4820   4818   4830   4831     1  0.0000000  0.6508444  3
   4820   4818   4830   4832     1  0.0000000  0.6508444  3
   4821   4824   4833   4834     1  0.0000000  0.6508444  3
   4821   4824   4833   4835     1  0.0000000  0.6508444  3
   4822   4821   4824   4833     1  0.0000000  0.6508444  3
   4822   4821   4824   4825     1  0.0000000  0.6508444  3
   4822   4821   4824   4826     1  0.0000000  0.6508444  3
   4823   4821   4824   4833     1  0.0000000  0.6508444  3
   4823   4821   4824   4825     1  0.0000000  0.6508444  3
   4823   4821   4824   4826     1  0.0000000  0.6508444  3
   4825   4824   4833   4842     1  0.0000000  1.0460000  1
   4825   4824   4833   4842     1  0.0000000  0.0000000  3
   4825   4824   4833   4834     1  0.0000000  0.6508444  3
   4825   4824   4833   4835     1  0.0000000  0.6508444  3
   4826   4824   4833   4842     1  0.0000000  1.0460000  1
   4826   4824   4833   4842     1  0.0000000  0.0000000  3
   4826   4824   4833   4834     1  0.0000000  0.6508444  3
   4826   4824   4833   4835     1  0.0000000  0.6508444  3
   4828   4827   4839   9239     1  0.0000000  1.0460000  1
   4828   4827   4839   9239     1  0.0000000  0.0000000  3
   4828   4827   4839   4840     1  0.0000000  0.6508444  3
   4828   4827   4839   4841     1  0.0000000  0.6508444  3
   4829   4827   4839   9239     1  0.0000000  1.0460000  1
   4829   4827   4839   9239     1  0.0000000  0.0000000  3
   4829   4827   4839   4840     1  0.0000000  0.6508444  3
   4829   4827   4839   4841     1  0.0000000  0.6508444  3
   4831   4830   4836   9216     1  0.0000000  1.0460000  1
   4831   4830   4836   9216     1  0.0000000  0.0000000  3
   4831   4830   4836   4837     1  0.0000000  0.6508444  3
   4831   4830   4836   4838     1  0.0000000  0.6508444  3
   4832   4830   4836   9216     1  0.0000000  1.0460000  1
   4832   4830   4836   9216     1  0.0000000  0.0000000  3
   4832   4830   4836   4837     1  0.0000000  0.6508444  3
   4832   4830   4836   4838     1  0.0000000  0.6508444  3
   4836   9216   9212   9215     1  0.0000000  1.6038667  3
   4837   4836   9216   9212     1  0.0000000  1.6038667  3
   4838   4836   9216   9212     1  0.0000000  1.6038667  3
   4839   9239   9235   9238     1  0.0000000  1.6038667  3
   4840   4839   9239   9235     1  0.0000000  1.6038667  3
   4841   4839   9239   9235     1  0.0000000  1.6038667  3
   4843   4844   4856   4857     1  0.0000000  0.6508444  3
   4843   4844   4856   4858     1  0.0000000  0.6508444  3
   4843   4847   4859   4860     1  0.0000000  0.6508444  3
   4843   4847   4859   4861     1  0.0000000  0.6508444  3
   4843   4850   4853   4854     1  0.0000000  0.6508444  3
   4843   4850   4853   4855     1  0.0000000  0.6508444  3
   4844   4843   4847   4848     1  0.0000000  1.2552000  3
   4844   4843   4847   4849     1  0.0000000  1.2552000  3
   4844   4843   4850   4851     1  0.0000000  1.2552000  3
   4844   4843   4850   4852     1  0.0000000  1.2552000  3
   4844   4856   4868   4869     1  0.0000000  0.6508444  3
   4844   4856   4868   4870     1  0.0000000  0.6508444  3
   4845   4844   4843   4847     1  0.0000000  1.2552000  3
   4845   4844   4843   4850     1  0.0000000  1.2552000  3
   4845   4844   4856   4868     1  0.0000000  0.6508444  3
   4845   4844   4856   4857     1  0.0000000  0.6508444  3
   4845   4844   4856   4858     1  0.0000000  0.6508444  3
   4846   4844   4843   4847     1  0.0000000  1.2552000  3
   4846   4844   4843   4850     1  0.0000000  1.2552000  3
   4846   4844   4856   4868     1  0.0000000  0.6508444  3
   4846   4844   4856   4857     1  0.0000000  0.6508444  3
   4846   4844   4856   4858     1  0.0000000  0.6508444  3
   4847   4843   4850   4851     1  0.0000000  1.2552000  3
   4847   4843   4850   4852     1  0.0000000  1.2552000  3
   4847   4859   4865   4866     1  0.0000000  0.6508444  3
   4847   4859   4865   4867     1  0.0000000  0.6508444  3
   4848   4847   4843   4850     1  0.0000000  1.2552000  3
   4848   4847   4859   4865     1  0.0000000  0.6508444  3
   4848   4847   4859   4860     1  0.0000000  0.6508444  3
   4848   4847   4859   4861     1  0.0000000  0.6508444  3
   4849   4847   4843   4850     1  0.0000000  1.2552000  3
   4849   4847   4859   4865     1  0.0000000  0.6508444  3
   4849   4847   4859   4860     1  0.0000000  0.6508444  3
   4849   4847   4859   4861     1  0.0000000  0.6508444  3
   4850   4853   4862   4863     1  0.0000000  0.6508444  3
   4850   4853   4862   4864     1  0.0000000  0.6508444  3
   4851   4850   4853   4862     1  0.0000000  0.6508444  3
   4851   4850   4853   4854     1  0.0000000  0.6508444  3
   4851   4850   4853   4855     1  0.0000000  0.6508444  3
   4852   4850   4853   4862     1  0.0000000  0.6508444  3
   4852   4850   4853   4854     1  0.0000000  0.6508444  3
   4852   4850   4853   4855     1  0.0000000  0.6508444  3
   4854   4853   4862   4871     1  0.0000000  1.0460000  1
   4854   4853   4862   4871     1  0.0000000  0.0000000  3
   4854   4853   4862   4863     1  0.0000000  0.6508444  3
   4854   4853   4862   4864     1  0.0000000  0.6508444  3
   4855   4853   4862   4871     1  0.0000000  1.0460000  1
   4855   4853   4862   4871     1  0.0000000  0.0000000  3
   4855   4853   4862   4863     1  0.0000000  0.6508444  3
   4855   4853   4862   4864     1  0.0000000  0.6508444  3
   4857   4856   4868   9285     1  0.0000000  1.0460000  1
   4857   4856   4868   9285     1  0.0000000  0.0000000  3
   4857   4856   4868   4869     1  0.0000000  0.6508444  3
   4857   4856   4868   4870     1  0.0000000  0.6508444  3
   4858   4856   4868   9285     1  0.0000000  1.0460000  1
   4858   4856   4868   9285     1  0.0000000  0.0000000  3
   4858   4856   4868   4869     1  0.0000000  0.6508444  3
   4858   4856   4868   4870     1  0.0000000  0.6508444  3
   4860   4859   4865   9262     1  0.0000000  1.0460000  1
   4860   4859   4865   9262     1  0.0000000  0.0000000  3
   4860   4859   4865   4866     1  0.0000000  0.6508444  3
   4860   4859   4865   4867     1  0.0000000  0.6508444  3
   4861   4859   4865   9262     1  0.0000000  1.0460000  1
   4861   4859   4865   9262     1  0.0000000  0.0000000  3
   4861   4859   4865   4866     1  0.0000000  0.6508444  3
   4861   4859   4865   4867     1  0.0000000  0.6508444  3
   4865   9262   9258   9261     1  0.0000000  1.6038667  3
   4866   4865   9262   9258     1  0.0000000  1.6038667  3
   4867   4865   9262   9258     1  0.0000000  1.6038667  3
   4868   9285   9281   9284     1  0.0000000  1.6038667  3
   4869   4868   9285   9281     1  0.0000000  1.6038667  3
   4870   4868   9285   9281     1  0.0000000  1.6038667  3
   4872   4873   4885   4886     1  0.0000000  0.6508444  3
   4872   4873   4885   4887     1  0.0000000  0.6508444  3
   4872   4876   4888   4889     1  0.0000000  0.6508444  3
   4872   4876   4888   4890     1  0.0000000  0.6508444  3
   4872   4879   4882   4883     1  0.0000000  0.6508444  3
   4872   4879   4882   4884     1  0.0000000  0.6508444  3
   4873   4872   4876   4877     1  0.0000000  1.2552000  3
   4873   4872   4876   4878     1  0.0000000  1.2552000  3
   4873   4872   4879   4880     1  0.0000000  1.2552000  3
   4873   4872   4879   4881     1  0.0000000  1.2552000  3
   4873   4885   4897   4898     1  0.0000000  0.6508444  3
   4873   4885   4897   4899     1  0.0000000  0.6508444  3
   4874   4873   4872   4876     1  0.0000000  1.2552000  3
   4874   4873   4872   4879     1  0.0000000  1.2552000  3
   4874   4873   4885   4897     1  0.0000000  0.6508444  3
   4874   4873   4885   4886     1  0.0000000  0.6508444  3
   4874   4873   4885   4887     1  0.0000000  0.6508444  3
   4875   4873   4872   4876     1  0.0000000  1.2552000  3
   4875   4873   4872   4879     1  0.0000000  1.2552000  3
   4875   4873   4885   4897     1  0.0000000  0.6508444  3
   4875   4873   4885   4886     1  0.0000000  0.6508444  3
   4875   4873   4885   4887     1  0.0000000  0.6508444  3
   4876   4872   4879   4880     1  0.0000000  1.2552000  3
   4876   4872   4879   4881     1  0.0000000  1.2552000  3
   4876   4888   4894   4895     1  0.0000000  0.6508444  3
   4876   4888   4894   4896     1  0.0000000  0.6508444  3
   4877   4876   4872   4879     1  0.0000000  1.2552000  3
   4877   4876   4888   4894     1  0.0000000  0.6508444  3
   4877   4876   4888   4889     1  0.0000000  0.6508444  3
   4877   4876   4888   4890     1  0.0000000  0.6508444  3
   4878   4876   4872   4879     1  0.0000000  1.2552000  3
   4878   4876   4888   4894     1  0.0000000  0.6508444  3
   4878   4876   4888   4889     1  0.0000000  0.6508444  3
   4878   4876   4888   4890     1  0.0000000  0.6508444  3
   4879   4882   4891   4892     1  0.0000000  0.6508444  3
   4879   4882   4891   4893     1  0.0000000  0.6508444  3
   4880   4879   4882   4891     1  0.0000000  0.6508444  3
   4880   4879   4882   4883     1  0.0000000  0.6508444  3
   4880   4879   4882   4884     1  0.0000000  0.6508444  3
   4881   4879   4882   4891     1  0.0000000  0.6508444  3
   4881   4879   4882   4883     1  0.0000000  0.6508444  3
   4881   4879   4882   4884     1  0.0000000  0.6508444  3
   4883   4882   4891   4900     1  0.0000000  1.0460000  1
   4883   4882   4891   4900     1  0.0000000  0.0000000  3
   4883   4882   4891   4892     1  0.0000000  0.6508444  3
   4883   4882   4891   4893     1  0.0000000  0.6508444  3
   4884   4882   4891   4900     1  0.0000000  1.0460000  1
   4884   4882   4891   4900     1  0.0000000  0.0000000  3
   4884   4882   4891   4892     1  0.0000000  0.6508444  3
   4884   4882   4891   4893     1  0.0000000  0.6508444  3
   4886   4885   4897   9331     1  0.0000000  1.0460000  1
   4886   4885   4897   9331     1  0.0000000  0.0000000  3
   4886   4885   4897   4898     1  0.0000000  0.6508444  3
   4886   4885   4897   4899     1  0.0000000  0.6508444  3
   4887   4885   4897   9331     1  0.0000000  1.0460000  1
   4887   4885   4897   9331     1  0.0000000  0.0000000  3
   4887   4885   4897   4898     1  0.0000000  0.6508444  3
   4887   4885   4897   4899     1  0.0000000  0.6508444  3
   4889   4888   4894   9308     1  0.0000000  1.0460000  1
   4889   4888   4894   9308     1  0.0000000  0.0000000  3
   4889   4888   4894   4895     1  0.0000000  0.6508444  3
   4889   4888   4894   4896     1  0.0000000  0.6508444  3
   4890   4888   4894   9308     1  0.0000000  1.0460000  1
   4890   4888   4894   9308     1  0.0000000  0.0000000  3
   4890   4888   4894   4895     1  0.0000000  0.6508444  3
   4890   4888   4894   4896     1  0.0000000  0.6508444  3
   4894   9308   9304   9307     1  0.0000000  1.6038667  3
   4895   4894   9308   9304     1  0.0000000  1.6038667  3
   4896   4894   9308   9304     1  0.0000000  1.6038667  3
   4897   9331   9327   9330     1  0.0000000  1.6038667  3
   4898   4897   9331   9327     1  0.0000000  1.6038667  3
   4899   4897   9331   9327     1  0.0000000  1.6038667  3
   4901   4902   4914   4915     1  0.0000000  0.6508444  3
   4901   4902   4914   4916     1  0.0000000  0.6508444  3
   4901   4905   4917   4918     1  0.0000000  0.6508444  3
   4901   4905   4917   4919     1  0.0000000  0.6508444  3
   4901   4908   4911   4912     1  0.0000000  0.6508444  3
   4901   4908   4911   4913     1  0.0000000  0.6508444  3
   4902   4901   4905   4906     1  0.0000000  1.2552000  3
   4902   4901   4905   4907     1  0.0000000  1.2552000  3
   4902   4901   4908   4909     1  0.0000000  1.2552000  3
   4902   4901   4908   4910     1  0.0000000  1.2552000  3
   4902   4914   4926   4927     1  0.0000000  0.6508444  3
   4902   4914   4926   4928     1  0.0000000  0.6508444  3
   4903   4902   4901   4905     1  0.0000000  1.2552000  3
   4903   4902   4901   4908     1  0.0000000  1.2552000  3
   4903   4902   4914   4926     1  0.0000000  0.6508444  3
   4903   4902   4914   4915     1  0.0000000  0.6508444  3
   4903   4902   4914   4916     1  0.0000000  0.6508444  3
   4904   4902   4901   4905     1  0.0000000  1.2552000  3
   4904   4902   4901   4908     1  0.0000000  1.2552000  3
   4904   4902   4914   4926     1  0.0000000  0.6508444  3
   4904   4902   4914   4915     1  0.0000000  0.6508444  3
   4904   4902   4914   4916     1  0.0000000  0.6508444  3
   4905   4901   4908   4909     1  0.0000000  1.2552000  3
   4905   4901   4908   4910     1  0.0000000  1.2552000  3
   4905   4917   4923   4924     1  0.0000000  0.6508444  3
   4905   4917   4923   4925     1  0.0000000  0.6508444  3
   4906   4905   4901   4908     1  0.0000000  1.2552000  3
   4906   4905   4917   4923     1  0.0000000  0.6508444  3
   4906   4905   4917   4918     1  0.0000000  0.6508444  3
   4906   4905   4917   4919     1  0.0000000  0.6508444  3
   4907   4905   4901   4908     1  0.0000000  1.2552000  3
   4907   4905   4917   4923     1  0.0000000  0.6508444  3
   4907   4905   4917   4918     1  0.0000000  0.6508444  3
   4907   4905   4917   4919     1  0.0000000  0.6508444  3
   4908   4911   4920   4921     1  0.0000000  0.6508444  3
   4908   4911   4920   4922     1  0.0000000  0.6508444  3
   4909   4908   4911   4920     1  0.0000000  0.6508444  3
   4909   4908   4911   4912     1  0.0000000  0.6508444  3
   4909   4908   4911   4913     1  0.0000000  0.6508444  3
   4910   4908   4911   4920     1  0.0000000  0.6508444  3
   4910   4908   4911   4912     1  0.0000000  0.6508444  3
   4910   4908   4911   4913     1  0.0000000  0.6508444  3
   4912   4911   4920   4929     1  0.0000000  1.0460000  1
   4912   4911   4920   4929     1  0.0000000  0.0000000  3
   4912   4911   4920   4921     1  0.0000000  0.6508444  3
   4912   4911   4920   4922     1  0.0000000  0.6508444  3
   4913   4911   4920   4929     1  0.0000000  1.0460000  1
   4913   4911   4920   4929     1  0.0000000  0.0000000  3
   4913   4911   4920   4921     1  0.0000000  0.6508444  3
   4913   4911   4920   4922     1  0.0000000  0.6508444  3
   4915   4914   4926   9377     1  0.0000000  1.0460000  1
   4915   4914   4926   9377     1  0.0000000  0.0000000  3
   4915   4914   4926   4927     1  0.0000000  0.6508444  3
   4915   4914   4926   4928     1  0.0000000  0.6508444  3
   4916   4914   4926   9377     1  0.0000000  1.0460000  1
   4916   4914   4926   9377     1  0.0000000  0.0000000  3
   4916   4914   4926   4927     1  0.0000000  0.6508444  3
   4916   4914   4926   4928     1  0.0000000  0.6508444  3
   4918   4917   4923   9354     1  0.0000000  1.0460000  1
   4918   4917   4923   9354     1  0.0000000  0.0000000  3
   4918   4917   4923   4924     1  0.0000000  0.6508444  3
   4918   4917   4923   4925     1  0.0000000  0.6508444  3
   4919   4917   4923   9354     1  0.0000000  1.0460000  1
   4919   4917   4923   9354     1  0.0000000  0.0000000  3
   4919   4917   4923   4924     1  0.0000000  0.6508444  3
   4919   4917   4923   4925     1  0.0000000  0.6508444  3
   4923   9354   9350   9353     1  0.0000000  1.6038667  3
   4924   4923   9354   9350     1  0.0000000  1.6038667  3
   4925   4923   9354   9350     1  0.0000000  1.6038667  3
   4926   9377   9373   9376     1  0.0000000  1.6038667  3
   4927   4926   9377   9373     1  0.0000000  1.6038667  3
   4928   4926   9377   9373     1  0.0000000  1.6038667  3
   4930   4931   4943   4944     1  0.0000000  0.6508444  3
   4930   4931   4943   4945     1  0.0000000  0.6508444  3
   4930   4934   4946   4947     1  0.0000000  0.6508444  3
   4930   4934   4946   4948     1  0.0000000  0.6508444  3
   4930   4937   4940   4941     1  0.0000000  0.6508444  3
   4930   4937   4940   4942     1  0.0000000  0.6508444  3
   4931   4930   4934   4935     1  0.0000000  1.2552000  3
   4931   4930   4934   4936     1  0.0000000  1.2552000  3
   4931   4930   4937   4938     1  0.0000000  1.2552000  3
   4931   4930   4937   4939     1  0.0000000  1.2552000  3
   4931   4943   4955   4956     1  0.0000000  0.6508444  3
   4931   4943   4955   4957     1  0.0000000  0.6508444  3
   4932   4931   4930   4934     1  0.0000000  1.2552000  3
   4932   4931   4930   4937     1  0.0000000  1.2552000  3
   4932   4931   4943   4955     1  0.0000000  0.6508444  3
   4932   4931   4943   4944     1  0.0000000  0.6508444  3
   4932   4931   4943   4945     1  0.0000000  0.6508444  3
   4933   4931   4930   4934     1  0.0000000  1.2552000  3
   4933   4931   4930   4937     1  0.0000000  1.2552000  3
   4933   4931   4943   4955     1  0.0000000  0.6508444  3
   4933   4931   4943   4944     1  0.0000000  0.6508444  3
   4933   4931   4943   4945     1  0.0000000  0.6508444  3
   4934   4930   4937   4938     1  0.0000000  1.2552000  3
   4934   4930   4937   4939     1  0.0000000  1.2552000  3
   4934   4946   4952   4953     1  0.0000000  0.6508444  3
   4934   4946   4952   4954     1  0.0000000  0.6508444  3
   4935   4934   4930   4937     1  0.0000000  1.2552000  3
   4935   4934   4946   4952     1  0.0000000  0.6508444  3
   4935   4934   4946   4947     1  0.0000000  0.6508444  3
   4935   4934   4946   4948     1  0.0000000  0.6508444  3
   4936   4934   4930   4937     1  0.0000000  1.2552000  3
   4936   4934   4946   4952     1  0.0000000  0.6508444  3
   4936   4934   4946   4947     1  0.0000000  0.6508444  3
   4936   4934   4946   4948     1  0.0000000  0.6508444  3
   4937   4940   4949   4950     1  0.0000000  0.6508444  3
   4937   4940   4949   4951     1  0.0000000  0.6508444  3
   4938   4937   4940   4949     1  0.0000000  0.6508444  3
   4938   4937   4940   4941     1  0.0000000  0.6508444  3
   4938   4937   4940   4942     1  0.0000000  0.6508444  3
   4939   4937   4940   4949     1  0.0000000  0.6508444  3
   4939   4937   4940   4941     1  0.0000000  0.6508444  3
   4939   4937   4940   4942     1  0.0000000  0.6508444  3
   4941   4940   4949   4958     1  0.0000000  1.0460000  1
   4941   4940   4949   4958     1  0.0000000  0.0000000  3
   4941   4940   4949   4950     1  0.0000000  0.6508444  3
   4941   4940   4949   4951     1  0.0000000  0.6508444  3
   4942   4940   4949   4958     1  0.0000000  1.0460000  1
   4942   4940   4949   4958     1  0.0000000  0.0000000  3
   4942   4940   4949   4950     1  0.0000000  0.6508444  3
   4942   4940   4949   4951     1  0.0000000  0.6508444  3
   4944   4943   4955   9423     1  0.0000000  1.0460000  1
   4944   4943   4955   9423     1  0.0000000  0.0000000  3
   4944   4943   4955   4956     1  0.0000000  0.6508444  3
   4944   4943   4955   4957     1  0.0000000  0.6508444  3
   4945   4943   4955   9423     1  0.0000000  1.0460000  1
   4945   4943   4955   9423     1  0.0000000  0.0000000  3
   4945   4943   4955   4956     1  0.0000000  0.6508444  3
   4945   4943   4955   4957     1  0.0000000  0.6508444  3
   4947   4946   4952   9400     1  0.0000000  1.0460000  1
   4947   4946   4952   9400     1  0.0000000  0.0000000  3
   4947   4946   4952   4953     1  0.0000000  0.6508444  3
   4947   4946   4952   4954     1  0.0000000  0.6508444  3
   4948   4946   4952   9400     1  0.0000000  1.0460000  1
   4948   4946   4952   9400     1  0.0000000  0.0000000  3
   4948   4946   4952   4953     1  0.0000000  0.6508444  3
   4948   4946   4952   4954     1  0.0000000  0.6508444  3
   4952   9400   9396   9399     1  0.0000000  1.6038667  3
   4953   4952   9400   9396     1  0.0000000  1.6038667  3
   4954   4952   9400   9396     1  0.0000000  1.6038667  3
   4955   9423   9419   9422     1  0.0000000  1.6038667  3
   4956   4955   9423   9419     1  0.0000000  1.6038667  3
   4957   4955   9423   9419     1  0.0000000  1.6038667  3
   4959   4960   4972   4973     1  0.0000000  0.6508444  3
   4959   4960   4972   4974     1  0.0000000  0.6508444  3
   4959   4963   4975   4976     1  0.0000000  0.6508444  3
   4959   4963   4975   4977     1  0.0000000  0.6508444  3
   4959   4966   4969   4970     1  0.0000000  0.6508444  3
   4959   4966   4969   4971     1  0.0000000  0.6508444  3
   4960   4959   4963   4964     1  0.0000000  1.2552000  3
   4960   4959   4963   4965     1  0.0000000  1.2552000  3
   4960   4959   4966   4967     1  0.0000000  1.2552000  3
   4960   4959   4966   4968     1  0.0000000  1.2552000  3
   4960   4972   4984   4985     1  0.0000000  0.6508444  3
   4960   4972   4984   4986     1  0.0000000  0.6508444  3
   4961   4960   4959   4963     1  0.0000000  1.2552000  3
   4961   4960   4959   4966     1  0.0000000  1.2552000  3
   4961   4960   4972   4984     1  0.0000000  0.6508444  3
   4961   4960   4972   4973     1  0.0000000  0.6508444  3
   4961   4960   4972   4974     1  0.0000000  0.6508444  3
   4962   4960   4959   4963     1  0.0000000  1.2552000  3
   4962   4960   4959   4966     1  0.0000000  1.2552000  3
   4962   4960   4972   4984     1  0.0000000  0.6508444  3
   4962   4960   4972   4973     1  0.0000000  0.6508444  3
   4962   4960   4972   4974     1  0.0000000  0.6508444  3
   4963   4959   4966   4967     1  0.0000000  1.2552000  3
   4963   4959   4966   4968     1  0.0000000  1.2552000  3
   4963   4975   4981   4982     1  0.0000000  0.6508444  3
   4963   4975   4981   4983     1  0.0000000  0.6508444  3
   4964   4963   4959   4966     1  0.0000000  1.2552000  3
   4964   4963   4975   4981     1  0.0000000  0.6508444  3
   4964   4963   4975   4976     1  0.0000000  0.6508444  3
   4964   4963   4975   4977     1  0.0000000  0.6508444  3
   4965   4963   4959   4966     1  0.0000000  1.2552000  3
   4965   4963   4975   4981     1  0.0000000  0.6508444  3
   4965   4963   4975   4976     1  0.0000000  0.6508444  3
   4965   4963   4975   4977     1  0.0000000  0.6508444  3
   4966   4969   4978   4979     1  0.0000000  0.6508444  3
   4966   4969   4978   4980     1  0.0000000  0.6508444  3
   4967   4966   4969   4978     1  0.0000000  0.6508444  3
   4967   4966   4969   4970     1  0.0000000  0.6508444  3
   4967   4966   4969   4971     1  0.0000000  0.6508444  3
   4968   4966   4969   4978     1  0.0000000  0.6508444  3
   4968   4966   4969   4970     1  0.0000000  0.6508444  3
   4968   4966   4969   4971     1  0.0000000  0.6508444  3
   4970   4969   4978   4987     1  0.0000000  1.0460000  1
   4970   4969   4978   4987     1  0.0000000  0.0000000  3
   4970   4969   4978   4979     1  0.0000000  0.6508444  3
   4970   4969   4978   4980     1  0.0000000  0.6508444  3
   4971   4969   4978   4987     1  0.0000000  1.0460000  1
   4971   4969   4978   4987     1  0.0000000  0.0000000  3
   4971   4969   4978   4979     1  0.0000000  0.6508444  3
   4971   4969   4978   4980     1  0.0000000  0.6508444  3
   4973   4972   4984   9469     1  0.0000000  1.0460000  1
   4973   4972   4984   9469     1  0.0000000  0.0000000  3
   4973   4972   4984   4985     1  0.0000000  0.6508444  3
   4973   4972   4984   4986     1  0.0000000  0.6508444  3
   4974   4972   4984   9469     1  0.0000000  1.0460000  1
   4974   4972   4984   9469     1  0.0000000  0.0000000  3
   4974   4972   4984   4985     1  0.0000000  0.6508444  3
   4974   4972   4984   4986     1  0.0000000  0.6508444  3
   4976   4975   4981   9446     1  0.0000000  1.0460000  1
   4976   4975   4981   9446     1  0.0000000  0.0000000  3
   4976   4975   4981   4982     1  0.0000000  0.6508444  3
   4976   4975   4981   4983     1  0.0000000  0.6508444  3
   4977   4975   4981   9446     1  0.0000000  1.0460000  1
   4977   4975   4981   9446     1  0.0000000  0.0000000  3
   4977   4975   4981   4982     1  0.0000000  0.6508444  3
   4977   4975   4981   4983     1  0.0000000  0.6508444  3
   4981   9446   9442   9445     1  0.0000000  1.6038667  3
   4982   4981   9446   9442     1  0.0000000  1.6038667  3
   4983   4981   9446   9442     1  0.0000000  1.6038667  3
   4984   9469   9465   9468     1  0.0000000  1.6038667  3
   4985   4984   9469   9465     1  0.0000000  1.6038667  3
   4986   4984   9469   9465     1  0.0000000  1.6038667  3
   4988   4989   5001   5002     1  0.0000000  0.6508444  3
   4988   4989   5001   5003     1  0.0000000  0.6508444  3
   4988   4992   5004   5005     1  0.0000000  0.6508444  3
   4988   4992   5004   5006     1  0.0000000  0.6508444  3
   4988   4995   4998   4999     1  0.0000000  0.6508444  3
   4988   4995   4998   5000     1  0.0000000  0.6508444  3
   4989   4988   4992   4993     1  0.0000000  1.2552000  3
   4989   4988   4992   4994     1  0.0000000  1.2552000  3
   4989   4988   4995   4996     1  0.0000000  1.2552000  3
   4989   4988   4995   4997     1  0.0000000  1.2552000  3
   4989   5001   5013   5014     1  0.0000000  0.6508444  3
   4989   5001   5013   5015     1  0.0000000  0.6508444  3
   4990   4989   4988   4992     1  0.0000000  1.2552000  3
   4990   4989   4988   4995     1  0.0000000  1.2552000  3
   4990   4989   5001   5013     1  0.0000000  0.6508444  3
   4990   4989   5001   5002     1  0.0000000  0.6508444  3
   4990   4989   5001   5003     1  0.0000000  0.6508444  3
   4991   4989   4988   4992     1  0.0000000  1.2552000  3
   4991   4989   4988   4995     1  0.0000000  1.2552000  3
   4991   4989   5001   5013     1  0.0000000  0.6508444  3
   4991   4989   5001   5002     1  0.0000000  0.6508444  3
   4991   4989   5001   5003     1  0.0000000  0.6508444  3
   4992   4988   4995   4996     1  0.0000000  1.2552000  3
   4992   4988   4995   4997     1  0.0000000  1.2552000  3
   4992   5004   5010   5011     1  0.0000000  0.6508444  3
   4992   5004   5010   5012     1  0.0000000  0.6508444  3
   4993   4992   4988   4995     1  0.0000000  1.2552000  3
   4993   4992   5004   5010     1  0.0000000  0.6508444  3
   4993   4992   5004   5005     1  0.0000000  0.6508444  3
   4993   4992   5004   5006     1  0.0000000  0.6508444  3
   4994   4992   4988   4995     1  0.0000000  1.2552000  3
   4994   4992   5004   5010     1  0.0000000  0.6508444  3
   4994   4992   5004   5005     1  0.0000000  0.6508444  3
   4994   4992   5004   5006     1  0.0000000  0.6508444  3
   4995   4998   5007   5008     1  0.0000000  0.6508444  3
   4995   4998   5007   5009     1  0.0000000  0.6508444  3
   4996   4995   4998   5007     1  0.0000000  0.6508444  3
   4996   4995   4998   4999     1  0.0000000  0.6508444  3
   4996   4995   4998   5000     1  0.0000000  0.6508444  3
   4997   4995   4998   5007     1  0.0000000  0.6508444  3
   4997   4995   4998   4999     1  0.0000000  0.6508444  3
   4997   4995   4998   5000     1  0.0000000  0.6508444  3
   4999   4998   5007   5016     1  0.0000000  1.0460000  1
   4999   4998   5007   5016     1  0.0000000  0.0000000  3
   4999   4998   5007   5008     1  0.0000000  0.6508444  3
   4999   4998   5007   5009     1  0.0000000  0.6508444  3
   5000   4998   5007   5016     1  0.0000000  1.0460000  1
   5000   4998   5007   5016     1  0.0000000  0.0000000  3
   5000   4998   5007   5008     1  0.0000000  0.6508444  3
   5000   4998   5007   5009     1  0.0000000  0.6508444  3
   5002   5001   5013   9515     1  0.0000000  1.0460000  1
   5002   5001   5013   9515     1  0.0000000  0.0000000  3
   5002   5001   5013   5014     1  0.0000000  0.6508444  3
   5002   5001   5013   5015     1  0.0000000  0.6508444  3
   5003   5001   5013   9515     1  0.0000000  1.0460000  1
   5003   5001   5013   9515     1  0.0000000  0.0000000  3
   5003   5001   5013   5014     1  0.0000000  0.6508444  3
   5003   5001   5013   5015     1  0.0000000  0.6508444  3
   5005   5004   5010   9492     1  0.0000000  1.0460000  1
   5005   5004   5010   9492     1  0.0000000  0.0000000  3
   5005   5004   5010   5011     1  0.0000000  0.6508444  3
   5005   5004   5010   5012     1  0.0000000  0.6508444  3
   5006   5004   5010   9492     1  0.0000000  1.0460000  1
   5006   5004   5010   9492     1  0.0000000  0.0000000  3
   5006   5004   5010   5011     1  0.0000000  0.6508444  3
   5006   5004   5010   5012     1  0.0000000  0.6508444  3
   5010   9492   9488   9491     1  0.0000000  1.6038667  3
   5011   5010   9492   9488     1  0.0000000  1.6038667  3
   5012   5010   9492   9488     1  0.0000000  1.6038667  3
   5013   9515   9511   9514     1  0.0000000  1.6038667  3
   5014   5013   9515   9511     1  0.0000000  1.6038667  3
   5015   5013   9515   9511     1  0.0000000  1.6038667  3
   5017   5018   5030   5031     1  0.0000000  0.6508444  3
   5017   5018   5030   5032     1  0.0000000  0.6508444  3
   5017   5021   5033   5034     1  0.0000000  0.6508444  3
   5017   5021   5033   5035     1  0.0000000  0.6508444  3
   5017   5024   5027   5028     1  0.0000000  0.6508444  3
   5017   5024   5027   5029     1  0.0000000  0.6508444  3
   5018   5017   5021   5022     1  0.0000000  1.2552000  3
   5018   5017   5021   5023     1  0.0000000  1.2552000  3
   5018   5017   5024   5025     1  0.0000000  1.2552000  3
   5018   5017   5024   5026     1  0.0000000  1.2552000  3
   5018   5030   5042   5043     1  0.0000000  0.6508444  3
   5018   5030   5042   5044     1  0.0000000  0.6508444  3
   5019   5018   5017   5021     1  0.0000000  1.2552000  3
   5019   5018   5017   5024     1  0.0000000  1.2552000  3
   5019   5018   5030   5042     1  0.0000000  0.6508444  3
   5019   5018   5030   5031     1  0.0000000  0.6508444  3
   5019   5018   5030   5032     1  0.0000000  0.6508444  3
   5020   5018   5017   5021     1  0.0000000  1.2552000  3
   5020   5018   5017   5024     1  0.0000000  1.2552000  3
   5020   5018   5030   5042     1  0.0000000  0.6508444  3
   5020   5018   5030   5031     1  0.0000000  0.6508444  3
   5020   5018   5030   5032     1  0.0000000  0.6508444  3
   5021   5017   5024   5025     1  0.0000000  1.2552000  3
   5021   5017   5024   5026     1  0.0000000  1.2552000  3
   5021   5033   5039   5040     1  0.0000000  0.6508444  3
   5021   5033   5039   5041     1  0.0000000  0.6508444  3
   5022   5021   5017   5024     1  0.0000000  1.2552000  3
   5022   5021   5033   5039     1  0.0000000  0.6508444  3
   5022   5021   5033   5034     1  0.0000000  0.6508444  3
   5022   5021   5033   5035     1  0.0000000  0.6508444  3
   5023   5021   5017   5024     1  0.0000000  1.2552000  3
   5023   5021   5033   5039     1  0.0000000  0.6508444  3
   5023   5021   5033   5034     1  0.0000000  0.6508444  3
   5023   5021   5033   5035     1  0.0000000  0.6508444  3
   5024   5027   5036   5037     1  0.0000000  0.6508444  3
   5024   5027   5036   5038     1  0.0000000  0.6508444  3
   5025   5024   5027   5036     1  0.0000000  0.6508444  3
   5025   5024   5027   5028     1  0.0000000  0.6508444  3
   5025   5024   5027   5029     1  0.0000000  0.6508444  3
   5026   5024   5027   5036     1  0.0000000  0.6508444  3
   5026   5024   5027   5028     1  0.0000000  0.6508444  3
   5026   5024   5027   5029     1  0.0000000  0.6508444  3
   5028   5027   5036   5045     1  0.0000000  1.0460000  1
   5028   5027   5036   5045     1  0.0000000  0.0000000  3
   5028   5027   5036   5037     1  0.0000000  0.6508444  3
   5028   5027   5036   5038     1  0.0000000  0.6508444  3
   5029   5027   5036   5045     1  0.0000000  1.0460000  1
   5029   5027   5036   5045     1  0.0000000  0.0000000  3
   5029   5027   5036   5037     1  0.0000000  0.6508444  3
   5029   5027   5036   5038     1  0.0000000  0.6508444  3
   5031   5030   5042   9561     1  0.0000000  1.0460000  1
   5031   5030   5042   9561     1  0.0000000  0.0000000  3
   5031   5030   5042   5043     1  0.0000000  0.6508444  3
   5031   5030   5042   5044     1  0.0000000  0.6508444  3
   5032   5030   5042   9561     1  0.0000000  1.0460000  1
   5032   5030   5042   9561     1  0.0000000  0.0000000  3
   5032   5030   5042   5043     1  0.0000000  0.6508444  3
   5032   5030   5042   5044     1  0.0000000  0.6508444  3
   5034   5033   5039   9538     1  0.0000000  1.0460000  1
   5034   5033   5039   9538     1  0.0000000  0.0000000  3
   5034   5033   5039   5040     1  0.0000000  0.6508444  3
   5034   5033   5039   5041     1  0.0000000  0.6508444  3
   5035   5033   5039   9538     1  0.0000000  1.0460000  1
   5035   5033   5039   9538     1  0.0000000  0.0000000  3
   5035   5033   5039   5040     1  0.0000000  0.6508444  3
   5035   5033   5039   5041     1  0.0000000  0.6508444  3
   5039   9538   9534   9537     1  0.0000000  1.6038667  3
   5040   5039   9538   9534     1  0.0000000  1.6038667  3
   5041   5039   9538   9534     1  0.0000000  1.6038667  3
   5042   9561   9557   9560     1  0.0000000  1.6038667  3
   5043   5042   9561   9557     1  0.0000000  1.6038667  3
   5044   5042   9561   9557     1  0.0000000  1.6038667  3
   5046   5047   5059   5060     1  0.0000000  0.6508444  3
   5046   5047   5059   5061     1  0.0000000  0.6508444  3
   5046   5050   5062   5063     1  0.0000000  0.6508444  3
   5046   5050   5062   5064     1  0.0000000  0.6508444  3
   5046   5053   5056   5057     1  0.0000000  0.6508444  3
   5046   5053   5056   5058     1  0.0000000  0.6508444  3
   5047   5046   5050   5051     1  0.0000000  1.2552000  3
   5047   5046   5050   5052     1  0.0000000  1.2552000  3
   5047   5046   5053   5054     1  0.0000000  1.2552000  3
   5047   5046   5053   5055     1  0.0000000  1.2552000  3
   5047   5059   5071   5072     1  0.0000000  0.6508444  3
   5047   5059   5071   5073     1  0.0000000  0.6508444  3
   5048   5047   5046   5050     1  0.0000000  1.2552000  3
   5048   5047   5046   5053     1  0.0000000  1.2552000  3
   5048   5047   5059   5071     1  0.0000000  0.6508444  3
   5048   5047   5059   5060     1  0.0000000  0.6508444  3
   5048   5047   5059   5061     1  0.0000000  0.6508444  3
   5049   5047   5046   5050     1  0.0000000  1.2552000  3
   5049   5047   5046   5053     1  0.0000000  1.2552000  3
   5049   5047   5059   5071     1  0.0000000  0.6508444  3
   5049   5047   5059   5060     1  0.0000000  0.6508444  3
   5049   5047   5059   5061     1  0.0000000  0.6508444  3
   5050   5046   5053   5054     1  0.0000000  1.2552000  3
   5050   5046   5053   5055     1  0.0000000  1.2552000  3
   5050   5062   5068   5069     1  0.0000000  0.6508444  3
   5050   5062   5068   5070     1  0.0000000  0.6508444  3
   5051   5050   5046   5053     1  0.0000000  1.2552000  3
   5051   5050   5062   5068     1  0.0000000  0.6508444  3
   5051   5050   5062   5063     1  0.0000000  0.6508444  3
   5051   5050   5062   5064     1  0.0000000  0.6508444  3
   5052   5050   5046   5053     1  0.0000000  1.2552000  3
   5052   5050   5062   5068     1  0.0000000  0.6508444  3
   5052   5050   5062   5063     1  0.0000000  0.6508444  3
   5052   5050   5062   5064     1  0.0000000  0.6508444  3
   5053   5056   5065   5066     1  0.0000000  0.6508444  3
   5053   5056   5065   5067     1  0.0000000  0.6508444  3
   5054   5053   5056   5065     1  0.0000000  0.6508444  3
   5054   5053   5056   5057     1  0.0000000  0.6508444  3
   5054   5053   5056   5058     1  0.0000000  0.6508444  3
   5055   5053   5056   5065     1  0.0000000  0.6508444  3
   5055   5053   5056   5057     1  0.0000000  0.6508444  3
   5055   5053   5056   5058     1  0.0000000  0.6508444  3
   5057   5056   5065   5074     1  0.0000000  1.0460000  1
   5057   5056   5065   5074     1  0.0000000  0.0000000  3
   5057   5056   5065   5066     1  0.0000000  0.6508444  3
   5057   5056   5065   5067     1  0.0000000  0.6508444  3
   5058   5056   5065   5074     1  0.0000000  1.0460000  1
   5058   5056   5065   5074     1  0.0000000  0.0000000  3
   5058   5056   5065   5066     1  0.0000000  0.6508444  3
   5058   5056   5065   5067     1  0.0000000  0.6508444  3
   5060   5059   5071   9607     1  0.0000000  1.0460000  1
   5060   5059   5071   9607     1  0.0000000  0.0000000  3
   5060   5059   5071   5072     1  0.0000000  0.6508444  3
   5060   5059   5071   5073     1  0.0000000  0.6508444  3
   5061   5059   5071   9607     1  0.0000000  1.0460000  1
   5061   5059   5071   9607     1  0.0000000  0.0000000  3
   5061   5059   5071   5072     1  0.0000000  0.6508444  3
   5061   5059   5071   5073     1  0.0000000  0.6508444  3
   5063   5062   5068   9584     1  0.0000000  1.0460000  1
   5063   5062   5068   9584     1  0.0000000  0.0000000  3
   5063   5062   5068   5069     1  0.0000000  0.6508444  3
   5063   5062   5068   5070     1  0.0000000  0.6508444  3
   5064   5062   5068   9584     1  0.0000000  1.0460000  1
   5064   5062   5068   9584     1  0.0000000  0.0000000  3
   5064   5062   5068   5069     1  0.0000000  0.6508444  3
   5064   5062   5068   5070     1  0.0000000  0.6508444  3
   5068   9584   9580   9583     1  0.0000000  1.6038667  3
   5069   5068   9584   9580     1  0.0000000  1.6038667  3
   5070   5068   9584   9580     1  0.0000000  1.6038667  3
   5071   9607   9603   9606     1  0.0000000  1.6038667  3
   5072   5071   9607   9603     1  0.0000000  1.6038667  3
   5073   5071   9607   9603     1  0.0000000  1.6038667  3
   5075   5076   5088   5089     1  0.0000000  0.6508444  3
   5075   5076   5088   5090     1  0.0000000  0.6508444  3
   5075   5079   5091   5092     1  0.0000000  0.6508444  3
   5075   5079   5091   5093     1  0.0000000  0.6508444  3
   5075   5082   5085   5086     1  0.0000000  0.6508444  3
   5075   5082   5085   5087     1  0.0000000  0.6508444  3
   5076   5075   5079   5080     1  0.0000000  1.2552000  3
   5076   5075   5079   5081     1  0.0000000  1.2552000  3
   5076   5075   5082   5083     1  0.0000000  1.2552000  3
   5076   5075   5082   5084     1  0.0000000  1.2552000  3
   5076   5088   5100   5101     1  0.0000000  0.6508444  3
   5076   5088   5100   5102     1  0.0000000  0.6508444  3
   5077   5076   5075   5079     1  0.0000000  1.2552000  3
   5077   5076   5075   5082     1  0.0000000  1.2552000  3
   5077   5076   5088   5100     1  0.0000000  0.6508444  3
   5077   5076   5088   5089     1  0.0000000  0.6508444  3
   5077   5076   5088   5090     1  0.0000000  0.6508444  3
   5078   5076   5075   5079     1  0.0000000  1.2552000  3
   5078   5076   5075   5082     1  0.0000000  1.2552000  3
   5078   5076   5088   5100     1  0.0000000  0.6508444  3
   5078   5076   5088   5089     1  0.0000000  0.6508444  3
   5078   5076   5088   5090     1  0.0000000  0.6508444  3
   5079   5075   5082   5083     1  0.0000000  1.2552000  3
   5079   5075   5082   5084     1  0.0000000  1.2552000  3
   5079   5091   5097   5098     1  0.0000000  0.6508444  3
   5079   5091   5097   5099     1  0.0000000  0.6508444  3
   5080   5079   5075   5082     1  0.0000000  1.2552000  3
   5080   5079   5091   5097     1  0.0000000  0.6508444  3
   5080   5079   5091   5092     1  0.0000000  0.6508444  3
   5080   5079   5091   5093     1  0.0000000  0.6508444  3
   5081   5079   5075   5082     1  0.0000000  1.2552000  3
   5081   5079   5091   5097     1  0.0000000  0.6508444  3
   5081   5079   5091   5092     1  0.0000000  0.6508444  3
   5081   5079   5091   5093     1  0.0000000  0.6508444  3
   5082   5085   5094   5095     1  0.0000000  0.6508444  3
   5082   5085   5094   5096     1  0.0000000  0.6508444  3
   5083   5082   5085   5094     1  0.0000000  0.6508444  3
   5083   5082   5085   5086     1  0.0000000  0.6508444  3
   5083   5082   5085   5087     1  0.0000000  0.6508444  3
   5084   5082   5085   5094     1  0.0000000  0.6508444  3
   5084   5082   5085   5086     1  0.0000000  0.6508444  3
   5084   5082   5085   5087     1  0.0000000  0.6508444  3
   5086   5085   5094   5103     1  0.0000000  1.0460000  1
   5086   5085   5094   5103     1  0.0000000  0.0000000  3
   5086   5085   5094   5095     1  0.0000000  0.6508444  3
   5086   5085   5094   5096     1  0.0000000  0.6508444  3
   5087   5085   5094   5103     1  0.0000000  1.0460000  1
   5087   5085   5094   5103     1  0.0000000  0.0000000  3
   5087   5085   5094   5095     1  0.0000000  0.6508444  3
   5087   5085   5094   5096     1  0.0000000  0.6508444  3
   5089   5088   5100   9653     1  0.0000000  1.0460000  1
   5089   5088   5100   9653     1  0.0000000  0.0000000  3
   5089   5088   5100   5101     1  0.0000000  0.6508444  3
   5089   5088   5100   5102     1  0.0000000  0.6508444  3
   5090   5088   5100   9653     1  0.0000000  1.0460000  1
   5090   5088   5100   9653     1  0.0000000  0.0000000  3
   5090   5088   5100   5101     1  0.0000000  0.6508444  3
   5090   5088   5100   5102     1  0.0000000  0.6508444  3
   5092   5091   5097   9630     1  0.0000000  1.0460000  1
   5092   5091   5097   9630     1  0.0000000  0.0000000  3
   5092   5091   5097   5098     1  0.0000000  0.6508444  3
   5092   5091   5097   5099     1  0.0000000  0.6508444  3
   5093   5091   5097   9630     1  0.0000000  1.0460000  1
   5093   5091   5097   9630     1  0.0000000  0.0000000  3
   5093   5091   5097   5098     1  0.0000000  0.6508444  3
   5093   5091   5097   5099     1  0.0000000  0.6508444  3
   5097   9630   9626   9629     1  0.0000000  1.6038667  3
   5098   5097   9630   9626     1  0.0000000  1.6038667  3
   5099   5097   9630   9626     1  0.0000000  1.6038667  3
   5100   9653   9649   9652     1  0.0000000  1.6038667  3
   5101   5100   9653   9649     1  0.0000000  1.6038667  3
   5102   5100   9653   9649     1  0.0000000  1.6038667  3
   5104   5105   5117   5118     1  0.0000000  0.6508444  3
   5104   5105   5117   5119     1  0.0000000  0.6508444  3
   5104   5108   5120   5121     1  0.0000000  0.6508444  3
   5104   5108   5120   5122     1  0.0000000  0.6508444  3
   5104   5111   5114   5115     1  0.0000000  0.6508444  3
   5104   5111   5114   5116     1  0.0000000  0.6508444  3
   5105   5104   5108   5109     1  0.0000000  1.2552000  3
   5105   5104   5108   5110     1  0.0000000  1.2552000  3
   5105   5104   5111   5112     1  0.0000000  1.2552000  3
   5105   5104   5111   5113     1  0.0000000  1.2552000  3
   5105   5117   5129   5130     1  0.0000000  0.6508444  3
   5105   5117   5129   5131     1  0.0000000  0.6508444  3
   5106   5105   5104   5108     1  0.0000000  1.2552000  3
   5106   5105   5104   5111     1  0.0000000  1.2552000  3
   5106   5105   5117   5129     1  0.0000000  0.6508444  3
   5106   5105   5117   5118     1  0.0000000  0.6508444  3
   5106   5105   5117   5119     1  0.0000000  0.6508444  3
   5107   5105   5104   5108     1  0.0000000  1.2552000  3
   5107   5105   5104   5111     1  0.0000000  1.2552000  3
   5107   5105   5117   5129     1  0.0000000  0.6508444  3
   5107   5105   5117   5118     1  0.0000000  0.6508444  3
   5107   5105   5117   5119     1  0.0000000  0.6508444  3
   5108   5104   5111   5112     1  0.0000000  1.2552000  3
   5108   5104   5111   5113     1  0.0000000  1.2552000  3
   5108   5120   5126   5127     1  0.0000000  0.6508444  3
   5108   5120   5126   5128     1  0.0000000  0.6508444  3
   5109   5108   5104   5111     1  0.0000000  1.2552000  3
   5109   5108   5120   5126     1  0.0000000  0.6508444  3
   5109   5108   5120   5121     1  0.0000000  0.6508444  3
   5109   5108   5120   5122     1  0.0000000  0.6508444  3
   5110   5108   5104   5111     1  0.0000000  1.2552000  3
   5110   5108   5120   5126     1  0.0000000  0.6508444  3
   5110   5108   5120   5121     1  0.0000000  0.6508444  3
   5110   5108   5120   5122     1  0.0000000  0.6508444  3
   5111   5114   5123   5124     1  0.0000000  0.6508444  3
   5111   5114   5123   5125     1  0.0000000  0.6508444  3
   5112   5111   5114   5123     1  0.0000000  0.6508444  3
   5112   5111   5114   5115     1  0.0000000  0.6508444  3
   5112   5111   5114   5116     1  0.0000000  0.6508444  3
   5113   5111   5114   5123     1  0.0000000  0.6508444  3
   5113   5111   5114   5115     1  0.0000000  0.6508444  3
   5113   5111   5114   5116     1  0.0000000  0.6508444  3
   5115   5114   5123   5132     1  0.0000000  1.0460000  1
   5115   5114   5123   5132     1  0.0000000  0.0000000  3
   5115   5114   5123   5124     1  0.0000000  0.6508444  3
   5115   5114   5123   5125     1  0.0000000  0.6508444  3
   5116   5114   5123   5132     1  0.0000000  1.0460000  1
   5116   5114   5123   5132     1  0.0000000  0.0000000  3
   5116   5114   5123   5124     1  0.0000000  0.6508444  3
   5116   5114   5123   5125     1  0.0000000  0.6508444  3
   5118   5117   5129   9699     1  0.0000000  1.0460000  1
   5118   5117   5129   9699     1  0.0000000  0.0000000  3
   5118   5117   5129   5130     1  0.0000000  0.6508444  3
   5118   5117   5129   5131     1  0.0000000  0.6508444  3
   5119   5117   5129   9699     1  0.0000000  1.0460000  1
   5119   5117   5129   9699     1  0.0000000  0.0000000  3
   5119   5117   5129   5130     1  0.0000000  0.6508444  3
   5119   5117   5129   5131     1  0.0000000  0.6508444  3
   5121   5120   5126   9676     1  0.0000000  1.0460000  1
   5121   5120   5126   9676     1  0.0000000  0.0000000  3
   5121   5120   5126   5127     1  0.0000000  0.6508444  3
   5121   5120   5126   5128     1  0.0000000  0.6508444  3
   5122   5120   5126   9676     1  0.0000000  1.0460000  1
   5122   5120   5126   9676     1  0.0000000  0.0000000  3
   5122   5120   5126   5127     1  0.0000000  0.6508444  3
   5122   5120   5126   5128     1  0.0000000  0.6508444  3
   5126   9676   9672   9675     1  0.0000000  1.6038667  3
   5127   5126   9676   9672     1  0.0000000  1.6038667  3
   5128   5126   9676   9672     1  0.0000000  1.6038667  3
   5129   9699   9695   9698     1  0.0000000  1.6038667  3
   5130   5129   9699   9695     1  0.0000000  1.6038667  3
   5131   5129   9699   9695     1  0.0000000  1.6038667  3
   5133   5134   5146   5147     1  0.0000000  0.6508444  3
   5133   5134   5146   5148     1  0.0000000  0.6508444  3
   5133   5137   5149   5150     1  0.0000000  0.6508444  3
   5133   5137   5149   5151     1  0.0000000  0.6508444  3
   5133   5140   5143   5144     1  0.0000000  0.6508444  3
   5133   5140   5143   5145     1  0.0000000  0.6508444  3
   5134   5133   5137   5138     1  0.0000000  1.2552000  3
   5134   5133   5137   5139     1  0.0000000  1.2552000  3
   5134   5133   5140   5141     1  0.0000000  1.2552000  3
   5134   5133   5140   5142     1  0.0000000  1.2552000  3
   5134   5146   5158   5159     1  0.0000000  0.6508444  3
   5134   5146   5158   5160     1  0.0000000  0.6508444  3
   5135   5134   5133   5137     1  0.0000000  1.2552000  3
   5135   5134   5133   5140     1  0.0000000  1.2552000  3
   5135   5134   5146   5158     1  0.0000000  0.6508444  3
   5135   5134   5146   5147     1  0.0000000  0.6508444  3
   5135   5134   5146   5148     1  0.0000000  0.6508444  3
   5136   5134   5133   5137     1  0.0000000  1.2552000  3
   5136   5134   5133   5140     1  0.0000000  1.2552000  3
   5136   5134   5146   5158     1  0.0000000  0.6508444  3
   5136   5134   5146   5147     1  0.0000000  0.6508444  3
   5136   5134   5146   5148     1  0.0000000  0.6508444  3
   5137   5133   5140   5141     1  0.0000000  1.2552000  3
   5137   5133   5140   5142     1  0.0000000  1.2552000  3
   5137   5149   5155   5156     1  0.0000000  0.6508444  3
   5137   5149   5155   5157     1  0.0000000  0.6508444  3
   5138   5137   5133   5140     1  0.0000000  1.2552000  3
   5138   5137   5149   5155     1  0.0000000  0.6508444  3
   5138   5137   5149   5150     1  0.0000000  0.6508444  3
   5138   5137   5149   5151     1  0.0000000  0.6508444  3
   5139   5137   5133   5140     1  0.0000000  1.2552000  3
   5139   5137   5149   5155     1  0.0000000  0.6508444  3
   5139   5137   5149   5150     1  0.0000000  0.6508444  3
   5139   5137   5149   5151     1  0.0000000  0.6508444  3
   5140   5143   5152   5153     1  0.0000000  0.6508444  3
   5140   5143   5152   5154     1  0.0000000  0.6508444  3
   5141   5140   5143   5152     1  0.0000000  0.6508444  3
   5141   5140   5143   5144     1  0.0000000  0.6508444  3
   5141   5140   5143   5145     1  0.0000000  0.6508444  3
   5142   5140   5143   5152     1  0.0000000  0.6508444  3
   5142   5140   5143   5144     1  0.0000000  0.6508444  3
   5142   5140   5143   5145     1  0.0000000  0.6508444  3
   5144   5143   5152   5161     1  0.0000000  1.0460000  1
   5144   5143   5152   5161     1  0.0000000  0.0000000  3
   5144   5143   5152   5153     1  0.0000000  0.6508444  3
   5144   5143   5152   5154     1  0.0000000  0.6508444  3
   5145   5143   5152   5161     1  0.0000000  1.0460000  1
   5145   5143   5152   5161     1  0.0000000  0.0000000  3
   5145   5143   5152   5153     1  0.0000000  0.6508444  3
   5145   5143   5152   5154     1  0.0000000  0.6508444  3
   5147   5146   5158   9745     1  0.0000000  1.0460000  1
   5147   5146   5158   9745     1  0.0000000  0.0000000  3
   5147   5146   5158   5159     1  0.0000000  0.6508444  3
   5147   5146   5158   5160     1  0.0000000  0.6508444  3
   5148   5146   5158   9745     1  0.0000000  1.0460000  1
   5148   5146   5158   9745     1  0.0000000  0.0000000  3
   5148   5146   5158   5159     1  0.0000000  0.6508444  3
   5148   5146   5158   5160     1  0.0000000  0.6508444  3
   5150   5149   5155   9722     1  0.0000000  1.0460000  1
   5150   5149   5155   9722     1  0.0000000  0.0000000  3
   5150   5149   5155   5156     1  0.0000000  0.6508444  3
   5150   5149   5155   5157     1  0.0000000  0.6508444  3
   5151   5149   5155   9722     1  0.0000000  1.0460000  1
   5151   5149   5155   9722     1  0.0000000  0.0000000  3
   5151   5149   5155   5156     1  0.0000000  0.6508444  3
   5151   5149   5155   5157     1  0.0000000  0.6508444  3
   5155   9722   9718   9721     1  0.0000000  1.6038667  3
   5156   5155   9722   9718     1  0.0000000  1.6038667  3
   5157   5155   9722   9718     1  0.0000000  1.6038667  3
   5158   9745   9741   9744     1  0.0000000  1.6038667  3
   5159   5158   9745   9741     1  0.0000000  1.6038667  3
   5160   5158   9745   9741     1  0.0000000  1.6038667  3
   5162   5163   5175   5176     1  0.0000000  0.6508444  3
   5162   5163   5175   5177     1  0.0000000  0.6508444  3
   5162   5166   5178   5179     1  0.0000000  0.6508444  3
   5162   5166   5178   5180     1  0.0000000  0.6508444  3
   5162   5169   5172   5173     1  0.0000000  0.6508444  3
   5162   5169   5172   5174     1  0.0000000  0.6508444  3
   5163   5162   5166   5167     1  0.0000000  1.2552000  3
   5163   5162   5166   5168     1  0.0000000  1.2552000  3
   5163   5162   5169   5170     1  0.0000000  1.2552000  3
   5163   5162   5169   5171     1  0.0000000  1.2552000  3
   5163   5175   5187   5188     1  0.0000000  0.6508444  3
   5163   5175   5187   5189     1  0.0000000  0.6508444  3
   5164   5163   5162   5166     1  0.0000000  1.2552000  3
   5164   5163   5162   5169     1  0.0000000  1.2552000  3
   5164   5163   5175   5187     1  0.0000000  0.6508444  3
   5164   5163   5175   5176     1  0.0000000  0.6508444  3
   5164   5163   5175   5177     1  0.0000000  0.6508444  3
   5165   5163   5162   5166     1  0.0000000  1.2552000  3
   5165   5163   5162   5169     1  0.0000000  1.2552000  3
   5165   5163   5175   5187     1  0.0000000  0.6508444  3
   5165   5163   5175   5176     1  0.0000000  0.6508444  3
   5165   5163   5175   5177     1  0.0000000  0.6508444  3
   5166   5162   5169   5170     1  0.0000000  1.2552000  3
   5166   5162   5169   5171     1  0.0000000  1.2552000  3
   5166   5178   5184   5185     1  0.0000000  0.6508444  3
   5166   5178   5184   5186     1  0.0000000  0.6508444  3
   5167   5166   5162   5169     1  0.0000000  1.2552000  3
   5167   5166   5178   5184     1  0.0000000  0.6508444  3
   5167   5166   5178   5179     1  0.0000000  0.6508444  3
   5167   5166   5178   5180     1  0.0000000  0.6508444  3
   5168   5166   5162   5169     1  0.0000000  1.2552000  3
   5168   5166   5178   5184     1  0.0000000  0.6508444  3
   5168   5166   5178   5179     1  0.0000000  0.6508444  3
   5168   5166   5178   5180     1  0.0000000  0.6508444  3
   5169   5172   5181   5182     1  0.0000000  0.6508444  3
   5169   5172   5181   5183     1  0.0000000  0.6508444  3
   5170   5169   5172   5181     1  0.0000000  0.6508444  3
   5170   5169   5172   5173     1  0.0000000  0.6508444  3
   5170   5169   5172   5174     1  0.0000000  0.6508444  3
   5171   5169   5172   5181     1  0.0000000  0.6508444  3
   5171   5169   5172   5173     1  0.0000000  0.6508444  3
   5171   5169   5172   5174     1  0.0000000  0.6508444  3
   5173   5172   5181   5190     1  0.0000000  1.0460000  1
   5173   5172   5181   5190     1  0.0000000  0.0000000  3
   5173   5172   5181   5182     1  0.0000000  0.6508444  3
   5173   5172   5181   5183     1  0.0000000  0.6508444  3
   5174   5172   5181   5190     1  0.0000000  1.0460000  1
   5174   5172   5181   5190     1  0.0000000  0.0000000  3
   5174   5172   5181   5182     1  0.0000000  0.6508444  3
   5174   5172   5181   5183     1  0.0000000  0.6508444  3
   5176   5175   5187   9791     1  0.0000000  1.0460000  1
   5176   5175   5187   9791     1  0.0000000  0.0000000  3
   5176   5175   5187   5188     1  0.0000000  0.6508444  3
   5176   5175   5187   5189     1  0.0000000  0.6508444  3
   5177   5175   5187   9791     1  0.0000000  1.0460000  1
   5177   5175   5187   9791     1  0.0000000  0.0000000  3
   5177   5175   5187   5188     1  0.0000000  0.6508444  3
   5177   5175   5187   5189     1  0.0000000  0.6508444  3
   5179   5178   5184   9768     1  0.0000000  1.0460000  1
   5179   5178   5184   9768     1  0.0000000  0.0000000  3
   5179   5178   5184   5185     1  0.0000000  0.6508444  3
   5179   5178   5184   5186     1  0.0000000  0.6508444  3
   5180   5178   5184   9768     1  0.0000000  1.0460000  1
   5180   5178   5184   9768     1  0.0000000  0.0000000  3
   5180   5178   5184   5185     1  0.0000000  0.6508444  3
   5180   5178   5184   5186     1  0.0000000  0.6508444  3
   5184   9768   9764   9767     1  0.0000000  1.6038667  3
   5185   5184   9768   9764     1  0.0000000  1.6038667  3
   5186   5184   9768   9764     1  0.0000000  1.6038667  3
   5187   9791   9787   9790     1  0.0000000  1.6038667  3
   5188   5187   9791   9787     1  0.0000000  1.6038667  3
   5189   5187   9791   9787     1  0.0000000  1.6038667  3
   5191   5192   5204   5205     1  0.0000000  0.6508444  3
   5191   5192   5204   5206     1  0.0000000  0.6508444  3
   5191   5195   5207   5208     1  0.0000000  0.6508444  3
   5191   5195   5207   5209     1  0.0000000  0.6508444  3
   5191   5198   5201   5202     1  0.0000000  0.6508444  3
   5191   5198   5201   5203     1  0.0000000  0.6508444  3
   5192   5191   5195   5196     1  0.0000000  1.2552000  3
   5192   5191   5195   5197     1  0.0000000  1.2552000  3
   5192   5191   5198   5199     1  0.0000000  1.2552000  3
   5192   5191   5198   5200     1  0.0000000  1.2552000  3
   5192   5204   5216   5217     1  0.0000000  0.6508444  3
   5192   5204   5216   5218     1  0.0000000  0.6508444  3
   5193   5192   5191   5195     1  0.0000000  1.2552000  3
   5193   5192   5191   5198     1  0.0000000  1.2552000  3
   5193   5192   5204   5216     1  0.0000000  0.6508444  3
   5193   5192   5204   5205     1  0.0000000  0.6508444  3
   5193   5192   5204   5206     1  0.0000000  0.6508444  3
   5194   5192   5191   5195     1  0.0000000  1.2552000  3
   5194   5192   5191   5198     1  0.0000000  1.2552000  3
   5194   5192   5204   5216     1  0.0000000  0.6508444  3
   5194   5192   5204   5205     1  0.0000000  0.6508444  3
   5194   5192   5204   5206     1  0.0000000  0.6508444  3
   5195   5191   5198   5199     1  0.0000000  1.2552000  3
   5195   5191   5198   5200     1  0.0000000  1.2552000  3
   5195   5207   5213   5214     1  0.0000000  0.6508444  3
   5195   5207   5213   5215     1  0.0000000  0.6508444  3
   5196   5195   5191   5198     1  0.0000000  1.2552000  3
   5196   5195   5207   5213     1  0.0000000  0.6508444  3
   5196   5195   5207   5208     1  0.0000000  0.6508444  3
   5196   5195   5207   5209     1  0.0000000  0.6508444  3
   5197   5195   5191   5198     1  0.0000000  1.2552000  3
   5197   5195   5207   5213     1  0.0000000  0.6508444  3
   5197   5195   5207   5208     1  0.0000000  0.6508444  3
   5197   5195   5207   5209     1  0.0000000  0.6508444  3
   5198   5201   5210   5211     1  0.0000000  0.6508444  3
   5198   5201   5210   5212     1  0.0000000  0.6508444  3
   5199   5198   5201   5210     1  0.0000000  0.6508444  3
   5199   5198   5201   5202     1  0.0000000  0.6508444  3
   5199   5198   5201   5203     1  0.0000000  0.6508444  3
   5200   5198   5201   5210     1  0.0000000  0.6508444  3
   5200   5198   5201   5202     1  0.0000000  0.6508444  3
   5200   5198   5201   5203     1  0.0000000  0.6508444  3
   5202   5201   5210   5219     1  0.0000000  1.0460000  1
   5202   5201   5210   5219     1  0.0000000  0.0000000  3
   5202   5201   5210   5211     1  0.0000000  0.6508444  3
   5202   5201   5210   5212     1  0.0000000  0.6508444  3
   5203   5201   5210   5219     1  0.0000000  1.0460000  1
   5203   5201   5210   5219     1  0.0000000  0.0000000  3
   5203   5201   5210   5211     1  0.0000000  0.6508444  3
   5203   5201   5210   5212     1  0.0000000  0.6508444  3
   5205   5204   5216   9837     1  0.0000000  1.0460000  1
   5205   5204   5216   9837     1  0.0000000  0.0000000  3
   5205   5204   5216   5217     1  0.0000000  0.6508444  3
   5205   5204   5216   5218     1  0.0000000  0.6508444  3
   5206   5204   5216   9837     1  0.0000000  1.0460000  1
   5206   5204   5216   9837     1  0.0000000  0.0000000  3
   5206   5204   5216   5217     1  0.0000000  0.6508444  3
   5206   5204   5216   5218     1  0.0000000  0.6508444  3
   5208   5207   5213   9814     1  0.0000000  1.0460000  1
   5208   5207   5213   9814     1  0.0000000  0.0000000  3
   5208   5207   5213   5214     1  0.0000000  0.6508444  3
   5208   5207   5213   5215     1  0.0000000  0.6508444  3
   5209   5207   5213   9814     1  0.0000000  1.0460000  1
   5209   5207   5213   9814     1  0.0000000  0.0000000  3
   5209   5207   5213   5214     1  0.0000000  0.6508444  3
   5209   5207   5213   5215     1  0.0000000  0.6508444  3
   5213   9814   9810   9813     1  0.0000000  1.6038667  3
   5214   5213   9814   9810     1  0.0000000  1.6038667  3
   5215   5213   9814   9810     1  0.0000000  1.6038667  3
   5216   9837   9833   9836     1  0.0000000  1.6038667  3
   5217   5216   9837   9833     1  0.0000000  1.6038667  3
   5218   5216   9837   9833     1  0.0000000  1.6038667  3
   5220   5221   5233   5234     1  0.0000000  0.6508444  3
   5220   5221   5233   5235     1  0.0000000  0.6508444  3
   5220   5224   5236   5237     1  0.0000000  0.6508444  3
   5220   5224   5236   5238     1  0.0000000  0.6508444  3
   5220   5227   5230   5231     1  0.0000000  0.6508444  3
   5220   5227   5230   5232     1  0.0000000  0.6508444  3
   5221   5220   5224   5225     1  0.0000000  1.2552000  3
   5221   5220   5224   5226     1  0.0000000  1.2552000  3
   5221   5220   5227   5228     1  0.0000000  1.2552000  3
   5221   5220   5227   5229     1  0.0000000  1.2552000  3
   5221   5233   5245   5246     1  0.0000000  0.6508444  3
   5221   5233   5245   5247     1  0.0000000  0.6508444  3
   5222   5221   5220   5224     1  0.0000000  1.2552000  3
   5222   5221   5220   5227     1  0.0000000  1.2552000  3
   5222   5221   5233   5245     1  0.0000000  0.6508444  3
   5222   5221   5233   5234     1  0.0000000  0.6508444  3
   5222   5221   5233   5235     1  0.0000000  0.6508444  3
   5223   5221   5220   5224     1  0.0000000  1.2552000  3
   5223   5221   5220   5227     1  0.0000000  1.2552000  3
   5223   5221   5233   5245     1  0.0000000  0.6508444  3
   5223   5221   5233   5234     1  0.0000000  0.6508444  3
   5223   5221   5233   5235     1  0.0000000  0.6508444  3
   5224   5220   5227   5228     1  0.0000000  1.2552000  3
   5224   5220   5227   5229     1  0.0000000  1.2552000  3
   5224   5236   5242   5243     1  0.0000000  0.6508444  3
   5224   5236   5242   5244     1  0.0000000  0.6508444  3
   5225   5224   5220   5227     1  0.0000000  1.2552000  3
   5225   5224   5236   5242     1  0.0000000  0.6508444  3
   5225   5224   5236   5237     1  0.0000000  0.6508444  3
   5225   5224   5236   5238     1  0.0000000  0.6508444  3
   5226   5224   5220   5227     1  0.0000000  1.2552000  3
   5226   5224   5236   5242     1  0.0000000  0.6508444  3
   5226   5224   5236   5237     1  0.0000000  0.6508444  3
   5226   5224   5236   5238     1  0.0000000  0.6508444  3
   5227   5230   5239   5240     1  0.0000000  0.6508444  3
   5227   5230   5239   5241     1  0.0000000  0.6508444  3
   5228   5227   5230   5239     1  0.0000000  0.6508444  3
   5228   5227   5230   5231     1  0.0000000  0.6508444  3
   5228   5227   5230   5232     1  0.0000000  0.6508444  3
   5229   5227   5230   5239     1  0.0000000  0.6508444  3
   5229   5227   5230   5231     1  0.0000000  0.6508444  3
   5229   5227   5230   5232     1  0.0000000  0.6508444  3
   5231   5230   5239   5248     1  0.0000000  1.0460000  1
   5231   5230   5239   5248     1  0.0000000  0.0000000  3
   5231   5230   5239   5240     1  0.0000000  0.6508444  3
   5231   5230   5239   5241     1  0.0000000  0.6508444  3
   5232   5230   5239   5248     1  0.0000000  1.0460000  1
   5232   5230   5239   5248     1  0.0000000  0.0000000  3
   5232   5230   5239   5240     1  0.0000000  0.6508444  3
   5232   5230   5239   5241     1  0.0000000  0.6508444  3
   5234   5233   5245   9883     1  0.0000000  1.0460000  1
   5234   5233   5245   9883     1  0.0000000  0.0000000  3
   5234   5233   5245   5246     1  0.0000000  0.6508444  3
   5234   5233   5245   5247     1  0.0000000  0.6508444  3
   5235   5233   5245   9883     1  0.0000000  1.0460000  1
   5235   5233   5245   9883     1  0.0000000  0.0000000  3
   5235   5233   5245   5246     1  0.0000000  0.6508444  3
   5235   5233   5245   5247     1  0.0000000  0.6508444  3
   5237   5236   5242   9860     1  0.0000000  1.0460000  1
   5237   5236   5242   9860     1  0.0000000  0.0000000  3
   5237   5236   5242   5243     1  0.0000000  0.6508444  3
   5237   5236   5242   5244     1  0.0000000  0.6508444  3
   5238   5236   5242   9860     1  0.0000000  1.0460000  1
   5238   5236   5242   9860     1  0.0000000  0.0000000  3
   5238   5236   5242   5243     1  0.0000000  0.6508444  3
   5238   5236   5242   5244     1  0.0000000  0.6508444  3
   5242   9860   9856   9859     1  0.0000000  1.6038667  3
   5243   5242   9860   9856     1  0.0000000  1.6038667  3
   5244   5242   9860   9856     1  0.0000000  1.6038667  3
   5245   9883   9879   9882     1  0.0000000  1.6038667  3
   5246   5245   9883   9879     1  0.0000000  1.6038667  3
   5247   5245   9883   9879     1  0.0000000  1.6038667  3
   5249   5250   5262   5263     1  0.0000000  0.6508444  3
   5249   5250   5262   5264     1  0.0000000  0.6508444  3
   5249   5253   5265   5266     1  0.0000000  0.6508444  3
   5249   5253   5265   5267     1  0.0000000  0.6508444  3
   5249   5256   5259   5260     1  0.0000000  0.6508444  3
   5249   5256   5259   5261     1  0.0000000  0.6508444  3
   5250   5249   5253   5254     1  0.0000000  1.2552000  3
   5250   5249   5253   5255     1  0.0000000  1.2552000  3
   5250   5249   5256   5257     1  0.0000000  1.2552000  3
   5250   5249   5256   5258     1  0.0000000  1.2552000  3
   5250   5262   5274   5275     1  0.0000000  0.6508444  3
   5250   5262   5274   5276     1  0.0000000  0.6508444  3
   5251   5250   5249   5253     1  0.0000000  1.2552000  3
   5251   5250   5249   5256     1  0.0000000  1.2552000  3
   5251   5250   5262   5274     1  0.0000000  0.6508444  3
   5251   5250   5262   5263     1  0.0000000  0.6508444  3
   5251   5250   5262   5264     1  0.0000000  0.6508444  3
   5252   5250   5249   5253     1  0.0000000  1.2552000  3
   5252   5250   5249   5256     1  0.0000000  1.2552000  3
   5252   5250   5262   5274     1  0.0000000  0.6508444  3
   5252   5250   5262   5263     1  0.0000000  0.6508444  3
   5252   5250   5262   5264     1  0.0000000  0.6508444  3
   5253   5249   5256   5257     1  0.0000000  1.2552000  3
   5253   5249   5256   5258     1  0.0000000  1.2552000  3
   5253   5265   5271   5272     1  0.0000000  0.6508444  3
   5253   5265   5271   5273     1  0.0000000  0.6508444  3
   5254   5253   5249   5256     1  0.0000000  1.2552000  3
   5254   5253   5265   5271     1  0.0000000  0.6508444  3
   5254   5253   5265   5266     1  0.0000000  0.6508444  3
   5254   5253   5265   5267     1  0.0000000  0.6508444  3
   5255   5253   5249   5256     1  0.0000000  1.2552000  3
   5255   5253   5265   5271     1  0.0000000  0.6508444  3
   5255   5253   5265   5266     1  0.0000000  0.6508444  3
   5255   5253   5265   5267     1  0.0000000  0.6508444  3
   5256   5259   5268   5269     1  0.0000000  0.6508444  3
   5256   5259   5268   5270     1  0.0000000  0.6508444  3
   5257   5256   5259   5268     1  0.0000000  0.6508444  3
   5257   5256   5259   5260     1  0.0000000  0.6508444  3
   5257   5256   5259   5261     1  0.0000000  0.6508444  3
   5258   5256   5259   5268     1  0.0000000  0.6508444  3
   5258   5256   5259   5260     1  0.0000000  0.6508444  3
   5258   5256   5259   5261     1  0.0000000  0.6508444  3
   5260   5259   5268   5277     1  0.0000000  1.0460000  1
   5260   5259   5268   5277     1  0.0000000  0.0000000  3
   5260   5259   5268   5269     1  0.0000000  0.6508444  3
   5260   5259   5268   5270     1  0.0000000  0.6508444  3
   5261   5259   5268   5277     1  0.0000000  1.0460000  1
   5261   5259   5268   5277     1  0.0000000  0.0000000  3
   5261   5259   5268   5269     1  0.0000000  0.6508444  3
   5261   5259   5268   5270     1  0.0000000  0.6508444  3
   5263   5262   5274   9929     1  0.0000000  1.0460000  1
   5263   5262   5274   9929     1  0.0000000  0.0000000  3
   5263   5262   5274   5275     1  0.0000000  0.6508444  3
   5263   5262   5274   5276     1  0.0000000  0.6508444  3
   5264   5262   5274   9929     1  0.0000000  1.0460000  1
   5264   5262   5274   9929     1  0.0000000  0.0000000  3
   5264   5262   5274   5275     1  0.0000000  0.6508444  3
   5264   5262   5274   5276     1  0.0000000  0.6508444  3
   5266   5265   5271   9906     1  0.0000000  1.0460000  1
   5266   5265   5271   9906     1  0.0000000  0.0000000  3
   5266   5265   5271   5272     1  0.0000000  0.6508444  3
   5266   5265   5271   5273     1  0.0000000  0.6508444  3
   5267   5265   5271   9906     1  0.0000000  1.0460000  1
   5267   5265   5271   9906     1  0.0000000  0.0000000  3
   5267   5265   5271   5272     1  0.0000000  0.6508444  3
   5267   5265   5271   5273     1  0.0000000  0.6508444  3
   5271   9906   9902   9905     1  0.0000000  1.6038667  3
   5272   5271   9906   9902     1  0.0000000  1.6038667  3
   5273   5271   9906   9902     1  0.0000000  1.6038667  3
   5274   9929   9925   9928     1  0.0000000  1.6038667  3
   5275   5274   9929   9925     1  0.0000000  1.6038667  3
   5276   5274   9929   9925     1  0.0000000  1.6038667  3
   5278   5279   5291   5292     1  0.0000000  0.6508444  3
   5278   5279   5291   5293     1  0.0000000  0.6508444  3
   5278   5282   5294   5295     1  0.0000000  0.6508444  3
   5278   5282   5294   5296     1  0.0000000  0.6508444  3
   5278   5285   5288   5289     1  0.0000000  0.6508444  3
   5278   5285   5288   5290     1  0.0000000  0.6508444  3
   5279   5278   5282   5283     1  0.0000000  1.2552000  3
   5279   5278   5282   5284     1  0.0000000  1.2552000  3
   5279   5278   5285   5286     1  0.0000000  1.2552000  3
   5279   5278   5285   5287     1  0.0000000  1.2552000  3
   5279   5291   5303   5304     1  0.0000000  0.6508444  3
   5279   5291   5303   5305     1  0.0000000  0.6508444  3
   5280   5279   5278   5282     1  0.0000000  1.2552000  3
   5280   5279   5278   5285     1  0.0000000  1.2552000  3
   5280   5279   5291   5303     1  0.0000000  0.6508444  3
   5280   5279   5291   5292     1  0.0000000  0.6508444  3
   5280   5279   5291   5293     1  0.0000000  0.6508444  3
   5281   5279   5278   5282     1  0.0000000  1.2552000  3
   5281   5279   5278   5285     1  0.0000000  1.2552000  3
   5281   5279   5291   5303     1  0.0000000  0.6508444  3
   5281   5279   5291   5292     1  0.0000000  0.6508444  3
   5281   5279   5291   5293     1  0.0000000  0.6508444  3
   5282   5278   5285   5286     1  0.0000000  1.2552000  3
   5282   5278   5285   5287     1  0.0000000  1.2552000  3
   5282   5294   5300   5301     1  0.0000000  0.6508444  3
   5282   5294   5300   5302     1  0.0000000  0.6508444  3
   5283   5282   5278   5285     1  0.0000000  1.2552000  3
   5283   5282   5294   5300     1  0.0000000  0.6508444  3
   5283   5282   5294   5295     1  0.0000000  0.6508444  3
   5283   5282   5294   5296     1  0.0000000  0.6508444  3
   5284   5282   5278   5285     1  0.0000000  1.2552000  3
   5284   5282   5294   5300     1  0.0000000  0.6508444  3
   5284   5282   5294   5295     1  0.0000000  0.6508444  3
   5284   5282   5294   5296     1  0.0000000  0.6508444  3
   5285   5288   5297   5298     1  0.0000000  0.6508444  3
   5285   5288   5297   5299     1  0.0000000  0.6508444  3
   5286   5285   5288   5297     1  0.0000000  0.6508444  3
   5286   5285   5288   5289     1  0.0000000  0.6508444  3
   5286   5285   5288   5290     1  0.0000000  0.6508444  3
   5287   5285   5288   5297     1  0.0000000  0.6508444  3
   5287   5285   5288   5289     1  0.0000000  0.6508444  3
   5287   5285   5288   5290     1  0.0000000  0.6508444  3
   5289   5288   5297   5306     1  0.0000000  1.0460000  1
   5289   5288   5297   5306     1  0.0000000  0.0000000  3
   5289   5288   5297   5298     1  0.0000000  0.6508444  3
   5289   5288   5297   5299     1  0.0000000  0.6508444  3
   5290   5288   5297   5306     1  0.0000000  1.0460000  1
   5290   5288   5297   5306     1  0.0000000  0.0000000  3
   5290   5288   5297   5298     1  0.0000000  0.6508444  3
   5290   5288   5297   5299     1  0.0000000  0.6508444  3
   5292   5291   5303   9975     1  0.0000000  1.0460000  1
   5292   5291   5303   9975     1  0.0000000  0.0000000  3
   5292   5291   5303   5304     1  0.0000000  0.6508444  3
   5292   5291   5303   5305     1  0.0000000  0.6508444  3
   5293   5291   5303   9975     1  0.0000000  1.0460000  1
   5293   5291   5303   9975     1  0.0000000  0.0000000  3
   5293   5291   5303   5304     1  0.0000000  0.6508444  3
   5293   5291   5303   5305     1  0.0000000  0.6508444  3
   5295   5294   5300   9952     1  0.0000000  1.0460000  1
   5295   5294   5300   9952     1  0.0000000  0.0000000  3
   5295   5294   5300   5301     1  0.0000000  0.6508444  3
   5295   5294   5300   5302     1  0.0000000  0.6508444  3
   5296   5294   5300   9952     1  0.0000000  1.0460000  1
   5296   5294   5300   9952     1  0.0000000  0.0000000  3
   5296   5294   5300   5301     1  0.0000000  0.6508444  3
   5296   5294   5300   5302     1  0.0000000  0.6508444  3
   5300   9952   9948   9951     1  0.0000000  1.6038667  3
   5301   5300   9952   9948     1  0.0000000  1.6038667  3
   5302   5300   9952   9948     1  0.0000000  1.6038667  3
   5303   9975   9971   9974     1  0.0000000  1.6038667  3
   5304   5303   9975   9971     1  0.0000000  1.6038667  3
   5305   5303   9975   9971     1  0.0000000  1.6038667  3
   5307   5308   5320   5321     1  0.0000000  0.6508444  3
   5307   5308   5320   5322     1  0.0000000  0.6508444  3
   5307   5311   5323   5324     1  0.0000000  0.6508444  3
   5307   5311   5323   5325     1  0.0000000  0.6508444  3
   5307   5314   5317   5318     1  0.0000000  0.6508444  3
   5307   5314   5317   5319     1  0.0000000  0.6508444  3
   5308   5307   5311   5312     1  0.0000000  1.2552000  3
   5308   5307   5311   5313     1  0.0000000  1.2552000  3
   5308   5307   5314   5315     1  0.0000000  1.2552000  3
   5308   5307   5314   5316     1  0.0000000  1.2552000  3
   5308   5320   5332   5333     1  0.0000000  0.6508444  3
   5308   5320   5332   5334     1  0.0000000  0.6508444  3
   5309   5308   5307   5311     1  0.0000000  1.2552000  3
   5309   5308   5307   5314     1  0.0000000  1.2552000  3
   5309   5308   5320   5332     1  0.0000000  0.6508444  3
   5309   5308   5320   5321     1  0.0000000  0.6508444  3
   5309   5308   5320   5322     1  0.0000000  0.6508444  3
   5310   5308   5307   5311     1  0.0000000  1.2552000  3
   5310   5308   5307   5314     1  0.0000000  1.2552000  3
   5310   5308   5320   5332     1  0.0000000  0.6508444  3
   5310   5308   5320   5321     1  0.0000000  0.6508444  3
   5310   5308   5320   5322     1  0.0000000  0.6508444  3
   5311   5307   5314   5315     1  0.0000000  1.2552000  3
   5311   5307   5314   5316     1  0.0000000  1.2552000  3
   5311   5323   5329   5330     1  0.0000000  0.6508444  3
   5311   5323   5329   5331     1  0.0000000  0.6508444  3
   5312   5311   5307   5314     1  0.0000000  1.2552000  3
   5312   5311   5323   5329     1  0.0000000  0.6508444  3
   5312   5311   5323   5324     1  0.0000000  0.6508444  3
   5312   5311   5323   5325     1  0.0000000  0.6508444  3
   5313   5311   5307   5314     1  0.0000000  1.2552000  3
   5313   5311   5323   5329     1  0.0000000  0.6508444  3
   5313   5311   5323   5324     1  0.0000000  0.6508444  3
   5313   5311   5323   5325     1  0.0000000  0.6508444  3
   5314   5317   5326   5327     1  0.0000000  0.6508444  3
   5314   5317   5326   5328     1  0.0000000  0.6508444  3
   5315   5314   5317   5326     1  0.0000000  0.6508444  3
   5315   5314   5317   5318     1  0.0000000  0.6508444  3
   5315   5314   5317   5319     1  0.0000000  0.6508444  3
   5316   5314   5317   5326     1  0.0000000  0.6508444  3
   5316   5314   5317   5318     1  0.0000000  0.6508444  3
   5316   5314   5317   5319     1  0.0000000  0.6508444  3
   5318   5317   5326   5335     1  0.0000000  1.0460000  1
   5318   5317   5326   5335     1  0.0000000  0.0000000  3
   5318   5317   5326   5327     1  0.0000000  0.6508444  3
   5318   5317   5326   5328     1  0.0000000  0.6508444  3
   5319   5317   5326   5335     1  0.0000000  1.0460000  1
   5319   5317   5326   5335     1  0.0000000  0.0000000  3
   5319   5317   5326   5327     1  0.0000000  0.6508444  3
   5319   5317   5326   5328     1  0.0000000  0.6508444  3
   5321   5320   5332  10021     1  0.0000000  1.0460000  1
   5321   5320   5332  10021     1  0.0000000  0.0000000  3
   5321   5320   5332   5333     1  0.0000000  0.6508444  3
   5321   5320   5332   5334     1  0.0000000  0.6508444  3
   5322   5320   5332  10021     1  0.0000000  1.0460000  1
   5322   5320   5332  10021     1  0.0000000  0.0000000  3
   5322   5320   5332   5333     1  0.0000000  0.6508444  3
   5322   5320   5332   5334     1  0.0000000  0.6508444  3
   5324   5323   5329   9998     1  0.0000000  1.0460000  1
   5324   5323   5329   9998     1  0.0000000  0.0000000  3
   5324   5323   5329   5330     1  0.0000000  0.6508444  3
   5324   5323   5329   5331     1  0.0000000  0.6508444  3
   5325   5323   5329   9998     1  0.0000000  1.0460000  1
   5325   5323   5329   9998     1  0.0000000  0.0000000  3
   5325   5323   5329   5330     1  0.0000000  0.6508444  3
   5325   5323   5329   5331     1  0.0000000  0.6508444  3
   5329   9998   9994   9997     1  0.0000000  1.6038667  3
   5330   5329   9998   9994     1  0.0000000  1.6038667  3
   5331   5329   9998   9994     1  0.0000000  1.6038667  3
   5332  10021  10017  10020     1  0.0000000  1.6038667  3
   5333   5332  10021  10017     1  0.0000000  1.6038667  3
   5334   5332  10021  10017     1  0.0000000  1.6038667  3
   5336   5337   5349   5350     1  0.0000000  0.6508444  3
   5336   5337   5349   5351     1  0.0000000  0.6508444  3
   5336   5340   5352   5353     1  0.0000000  0.6508444  3
   5336   5340   5352   5354     1  0.0000000  0.6508444  3
   5336   5343   5346   5347     1  0.0000000  0.6508444  3
   5336   5343   5346   5348     1  0.0000000  0.6508444  3
   5337   5336   5340   5341     1  0.0000000  1.2552000  3
   5337   5336   5340   5342     1  0.0000000  1.2552000  3
   5337   5336   5343   5344     1  0.0000000  1.2552000  3
   5337   5336   5343   5345     1  0.0000000  1.2552000  3
   5337   5349   5361   5362     1  0.0000000  0.6508444  3
   5337   5349   5361   5363     1  0.0000000  0.6508444  3
   5338   5337   5336   5340     1  0.0000000  1.2552000  3
   5338   5337   5336   5343     1  0.0000000  1.2552000  3
   5338   5337   5349   5361     1  0.0000000  0.6508444  3
   5338   5337   5349   5350     1  0.0000000  0.6508444  3
   5338   5337   5349   5351     1  0.0000000  0.6508444  3
   5339   5337   5336   5340     1  0.0000000  1.2552000  3
   5339   5337   5336   5343     1  0.0000000  1.2552000  3
   5339   5337   5349   5361     1  0.0000000  0.6508444  3
   5339   5337   5349   5350     1  0.0000000  0.6508444  3
   5339   5337   5349   5351     1  0.0000000  0.6508444  3
   5340   5336   5343   5344     1  0.0000000  1.2552000  3
   5340   5336   5343   5345     1  0.0000000  1.2552000  3
   5340   5352   5358   5359     1  0.0000000  0.6508444  3
   5340   5352   5358   5360     1  0.0000000  0.6508444  3
   5341   5340   5336   5343     1  0.0000000  1.2552000  3
   5341   5340   5352   5358     1  0.0000000  0.6508444  3
   5341   5340   5352   5353     1  0.0000000  0.6508444  3
   5341   5340   5352   5354     1  0.0000000  0.6508444  3
   5342   5340   5336   5343     1  0.0000000  1.2552000  3
   5342   5340   5352   5358     1  0.0000000  0.6508444  3
   5342   5340   5352   5353     1  0.0000000  0.6508444  3
   5342   5340   5352   5354     1  0.0000000  0.6508444  3
   5343   5346   5355   5356     1  0.0000000  0.6508444  3
   5343   5346   5355   5357     1  0.0000000  0.6508444  3
   5344   5343   5346   5355     1  0.0000000  0.6508444  3
   5344   5343   5346   5347     1  0.0000000  0.6508444  3
   5344   5343   5346   5348     1  0.0000000  0.6508444  3
   5345   5343   5346   5355     1  0.0000000  0.6508444  3
   5345   5343   5346   5347     1  0.0000000  0.6508444  3
   5345   5343   5346   5348     1  0.0000000  0.6508444  3
   5347   5346   5355   5364     1  0.0000000  1.0460000  1
   5347   5346   5355   5364     1  0.0000000  0.0000000  3
   5347   5346   5355   5356     1  0.0000000  0.6508444  3
   5347   5346   5355   5357     1  0.0000000  0.6508444  3
   5348   5346   5355   5364     1  0.0000000  1.0460000  1
   5348   5346   5355   5364     1  0.0000000  0.0000000  3
   5348   5346   5355   5356     1  0.0000000  0.6508444  3
   5348   5346   5355   5357     1  0.0000000  0.6508444  3
   5350   5349   5361  10067     1  0.0000000  1.0460000  1
   5350   5349   5361  10067     1  0.0000000  0.0000000  3
   5350   5349   5361   5362     1  0.0000000  0.6508444  3
   5350   5349   5361   5363     1  0.0000000  0.6508444  3
   5351   5349   5361  10067     1  0.0000000  1.0460000  1
   5351   5349   5361  10067     1  0.0000000  0.0000000  3
   5351   5349   5361   5362     1  0.0000000  0.6508444  3
   5351   5349   5361   5363     1  0.0000000  0.6508444  3
   5353   5352   5358  10044     1  0.0000000  1.0460000  1
   5353   5352   5358  10044     1  0.0000000  0.0000000  3
   5353   5352   5358   5359     1  0.0000000  0.6508444  3
   5353   5352   5358   5360     1  0.0000000  0.6508444  3
   5354   5352   5358  10044     1  0.0000000  1.0460000  1
   5354   5352   5358  10044     1  0.0000000  0.0000000  3
   5354   5352   5358   5359     1  0.0000000  0.6508444  3
   5354   5352   5358   5360     1  0.0000000  0.6508444  3
   5358  10044  10040  10043     1  0.0000000  1.6038667  3
   5359   5358  10044  10040     1  0.0000000  1.6038667  3
   5360   5358  10044  10040     1  0.0000000  1.6038667  3
   5361  10067  10063  10066     1  0.0000000  1.6038667  3
   5362   5361  10067  10063     1  0.0000000  1.6038667  3
   5363   5361  10067  10063     1  0.0000000  1.6038667  3
   5365   5366   5378   5379     1  0.0000000  0.6508444  3
   5365   5366   5378   5380     1  0.0000000  0.6508444  3
   5365   5369   5381   5382     1  0.0000000  0.6508444  3
   5365   5369   5381   5383     1  0.0000000  0.6508444  3
   5365   5372   5375   5376     1  0.0000000  0.6508444  3
   5365   5372   5375   5377     1  0.0000000  0.6508444  3
   5366   5365   5369   5370     1  0.0000000  1.2552000  3
   5366   5365   5369   5371     1  0.0000000  1.2552000  3
   5366   5365   5372   5373     1  0.0000000  1.2552000  3
   5366   5365   5372   5374     1  0.0000000  1.2552000  3
   5366   5378   5390   5391     1  0.0000000  0.6508444  3
   5366   5378   5390   5392     1  0.0000000  0.6508444  3
   5367   5366   5365   5369     1  0.0000000  1.2552000  3
   5367   5366   5365   5372     1  0.0000000  1.2552000  3
   5367   5366   5378   5390     1  0.0000000  0.6508444  3
   5367   5366   5378   5379     1  0.0000000  0.6508444  3
   5367   5366   5378   5380     1  0.0000000  0.6508444  3
   5368   5366   5365   5369     1  0.0000000  1.2552000  3
   5368   5366   5365   5372     1  0.0000000  1.2552000  3
   5368   5366   5378   5390     1  0.0000000  0.6508444  3
   5368   5366   5378   5379     1  0.0000000  0.6508444  3
   5368   5366   5378   5380     1  0.0000000  0.6508444  3
   5369   5365   5372   5373     1  0.0000000  1.2552000  3
   5369   5365   5372   5374     1  0.0000000  1.2552000  3
   5369   5381   5387   5388     1  0.0000000  0.6508444  3
   5369   5381   5387   5389     1  0.0000000  0.6508444  3
   5370   5369   5365   5372     1  0.0000000  1.2552000  3
   5370   5369   5381   5387     1  0.0000000  0.6508444  3
   5370   5369   5381   5382     1  0.0000000  0.6508444  3
   5370   5369   5381   5383     1  0.0000000  0.6508444  3
   5371   5369   5365   5372     1  0.0000000  1.2552000  3
   5371   5369   5381   5387     1  0.0000000  0.6508444  3
   5371   5369   5381   5382     1  0.0000000  0.6508444  3
   5371   5369   5381   5383     1  0.0000000  0.6508444  3
   5372   5375   5384   5385     1  0.0000000  0.6508444  3
   5372   5375   5384   5386     1  0.0000000  0.6508444  3
   5373   5372   5375   5384     1  0.0000000  0.6508444  3
   5373   5372   5375   5376     1  0.0000000  0.6508444  3
   5373   5372   5375   5377     1  0.0000000  0.6508444  3
   5374   5372   5375   5384     1  0.0000000  0.6508444  3
   5374   5372   5375   5376     1  0.0000000  0.6508444  3
   5374   5372   5375   5377     1  0.0000000  0.6508444  3
   5376   5375   5384   5393     1  0.0000000  1.0460000  1
   5376   5375   5384   5393     1  0.0000000  0.0000000  3
   5376   5375   5384   5385     1  0.0000000  0.6508444  3
   5376   5375   5384   5386     1  0.0000000  0.6508444  3
   5377   5375   5384   5393     1  0.0000000  1.0460000  1
   5377   5375   5384   5393     1  0.0000000  0.0000000  3
   5377   5375   5384   5385     1  0.0000000  0.6508444  3
   5377   5375   5384   5386     1  0.0000000  0.6508444  3
   5379   5378   5390  10113     1  0.0000000  1.0460000  1
   5379   5378   5390  10113     1  0.0000000  0.0000000  3
   5379   5378   5390   5391     1  0.0000000  0.6508444  3
   5379   5378   5390   5392     1  0.0000000  0.6508444  3
   5380   5378   5390  10113     1  0.0000000  1.0460000  1
   5380   5378   5390  10113     1  0.0000000  0.0000000  3
   5380   5378   5390   5391     1  0.0000000  0.6508444  3
   5380   5378   5390   5392     1  0.0000000  0.6508444  3
   5382   5381   5387  10090     1  0.0000000  1.0460000  1
   5382   5381   5387  10090     1  0.0000000  0.0000000  3
   5382   5381   5387   5388     1  0.0000000  0.6508444  3
   5382   5381   5387   5389     1  0.0000000  0.6508444  3
   5383   5381   5387  10090     1  0.0000000  1.0460000  1
   5383   5381   5387  10090     1  0.0000000  0.0000000  3
   5383   5381   5387   5388     1  0.0000000  0.6508444  3
   5383   5381   5387   5389     1  0.0000000  0.6508444  3
   5387  10090  10086  10089     1  0.0000000  1.6038667  3
   5388   5387  10090  10086     1  0.0000000  1.6038667  3
   5389   5387  10090  10086     1  0.0000000  1.6038667  3
   5390  10113  10109  10112     1  0.0000000  1.6038667  3
   5391   5390  10113  10109     1  0.0000000  1.6038667  3
   5392   5390  10113  10109     1  0.0000000  1.6038667  3
   5394   5395   5407   5408     1  0.0000000  0.6508444  3
   5394   5395   5407   5409     1  0.0000000  0.6508444  3
   5394   5398   5410   5411     1  0.0000000  0.6508444  3
   5394   5398   5410   5412     1  0.0000000  0.6508444  3
   5394   5401   5404   5405     1  0.0000000  0.6508444  3
   5394   5401   5404   5406     1  0.0000000  0.6508444  3
   5395   5394   5398   5399     1  0.0000000  1.2552000  3
   5395   5394   5398   5400     1  0.0000000  1.2552000  3
   5395   5394   5401   5402     1  0.0000000  1.2552000  3
   5395   5394   5401   5403     1  0.0000000  1.2552000  3
   5395   5407   5419   5420     1  0.0000000  0.6508444  3
   5395   5407   5419   5421     1  0.0000000  0.6508444  3
   5396   5395   5394   5398     1  0.0000000  1.2552000  3
   5396   5395   5394   5401     1  0.0000000  1.2552000  3
   5396   5395   5407   5419     1  0.0000000  0.6508444  3
   5396   5395   5407   5408     1  0.0000000  0.6508444  3
   5396   5395   5407   5409     1  0.0000000  0.6508444  3
   5397   5395   5394   5398     1  0.0000000  1.2552000  3
   5397   5395   5394   5401     1  0.0000000  1.2552000  3
   5397   5395   5407   5419     1  0.0000000  0.6508444  3
   5397   5395   5407   5408     1  0.0000000  0.6508444  3
   5397   5395   5407   5409     1  0.0000000  0.6508444  3
   5398   5394   5401   5402     1  0.0000000  1.2552000  3
   5398   5394   5401   5403     1  0.0000000  1.2552000  3
   5398   5410   5416   5417     1  0.0000000  0.6508444  3
   5398   5410   5416   5418     1  0.0000000  0.6508444  3
   5399   5398   5394   5401     1  0.0000000  1.2552000  3
   5399   5398   5410   5416     1  0.0000000  0.6508444  3
   5399   5398   5410   5411     1  0.0000000  0.6508444  3
   5399   5398   5410   5412     1  0.0000000  0.6508444  3
   5400   5398   5394   5401     1  0.0000000  1.2552000  3
   5400   5398   5410   5416     1  0.0000000  0.6508444  3
   5400   5398   5410   5411     1  0.0000000  0.6508444  3
   5400   5398   5410   5412     1  0.0000000  0.6508444  3
   5401   5404   5413   5414     1  0.0000000  0.6508444  3
   5401   5404   5413   5415     1  0.0000000  0.6508444  3
   5402   5401   5404   5413     1  0.0000000  0.6508444  3
   5402   5401   5404   5405     1  0.0000000  0.6508444  3
   5402   5401   5404   5406     1  0.0000000  0.6508444  3
   5403   5401   5404   5413     1  0.0000000  0.6508444  3
   5403   5401   5404   5405     1  0.0000000  0.6508444  3
   5403   5401   5404   5406     1  0.0000000  0.6508444  3
   5405   5404   5413   5422     1  0.0000000  1.0460000  1
   5405   5404   5413   5422     1  0.0000000  0.0000000  3
   5405   5404   5413   5414     1  0.0000000  0.6508444  3
   5405   5404   5413   5415     1  0.0000000  0.6508444  3
   5406   5404   5413   5422     1  0.0000000  1.0460000  1
   5406   5404   5413   5422     1  0.0000000  0.0000000  3
   5406   5404   5413   5414     1  0.0000000  0.6508444  3
   5406   5404   5413   5415     1  0.0000000  0.6508444  3
   5408   5407   5419  10159     1  0.0000000  1.0460000  1
   5408   5407   5419  10159     1  0.0000000  0.0000000  3
   5408   5407   5419   5420     1  0.0000000  0.6508444  3
   5408   5407   5419   5421     1  0.0000000  0.6508444  3
   5409   5407   5419  10159     1  0.0000000  1.0460000  1
   5409   5407   5419  10159     1  0.0000000  0.0000000  3
   5409   5407   5419   5420     1  0.0000000  0.6508444  3
   5409   5407   5419   5421     1  0.0000000  0.6508444  3
   5411   5410   5416  10136     1  0.0000000  1.0460000  1
   5411   5410   5416  10136     1  0.0000000  0.0000000  3
   5411   5410   5416   5417     1  0.0000000  0.6508444  3
   5411   5410   5416   5418     1  0.0000000  0.6508444  3
   5412   5410   5416  10136     1  0.0000000  1.0460000  1
   5412   5410   5416  10136     1  0.0000000  0.0000000  3
   5412   5410   5416   5417     1  0.0000000  0.6508444  3
   5412   5410   5416   5418     1  0.0000000  0.6508444  3
   5416  10136  10132  10135     1  0.0000000  1.6038667  3
   5417   5416  10136  10132     1  0.0000000  1.6038667  3
   5418   5416  10136  10132     1  0.0000000  1.6038667  3
   5419  10159  10155  10158     1  0.0000000  1.6038667  3
   5420   5419  10159  10155     1  0.0000000  1.6038667  3
   5421   5419  10159  10155     1  0.0000000  1.6038667  3
   5423   5424   5436   5437     1  0.0000000  0.6508444  3
   5423   5424   5436   5438     1  0.0000000  0.6508444  3
   5423   5427   5439   5440     1  0.0000000  0.6508444  3
   5423   5427   5439   5441     1  0.0000000  0.6508444  3
   5423   5430   5433   5434     1  0.0000000  0.6508444  3
   5423   5430   5433   5435     1  0.0000000  0.6508444  3
   5424   5423   5427   5428     1  0.0000000  1.2552000  3
   5424   5423   5427   5429     1  0.0000000  1.2552000  3
   5424   5423   5430   5431     1  0.0000000  1.2552000  3
   5424   5423   5430   5432     1  0.0000000  1.2552000  3
   5424   5436   5448   5449     1  0.0000000  0.6508444  3
   5424   5436   5448   5450     1  0.0000000  0.6508444  3
   5425   5424   5423   5427     1  0.0000000  1.2552000  3
   5425   5424   5423   5430     1  0.0000000  1.2552000  3
   5425   5424   5436   5448     1  0.0000000  0.6508444  3
   5425   5424   5436   5437     1  0.0000000  0.6508444  3
   5425   5424   5436   5438     1  0.0000000  0.6508444  3
   5426   5424   5423   5427     1  0.0000000  1.2552000  3
   5426   5424   5423   5430     1  0.0000000  1.2552000  3
   5426   5424   5436   5448     1  0.0000000  0.6508444  3
   5426   5424   5436   5437     1  0.0000000  0.6508444  3
   5426   5424   5436   5438     1  0.0000000  0.6508444  3
   5427   5423   5430   5431     1  0.0000000  1.2552000  3
   5427   5423   5430   5432     1  0.0000000  1.2552000  3
   5427   5439   5445   5446     1  0.0000000  0.6508444  3
   5427   5439   5445   5447     1  0.0000000  0.6508444  3
   5428   5427   5423   5430     1  0.0000000  1.2552000  3
   5428   5427   5439   5445     1  0.0000000  0.6508444  3
   5428   5427   5439   5440     1  0.0000000  0.6508444  3
   5428   5427   5439   5441     1  0.0000000  0.6508444  3
   5429   5427   5423   5430     1  0.0000000  1.2552000  3
   5429   5427   5439   5445     1  0.0000000  0.6508444  3
   5429   5427   5439   5440     1  0.0000000  0.6508444  3
   5429   5427   5439   5441     1  0.0000000  0.6508444  3
   5430   5433   5442   5443     1  0.0000000  0.6508444  3
   5430   5433   5442   5444     1  0.0000000  0.6508444  3
   5431   5430   5433   5442     1  0.0000000  0.6508444  3
   5431   5430   5433   5434     1  0.0000000  0.6508444  3
   5431   5430   5433   5435     1  0.0000000  0.6508444  3
   5432   5430   5433   5442     1  0.0000000  0.6508444  3
   5432   5430   5433   5434     1  0.0000000  0.6508444  3
   5432   5430   5433   5435     1  0.0000000  0.6508444  3
   5434   5433   5442   5451     1  0.0000000  1.0460000  1
   5434   5433   5442   5451     1  0.0000000  0.0000000  3
   5434   5433   5442   5443     1  0.0000000  0.6508444  3
   5434   5433   5442   5444     1  0.0000000  0.6508444  3
   5435   5433   5442   5451     1  0.0000000  1.0460000  1
   5435   5433   5442   5451     1  0.0000000  0.0000000  3
   5435   5433   5442   5443     1  0.0000000  0.6508444  3
   5435   5433   5442   5444     1  0.0000000  0.6508444  3
   5437   5436   5448  10205     1  0.0000000  1.0460000  1
   5437   5436   5448  10205     1  0.0000000  0.0000000  3
   5437   5436   5448   5449     1  0.0000000  0.6508444  3
   5437   5436   5448   5450     1  0.0000000  0.6508444  3
   5438   5436   5448  10205     1  0.0000000  1.0460000  1
   5438   5436   5448  10205     1  0.0000000  0.0000000  3
   5438   5436   5448   5449     1  0.0000000  0.6508444  3
   5438   5436   5448   5450     1  0.0000000  0.6508444  3
   5440   5439   5445  10182     1  0.0000000  1.0460000  1
   5440   5439   5445  10182     1  0.0000000  0.0000000  3
   5440   5439   5445   5446     1  0.0000000  0.6508444  3
   5440   5439   5445   5447     1  0.0000000  0.6508444  3
   5441   5439   5445  10182     1  0.0000000  1.0460000  1
   5441   5439   5445  10182     1  0.0000000  0.0000000  3
   5441   5439   5445   5446     1  0.0000000  0.6508444  3
   5441   5439   5445   5447     1  0.0000000  0.6508444  3
   5445  10182  10178  10181     1  0.0000000  1.6038667  3
   5446   5445  10182  10178     1  0.0000000  1.6038667  3
   5447   5445  10182  10178     1  0.0000000  1.6038667  3
   5448  10205  10201  10204     1  0.0000000  1.6038667  3
   5449   5448  10205  10201     1  0.0000000  1.6038667  3
   5450   5448  10205  10201     1  0.0000000  1.6038667  3
   5452   5453   5465   5466     1  0.0000000  0.6508444  3
   5452   5453   5465   5467     1  0.0000000  0.6508444  3
   5452   5456   5468   5469     1  0.0000000  0.6508444  3
   5452   5456   5468   5470     1  0.0000000  0.6508444  3
   5452   5459   5462   5463     1  0.0000000  0.6508444  3
   5452   5459   5462   5464     1  0.0000000  0.6508444  3
   5453   5452   5456   5457     1  0.0000000  1.2552000  3
   5453   5452   5456   5458     1  0.0000000  1.2552000  3
   5453   5452   5459   5460     1  0.0000000  1.2552000  3
   5453   5452   5459   5461     1  0.0000000  1.2552000  3
   5453   5465   5477   5478     1  0.0000000  0.6508444  3
   5453   5465   5477   5479     1  0.0000000  0.6508444  3
   5454   5453   5452   5456     1  0.0000000  1.2552000  3
   5454   5453   5452   5459     1  0.0000000  1.2552000  3
   5454   5453   5465   5477     1  0.0000000  0.6508444  3
   5454   5453   5465   5466     1  0.0000000  0.6508444  3
   5454   5453   5465   5467     1  0.0000000  0.6508444  3
   5455   5453   5452   5456     1  0.0000000  1.2552000  3
   5455   5453   5452   5459     1  0.0000000  1.2552000  3
   5455   5453   5465   5477     1  0.0000000  0.6508444  3
   5455   5453   5465   5466     1  0.0000000  0.6508444  3
   5455   5453   5465   5467     1  0.0000000  0.6508444  3
   5456   5452   5459   5460     1  0.0000000  1.2552000  3
   5456   5452   5459   5461     1  0.0000000  1.2552000  3
   5456   5468   5474   5475     1  0.0000000  0.6508444  3
   5456   5468   5474   5476     1  0.0000000  0.6508444  3
   5457   5456   5452   5459     1  0.0000000  1.2552000  3
   5457   5456   5468   5474     1  0.0000000  0.6508444  3
   5457   5456   5468   5469     1  0.0000000  0.6508444  3
   5457   5456   5468   5470     1  0.0000000  0.6508444  3
   5458   5456   5452   5459     1  0.0000000  1.2552000  3
   5458   5456   5468   5474     1  0.0000000  0.6508444  3
   5458   5456   5468   5469     1  0.0000000  0.6508444  3
   5458   5456   5468   5470     1  0.0000000  0.6508444  3
   5459   5462   5471   5472     1  0.0000000  0.6508444  3
   5459   5462   5471   5473     1  0.0000000  0.6508444  3
   5460   5459   5462   5471     1  0.0000000  0.6508444  3
   5460   5459   5462   5463     1  0.0000000  0.6508444  3
   5460   5459   5462   5464     1  0.0000000  0.6508444  3
   5461   5459   5462   5471     1  0.0000000  0.6508444  3
   5461   5459   5462   5463     1  0.0000000  0.6508444  3
   5461   5459   5462   5464     1  0.0000000  0.6508444  3
   5463   5462   5471   5480     1  0.0000000  1.0460000  1
   5463   5462   5471   5480     1  0.0000000  0.0000000  3
   5463   5462   5471   5472     1  0.0000000  0.6508444  3
   5463   5462   5471   5473     1  0.0000000  0.6508444  3
   5464   5462   5471   5480     1  0.0000000  1.0460000  1
   5464   5462   5471   5480     1  0.0000000  0.0000000  3
   5464   5462   5471   5472     1  0.0000000  0.6508444  3
   5464   5462   5471   5473     1  0.0000000  0.6508444  3
   5466   5465   5477  10251     1  0.0000000  1.0460000  1
   5466   5465   5477  10251     1  0.0000000  0.0000000  3
   5466   5465   5477   5478     1  0.0000000  0.6508444  3
   5466   5465   5477   5479     1  0.0000000  0.6508444  3
   5467   5465   5477  10251     1  0.0000000  1.0460000  1
   5467   5465   5477  10251     1  0.0000000  0.0000000  3
   5467   5465   5477   5478     1  0.0000000  0.6508444  3
   5467   5465   5477   5479     1  0.0000000  0.6508444  3
   5469   5468   5474  10228     1  0.0000000  1.0460000  1
   5469   5468   5474  10228     1  0.0000000  0.0000000  3
   5469   5468   5474   5475     1  0.0000000  0.6508444  3
   5469   5468   5474   5476     1  0.0000000  0.6508444  3
   5470   5468   5474  10228     1  0.0000000  1.0460000  1
   5470   5468   5474  10228     1  0.0000000  0.0000000  3
   5470   5468   5474   5475     1  0.0000000  0.6508444  3
   5470   5468   5474   5476     1  0.0000000  0.6508444  3
   5474  10228  10224  10227     1  0.0000000  1.6038667  3
   5475   5474  10228  10224     1  0.0000000  1.6038667  3
   5476   5474  10228  10224     1  0.0000000  1.6038667  3
   5477  10251  10247  10250     1  0.0000000  1.6038667  3
   5478   5477  10251  10247     1  0.0000000  1.6038667  3
   5479   5477  10251  10247     1  0.0000000  1.6038667  3
   5481   5482   5494   5495     1  0.0000000  0.6508444  3
   5481   5482   5494   5496     1  0.0000000  0.6508444  3
   5481   5485   5497   5498     1  0.0000000  0.6508444  3
   5481   5485   5497   5499     1  0.0000000  0.6508444  3
   5481   5488   5491   5492     1  0.0000000  0.6508444  3
   5481   5488   5491   5493     1  0.0000000  0.6508444  3
   5482   5481   5485   5486     1  0.0000000  1.2552000  3
   5482   5481   5485   5487     1  0.0000000  1.2552000  3
   5482   5481   5488   5489     1  0.0000000  1.2552000  3
   5482   5481   5488   5490     1  0.0000000  1.2552000  3
   5482   5494   5506   5507     1  0.0000000  0.6508444  3
   5482   5494   5506   5508     1  0.0000000  0.6508444  3
   5483   5482   5481   5485     1  0.0000000  1.2552000  3
   5483   5482   5481   5488     1  0.0000000  1.2552000  3
   5483   5482   5494   5506     1  0.0000000  0.6508444  3
   5483   5482   5494   5495     1  0.0000000  0.6508444  3
   5483   5482   5494   5496     1  0.0000000  0.6508444  3
   5484   5482   5481   5485     1  0.0000000  1.2552000  3
   5484   5482   5481   5488     1  0.0000000  1.2552000  3
   5484   5482   5494   5506     1  0.0000000  0.6508444  3
   5484   5482   5494   5495     1  0.0000000  0.6508444  3
   5484   5482   5494   5496     1  0.0000000  0.6508444  3
   5485   5481   5488   5489     1  0.0000000  1.2552000  3
   5485   5481   5488   5490     1  0.0000000  1.2552000  3
   5485   5497   5503   5504     1  0.0000000  0.6508444  3
   5485   5497   5503   5505     1  0.0000000  0.6508444  3
   5486   5485   5481   5488     1  0.0000000  1.2552000  3
   5486   5485   5497   5503     1  0.0000000  0.6508444  3
   5486   5485   5497   5498     1  0.0000000  0.6508444  3
   5486   5485   5497   5499     1  0.0000000  0.6508444  3
   5487   5485   5481   5488     1  0.0000000  1.2552000  3
   5487   5485   5497   5503     1  0.0000000  0.6508444  3
   5487   5485   5497   5498     1  0.0000000  0.6508444  3
   5487   5485   5497   5499     1  0.0000000  0.6508444  3
   5488   5491   5500   5501     1  0.0000000  0.6508444  3
   5488   5491   5500   5502     1  0.0000000  0.6508444  3
   5489   5488   5491   5500     1  0.0000000  0.6508444  3
   5489   5488   5491   5492     1  0.0000000  0.6508444  3
   5489   5488   5491   5493     1  0.0000000  0.6508444  3
   5490   5488   5491   5500     1  0.0000000  0.6508444  3
   5490   5488   5491   5492     1  0.0000000  0.6508444  3
   5490   5488   5491   5493     1  0.0000000  0.6508444  3
   5492   5491   5500   5509     1  0.0000000  1.0460000  1
   5492   5491   5500   5509     1  0.0000000  0.0000000  3
   5492   5491   5500   5501     1  0.0000000  0.6508444  3
   5492   5491   5500   5502     1  0.0000000  0.6508444  3
   5493   5491   5500   5509     1  0.0000000  1.0460000  1
   5493   5491   5500   5509     1  0.0000000  0.0000000  3
   5493   5491   5500   5501     1  0.0000000  0.6508444  3
   5493   5491   5500   5502     1  0.0000000  0.6508444  3
   5495   5494   5506  10297     1  0.0000000  1.0460000  1
   5495   5494   5506  10297     1  0.0000000  0.0000000  3
   5495   5494   5506   5507     1  0.0000000  0.6508444  3
   5495   5494   5506   5508     1  0.0000000  0.6508444  3
   5496   5494   5506  10297     1  0.0000000  1.0460000  1
   5496   5494   5506  10297     1  0.0000000  0.0000000  3
   5496   5494   5506   5507     1  0.0000000  0.6508444  3
   5496   5494   5506   5508     1  0.0000000  0.6508444  3
   5498   5497   5503  10274     1  0.0000000  1.0460000  1
   5498   5497   5503  10274     1  0.0000000  0.0000000  3
   5498   5497   5503   5504     1  0.0000000  0.6508444  3
   5498   5497   5503   5505     1  0.0000000  0.6508444  3
   5499   5497   5503  10274     1  0.0000000  1.0460000  1
   5499   5497   5503  10274     1  0.0000000  0.0000000  3
   5499   5497   5503   5504     1  0.0000000  0.6508444  3
   5499   5497   5503   5505     1  0.0000000  0.6508444  3
   5503  10274  10270  10273     1  0.0000000  1.6038667  3
   5504   5503  10274  10270     1  0.0000000  1.6038667  3
   5505   5503  10274  10270     1  0.0000000  1.6038667  3
   5506  10297  10293  10296     1  0.0000000  1.6038667  3
   5507   5506  10297  10293     1  0.0000000  1.6038667  3
   5508   5506  10297  10293     1  0.0000000  1.6038667  3
   5510   5511   5523   5524     1  0.0000000  0.6508444  3
   5510   5511   5523   5525     1  0.0000000  0.6508444  3
   5510   5514   5526   5527     1  0.0000000  0.6508444  3
   5510   5514   5526   5528     1  0.0000000  0.6508444  3
   5510   5517   5520   5521     1  0.0000000  0.6508444  3
   5510   5517   5520   5522     1  0.0000000  0.6508444  3
   5511   5510   5514   5515     1  0.0000000  1.2552000  3
   5511   5510   5514   5516     1  0.0000000  1.2552000  3
   5511   5510   5517   5518     1  0.0000000  1.2552000  3
   5511   5510   5517   5519     1  0.0000000  1.2552000  3
   5511   5523   5535   5536     1  0.0000000  0.6508444  3
   5511   5523   5535   5537     1  0.0000000  0.6508444  3
   5512   5511   5510   5514     1  0.0000000  1.2552000  3
   5512   5511   5510   5517     1  0.0000000  1.2552000  3
   5512   5511   5523   5535     1  0.0000000  0.6508444  3
   5512   5511   5523   5524     1  0.0000000  0.6508444  3
   5512   5511   5523   5525     1  0.0000000  0.6508444  3
   5513   5511   5510   5514     1  0.0000000  1.2552000  3
   5513   5511   5510   5517     1  0.0000000  1.2552000  3
   5513   5511   5523   5535     1  0.0000000  0.6508444  3
   5513   5511   5523   5524     1  0.0000000  0.6508444  3
   5513   5511   5523   5525     1  0.0000000  0.6508444  3
   5514   5510   5517   5518     1  0.0000000  1.2552000  3
   5514   5510   5517   5519     1  0.0000000  1.2552000  3
   5514   5526   5532   5533     1  0.0000000  0.6508444  3
   5514   5526   5532   5534     1  0.0000000  0.6508444  3
   5515   5514   5510   5517     1  0.0000000  1.2552000  3
   5515   5514   5526   5532     1  0.0000000  0.6508444  3
   5515   5514   5526   5527     1  0.0000000  0.6508444  3
   5515   5514   5526   5528     1  0.0000000  0.6508444  3
   5516   5514   5510   5517     1  0.0000000  1.2552000  3
   5516   5514   5526   5532     1  0.0000000  0.6508444  3
   5516   5514   5526   5527     1  0.0000000  0.6508444  3
   5516   5514   5526   5528     1  0.0000000  0.6508444  3
   5517   5520   5529   5530     1  0.0000000  0.6508444  3
   5517   5520   5529   5531     1  0.0000000  0.6508444  3
   5518   5517   5520   5529     1  0.0000000  0.6508444  3
   5518   5517   5520   5521     1  0.0000000  0.6508444  3
   5518   5517   5520   5522     1  0.0000000  0.6508444  3
   5519   5517   5520   5529     1  0.0000000  0.6508444  3
   5519   5517   5520   5521     1  0.0000000  0.6508444  3
   5519   5517   5520   5522     1  0.0000000  0.6508444  3
   5521   5520   5529   5538     1  0.0000000  1.0460000  1
   5521   5520   5529   5538     1  0.0000000  0.0000000  3
   5521   5520   5529   5530     1  0.0000000  0.6508444  3
   5521   5520   5529   5531     1  0.0000000  0.6508444  3
   5522   5520   5529   5538     1  0.0000000  1.0460000  1
   5522   5520   5529   5538     1  0.0000000  0.0000000  3
   5522   5520   5529   5530     1  0.0000000  0.6508444  3
   5522   5520   5529   5531     1  0.0000000  0.6508444  3
   5524   5523   5535  10343     1  0.0000000  1.0460000  1
   5524   5523   5535  10343     1  0.0000000  0.0000000  3
   5524   5523   5535   5536     1  0.0000000  0.6508444  3
   5524   5523   5535   5537     1  0.0000000  0.6508444  3
   5525   5523   5535  10343     1  0.0000000  1.0460000  1
   5525   5523   5535  10343     1  0.0000000  0.0000000  3
   5525   5523   5535   5536     1  0.0000000  0.6508444  3
   5525   5523   5535   5537     1  0.0000000  0.6508444  3
   5527   5526   5532  10320     1  0.0000000  1.0460000  1
   5527   5526   5532  10320     1  0.0000000  0.0000000  3
   5527   5526   5532   5533     1  0.0000000  0.6508444  3
   5527   5526   5532   5534     1  0.0000000  0.6508444  3
   5528   5526   5532  10320     1  0.0000000  1.0460000  1
   5528   5526   5532  10320     1  0.0000000  0.0000000  3
   5528   5526   5532   5533     1  0.0000000  0.6508444  3
   5528   5526   5532   5534     1  0.0000000  0.6508444  3
   5532  10320  10316  10319     1  0.0000000  1.6038667  3
   5533   5532  10320  10316     1  0.0000000  1.6038667  3
   5534   5532  10320  10316     1  0.0000000  1.6038667  3
   5535  10343  10339  10342     1  0.0000000  1.6038667  3
   5536   5535  10343  10339     1  0.0000000  1.6038667  3
   5537   5535  10343  10339     1  0.0000000  1.6038667  3
   5539   5540   5552   5553     1  0.0000000  0.6508444  3
   5539   5540   5552   5554     1  0.0000000  0.6508444  3
   5539   5543   5555   5556     1  0.0000000  0.6508444  3
   5539   5543   5555   5557     1  0.0000000  0.6508444  3
   5539   5546   5549   5550     1  0.0000000  0.6508444  3
   5539   5546   5549   5551     1  0.0000000  0.6508444  3
   5540   5539   5543   5544     1  0.0000000  1.2552000  3
   5540   5539   5543   5545     1  0.0000000  1.2552000  3
   5540   5539   5546   5547     1  0.0000000  1.2552000  3
   5540   5539   5546   5548     1  0.0000000  1.2552000  3
   5540   5552   5564   5565     1  0.0000000  0.6508444  3
   5540   5552   5564   5566     1  0.0000000  0.6508444  3
   5541   5540   5539   5543     1  0.0000000  1.2552000  3
   5541   5540   5539   5546     1  0.0000000  1.2552000  3
   5541   5540   5552   5564     1  0.0000000  0.6508444  3
   5541   5540   5552   5553     1  0.0000000  0.6508444  3
   5541   5540   5552   5554     1  0.0000000  0.6508444  3
   5542   5540   5539   5543     1  0.0000000  1.2552000  3
   5542   5540   5539   5546     1  0.0000000  1.2552000  3
   5542   5540   5552   5564     1  0.0000000  0.6508444  3
   5542   5540   5552   5553     1  0.0000000  0.6508444  3
   5542   5540   5552   5554     1  0.0000000  0.6508444  3
   5543   5539   5546   5547     1  0.0000000  1.2552000  3
   5543   5539   5546   5548     1  0.0000000  1.2552000  3
   5543   5555   5561   5562     1  0.0000000  0.6508444  3
   5543   5555   5561   5563     1  0.0000000  0.6508444  3
   5544   5543   5539   5546     1  0.0000000  1.2552000  3
   5544   5543   5555   5561     1  0.0000000  0.6508444  3
   5544   5543   5555   5556     1  0.0000000  0.6508444  3
   5544   5543   5555   5557     1  0.0000000  0.6508444  3
   5545   5543   5539   5546     1  0.0000000  1.2552000  3
   5545   5543   5555   5561     1  0.0000000  0.6508444  3
   5545   5543   5555   5556     1  0.0000000  0.6508444  3
   5545   5543   5555   5557     1  0.0000000  0.6508444  3
   5546   5549   5558   5559     1  0.0000000  0.6508444  3
   5546   5549   5558   5560     1  0.0000000  0.6508444  3
   5547   5546   5549   5558     1  0.0000000  0.6508444  3
   5547   5546   5549   5550     1  0.0000000  0.6508444  3
   5547   5546   5549   5551     1  0.0000000  0.6508444  3
   5548   5546   5549   5558     1  0.0000000  0.6508444  3
   5548   5546   5549   5550     1  0.0000000  0.6508444  3
   5548   5546   5549   5551     1  0.0000000  0.6508444  3
   5550   5549   5558   5567     1  0.0000000  1.0460000  1
   5550   5549   5558   5567     1  0.0000000  0.0000000  3
   5550   5549   5558   5559     1  0.0000000  0.6508444  3
   5550   5549   5558   5560     1  0.0000000  0.6508444  3
   5551   5549   5558   5567     1  0.0000000  1.0460000  1
   5551   5549   5558   5567     1  0.0000000  0.0000000  3
   5551   5549   5558   5559     1  0.0000000  0.6508444  3
   5551   5549   5558   5560     1  0.0000000  0.6508444  3
   5553   5552   5564  10389     1  0.0000000  1.0460000  1
   5553   5552   5564  10389     1  0.0000000  0.0000000  3
   5553   5552   5564   5565     1  0.0000000  0.6508444  3
   5553   5552   5564   5566     1  0.0000000  0.6508444  3
   5554   5552   5564  10389     1  0.0000000  1.0460000  1
   5554   5552   5564  10389     1  0.0000000  0.0000000  3
   5554   5552   5564   5565     1  0.0000000  0.6508444  3
   5554   5552   5564   5566     1  0.0000000  0.6508444  3
   5556   5555   5561  10366     1  0.0000000  1.0460000  1
   5556   5555   5561  10366     1  0.0000000  0.0000000  3
   5556   5555   5561   5562     1  0.0000000  0.6508444  3
   5556   5555   5561   5563     1  0.0000000  0.6508444  3
   5557   5555   5561  10366     1  0.0000000  1.0460000  1
   5557   5555   5561  10366     1  0.0000000  0.0000000  3
   5557   5555   5561   5562     1  0.0000000  0.6508444  3
   5557   5555   5561   5563     1  0.0000000  0.6508444  3
   5561  10366  10362  10365     1  0.0000000  1.6038667  3
   5562   5561  10366  10362     1  0.0000000  1.6038667  3
   5563   5561  10366  10362     1  0.0000000  1.6038667  3
   5564  10389  10385  10388     1  0.0000000  1.6038667  3
   5565   5564  10389  10385     1  0.0000000  1.6038667  3
   5566   5564  10389  10385     1  0.0000000  1.6038667  3
   5568   5569   5581   5582     1  0.0000000  0.6508444  3
   5568   5569   5581   5583     1  0.0000000  0.6508444  3
   5568   5572   5584   5585     1  0.0000000  0.6508444  3
   5568   5572   5584   5586     1  0.0000000  0.6508444  3
   5568   5575   5578   5579     1  0.0000000  0.6508444  3
   5568   5575   5578   5580     1  0.0000000  0.6508444  3
   5569   5568   5572   5573     1  0.0000000  1.2552000  3
   5569   5568   5572   5574     1  0.0000000  1.2552000  3
   5569   5568   5575   5576     1  0.0000000  1.2552000  3
   5569   5568   5575   5577     1  0.0000000  1.2552000  3
   5569   5581   5593   5594     1  0.0000000  0.6508444  3
   5569   5581   5593   5595     1  0.0000000  0.6508444  3
   5570   5569   5568   5572     1  0.0000000  1.2552000  3
   5570   5569   5568   5575     1  0.0000000  1.2552000  3
   5570   5569   5581   5593     1  0.0000000  0.6508444  3
   5570   5569   5581   5582     1  0.0000000  0.6508444  3
   5570   5569   5581   5583     1  0.0000000  0.6508444  3
   5571   5569   5568   5572     1  0.0000000  1.2552000  3
   5571   5569   5568   5575     1  0.0000000  1.2552000  3
   5571   5569   5581   5593     1  0.0000000  0.6508444  3
   5571   5569   5581   5582     1  0.0000000  0.6508444  3
   5571   5569   5581   5583     1  0.0000000  0.6508444  3
   5572   5568   5575   5576     1  0.0000000  1.2552000  3
   5572   5568   5575   5577     1  0.0000000  1.2552000  3
   5572   5584   5590   5591     1  0.0000000  0.6508444  3
   5572   5584   5590   5592     1  0.0000000  0.6508444  3
   5573   5572   5568   5575     1  0.0000000  1.2552000  3
   5573   5572   5584   5590     1  0.0000000  0.6508444  3
   5573   5572   5584   5585     1  0.0000000  0.6508444  3
   5573   5572   5584   5586     1  0.0000000  0.6508444  3
   5574   5572   5568   5575     1  0.0000000  1.2552000  3
   5574   5572   5584   5590     1  0.0000000  0.6508444  3
   5574   5572   5584   5585     1  0.0000000  0.6508444  3
   5574   5572   5584   5586     1  0.0000000  0.6508444  3
   5575   5578   5587   5588     1  0.0000000  0.6508444  3
   5575   5578   5587   5589     1  0.0000000  0.6508444  3
   5576   5575   5578   5587     1  0.0000000  0.6508444  3
   5576   5575   5578   5579     1  0.0000000  0.6508444  3
   5576   5575   5578   5580     1  0.0000000  0.6508444  3
   5577   5575   5578   5587     1  0.0000000  0.6508444  3
   5577   5575   5578   5579     1  0.0000000  0.6508444  3
   5577   5575   5578   5580     1  0.0000000  0.6508444  3
   5579   5578   5587   5596     1  0.0000000  1.0460000  1
   5579   5578   5587   5596     1  0.0000000  0.0000000  3
   5579   5578   5587   5588     1  0.0000000  0.6508444  3
   5579   5578   5587   5589     1  0.0000000  0.6508444  3
   5580   5578   5587   5596     1  0.0000000  1.0460000  1
   5580   5578   5587   5596     1  0.0000000  0.0000000  3
   5580   5578   5587   5588     1  0.0000000  0.6508444  3
   5580   5578   5587   5589     1  0.0000000  0.6508444  3
   5582   5581   5593  10435     1  0.0000000  1.0460000  1
   5582   5581   5593  10435     1  0.0000000  0.0000000  3
   5582   5581   5593   5594     1  0.0000000  0.6508444  3
   5582   5581   5593   5595     1  0.0000000  0.6508444  3
   5583   5581   5593  10435     1  0.0000000  1.0460000  1
   5583   5581   5593  10435     1  0.0000000  0.0000000  3
   5583   5581   5593   5594     1  0.0000000  0.6508444  3
   5583   5581   5593   5595     1  0.0000000  0.6508444  3
   5585   5584   5590  10412     1  0.0000000  1.0460000  1
   5585   5584   5590  10412     1  0.0000000  0.0000000  3
   5585   5584   5590   5591     1  0.0000000  0.6508444  3
   5585   5584   5590   5592     1  0.0000000  0.6508444  3
   5586   5584   5590  10412     1  0.0000000  1.0460000  1
   5586   5584   5590  10412     1  0.0000000  0.0000000  3
   5586   5584   5590   5591     1  0.0000000  0.6508444  3
   5586   5584   5590   5592     1  0.0000000  0.6508444  3
   5590  10412  10408  10411     1  0.0000000  1.6038667  3
   5591   5590  10412  10408     1  0.0000000  1.6038667  3
   5592   5590  10412  10408     1  0.0000000  1.6038667  3
   5593  10435  10431  10434     1  0.0000000  1.6038667  3
   5594   5593  10435  10431     1  0.0000000  1.6038667  3
   5595   5593  10435  10431     1  0.0000000  1.6038667  3
   5597   5598   5610   5611     1  0.0000000  0.6508444  3
   5597   5598   5610   5612     1  0.0000000  0.6508444  3
   5597   5601   5613   5614     1  0.0000000  0.6508444  3
   5597   5601   5613   5615     1  0.0000000  0.6508444  3
   5597   5604   5607   5608     1  0.0000000  0.6508444  3
   5597   5604   5607   5609     1  0.0000000  0.6508444  3
   5598   5597   5601   5602     1  0.0000000  1.2552000  3
   5598   5597   5601   5603     1  0.0000000  1.2552000  3
   5598   5597   5604   5605     1  0.0000000  1.2552000  3
   5598   5597   5604   5606     1  0.0000000  1.2552000  3
   5598   5610   5622   5623     1  0.0000000  0.6508444  3
   5598   5610   5622   5624     1  0.0000000  0.6508444  3
   5599   5598   5597   5601     1  0.0000000  1.2552000  3
   5599   5598   5597   5604     1  0.0000000  1.2552000  3
   5599   5598   5610   5622     1  0.0000000  0.6508444  3
   5599   5598   5610   5611     1  0.0000000  0.6508444  3
   5599   5598   5610   5612     1  0.0000000  0.6508444  3
   5600   5598   5597   5601     1  0.0000000  1.2552000  3
   5600   5598   5597   5604     1  0.0000000  1.2552000  3
   5600   5598   5610   5622     1  0.0000000  0.6508444  3
   5600   5598   5610   5611     1  0.0000000  0.6508444  3
   5600   5598   5610   5612     1  0.0000000  0.6508444  3
   5601   5597   5604   5605     1  0.0000000  1.2552000  3
   5601   5597   5604   5606     1  0.0000000  1.2552000  3
   5601   5613   5619   5620     1  0.0000000  0.6508444  3
   5601   5613   5619   5621     1  0.0000000  0.6508444  3
   5602   5601   5597   5604     1  0.0000000  1.2552000  3
   5602   5601   5613   5619     1  0.0000000  0.6508444  3
   5602   5601   5613   5614     1  0.0000000  0.6508444  3
   5602   5601   5613   5615     1  0.0000000  0.6508444  3
   5603   5601   5597   5604     1  0.0000000  1.2552000  3
   5603   5601   5613   5619     1  0.0000000  0.6508444  3
   5603   5601   5613   5614     1  0.0000000  0.6508444  3
   5603   5601   5613   5615     1  0.0000000  0.6508444  3
   5604   5607   5616   5617     1  0.0000000  0.6508444  3
   5604   5607   5616   5618     1  0.0000000  0.6508444  3
   5605   5604   5607   5616     1  0.0000000  0.6508444  3
   5605   5604   5607   5608     1  0.0000000  0.6508444  3
   5605   5604   5607   5609     1  0.0000000  0.6508444  3
   5606   5604   5607   5616     1  0.0000000  0.6508444  3
   5606   5604   5607   5608     1  0.0000000  0.6508444  3
   5606   5604   5607   5609     1  0.0000000  0.6508444  3
   5608   5607   5616   5625     1  0.0000000  1.0460000  1
   5608   5607   5616   5625     1  0.0000000  0.0000000  3
   5608   5607   5616   5617     1  0.0000000  0.6508444  3
   5608   5607   5616   5618     1  0.0000000  0.6508444  3
   5609   5607   5616   5625     1  0.0000000  1.0460000  1
   5609   5607   5616   5625     1  0.0000000  0.0000000  3
   5609   5607   5616   5617     1  0.0000000  0.6508444  3
   5609   5607   5616   5618     1  0.0000000  0.6508444  3
   5611   5610   5622  10481     1  0.0000000  1.0460000  1
   5611   5610   5622  10481     1  0.0000000  0.0000000  3
   5611   5610   5622   5623     1  0.0000000  0.6508444  3
   5611   5610   5622   5624     1  0.0000000  0.6508444  3
   5612   5610   5622  10481     1  0.0000000  1.0460000  1
   5612   5610   5622  10481     1  0.0000000  0.0000000  3
   5612   5610   5622   5623     1  0.0000000  0.6508444  3
   5612   5610   5622   5624     1  0.0000000  0.6508444  3
   5614   5613   5619  10458     1  0.0000000  1.0460000  1
   5614   5613   5619  10458     1  0.0000000  0.0000000  3
   5614   5613   5619   5620     1  0.0000000  0.6508444  3
   5614   5613   5619   5621     1  0.0000000  0.6508444  3
   5615   5613   5619  10458     1  0.0000000  1.0460000  1
   5615   5613   5619  10458     1  0.0000000  0.0000000  3
   5615   5613   5619   5620     1  0.0000000  0.6508444  3
   5615   5613   5619   5621     1  0.0000000  0.6508444  3
   5619  10458  10454  10457     1  0.0000000  1.6038667  3
   5620   5619  10458  10454     1  0.0000000  1.6038667  3
   5621   5619  10458  10454     1  0.0000000  1.6038667  3
   5622  10481  10477  10480     1  0.0000000  1.6038667  3
   5623   5622  10481  10477     1  0.0000000  1.6038667  3
   5624   5622  10481  10477     1  0.0000000  1.6038667  3
   5626   5627   5639   5640     1  0.0000000  0.6508444  3
   5626   5627   5639   5641     1  0.0000000  0.6508444  3
   5626   5630   5642   5643     1  0.0000000  0.6508444  3
   5626   5630   5642   5644     1  0.0000000  0.6508444  3
   5626   5633   5636   5637     1  0.0000000  0.6508444  3
   5626   5633   5636   5638     1  0.0000000  0.6508444  3
   5627   5626   5630   5631     1  0.0000000  1.2552000  3
   5627   5626   5630   5632     1  0.0000000  1.2552000  3
   5627   5626   5633   5634     1  0.0000000  1.2552000  3
   5627   5626   5633   5635     1  0.0000000  1.2552000  3
   5627   5639   5651   5652     1  0.0000000  0.6508444  3
   5627   5639   5651   5653     1  0.0000000  0.6508444  3
   5628   5627   5626   5630     1  0.0000000  1.2552000  3
   5628   5627   5626   5633     1  0.0000000  1.2552000  3
   5628   5627   5639   5651     1  0.0000000  0.6508444  3
   5628   5627   5639   5640     1  0.0000000  0.6508444  3
   5628   5627   5639   5641     1  0.0000000  0.6508444  3
   5629   5627   5626   5630     1  0.0000000  1.2552000  3
   5629   5627   5626   5633     1  0.0000000  1.2552000  3
   5629   5627   5639   5651     1  0.0000000  0.6508444  3
   5629   5627   5639   5640     1  0.0000000  0.6508444  3
   5629   5627   5639   5641     1  0.0000000  0.6508444  3
   5630   5626   5633   5634     1  0.0000000  1.2552000  3
   5630   5626   5633   5635     1  0.0000000  1.2552000  3
   5630   5642   5648   5649     1  0.0000000  0.6508444  3
   5630   5642   5648   5650     1  0.0000000  0.6508444  3
   5631   5630   5626   5633     1  0.0000000  1.2552000  3
   5631   5630   5642   5648     1  0.0000000  0.6508444  3
   5631   5630   5642   5643     1  0.0000000  0.6508444  3
   5631   5630   5642   5644     1  0.0000000  0.6508444  3
   5632   5630   5626   5633     1  0.0000000  1.2552000  3
   5632   5630   5642   5648     1  0.0000000  0.6508444  3
   5632   5630   5642   5643     1  0.0000000  0.6508444  3
   5632   5630   5642   5644     1  0.0000000  0.6508444  3
   5633   5636   5645   5646     1  0.0000000  0.6508444  3
   5633   5636   5645   5647     1  0.0000000  0.6508444  3
   5634   5633   5636   5645     1  0.0000000  0.6508444  3
   5634   5633   5636   5637     1  0.0000000  0.6508444  3
   5634   5633   5636   5638     1  0.0000000  0.6508444  3
   5635   5633   5636   5645     1  0.0000000  0.6508444  3
   5635   5633   5636   5637     1  0.0000000  0.6508444  3
   5635   5633   5636   5638     1  0.0000000  0.6508444  3
   5637   5636   5645   5654     1  0.0000000  1.0460000  1
   5637   5636   5645   5654     1  0.0000000  0.0000000  3
   5637   5636   5645   5646     1  0.0000000  0.6508444  3
   5637   5636   5645   5647     1  0.0000000  0.6508444  3
   5638   5636   5645   5654     1  0.0000000  1.0460000  1
   5638   5636   5645   5654     1  0.0000000  0.0000000  3
   5638   5636   5645   5646     1  0.0000000  0.6508444  3
   5638   5636   5645   5647     1  0.0000000  0.6508444  3
   5640   5639   5651  10527     1  0.0000000  1.0460000  1
   5640   5639   5651  10527     1  0.0000000  0.0000000  3
   5640   5639   5651   5652     1  0.0000000  0.6508444  3
   5640   5639   5651   5653     1  0.0000000  0.6508444  3
   5641   5639   5651  10527     1  0.0000000  1.0460000  1
   5641   5639   5651  10527     1  0.0000000  0.0000000  3
   5641   5639   5651   5652     1  0.0000000  0.6508444  3
   5641   5639   5651   5653     1  0.0000000  0.6508444  3
   5643   5642   5648  10504     1  0.0000000  1.0460000  1
   5643   5642   5648  10504     1  0.0000000  0.0000000  3
   5643   5642   5648   5649     1  0.0000000  0.6508444  3
   5643   5642   5648   5650     1  0.0000000  0.6508444  3
   5644   5642   5648  10504     1  0.0000000  1.0460000  1
   5644   5642   5648  10504     1  0.0000000  0.0000000  3
   5644   5642   5648   5649     1  0.0000000  0.6508444  3
   5644   5642   5648   5650     1  0.0000000  0.6508444  3
   5648  10504  10500  10503     1  0.0000000  1.6038667  3
   5649   5648  10504  10500     1  0.0000000  1.6038667  3
   5650   5648  10504  10500     1  0.0000000  1.6038667  3
   5651  10527  10523  10526     1  0.0000000  1.6038667  3
   5652   5651  10527  10523     1  0.0000000  1.6038667  3
   5653   5651  10527  10523     1  0.0000000  1.6038667  3
   5655   5656   5668   5669     1  0.0000000  0.6508444  3
   5655   5656   5668   5670     1  0.0000000  0.6508444  3
   5655   5659   5671   5672     1  0.0000000  0.6508444  3
   5655   5659   5671   5673     1  0.0000000  0.6508444  3
   5655   5662   5665   5666     1  0.0000000  0.6508444  3
   5655   5662   5665   5667     1  0.0000000  0.6508444  3
   5656   5655   5659   5660     1  0.0000000  1.2552000  3
   5656   5655   5659   5661     1  0.0000000  1.2552000  3
   5656   5655   5662   5663     1  0.0000000  1.2552000  3
   5656   5655   5662   5664     1  0.0000000  1.2552000  3
   5656   5668   5680   5681     1  0.0000000  0.6508444  3
   5656   5668   5680   5682     1  0.0000000  0.6508444  3
   5657   5656   5655   5659     1  0.0000000  1.2552000  3
   5657   5656   5655   5662     1  0.0000000  1.2552000  3
   5657   5656   5668   5680     1  0.0000000  0.6508444  3
   5657   5656   5668   5669     1  0.0000000  0.6508444  3
   5657   5656   5668   5670     1  0.0000000  0.6508444  3
   5658   5656   5655   5659     1  0.0000000  1.2552000  3
   5658   5656   5655   5662     1  0.0000000  1.2552000  3
   5658   5656   5668   5680     1  0.0000000  0.6508444  3
   5658   5656   5668   5669     1  0.0000000  0.6508444  3
   5658   5656   5668   5670     1  0.0000000  0.6508444  3
   5659   5655   5662   5663     1  0.0000000  1.2552000  3
   5659   5655   5662   5664     1  0.0000000  1.2552000  3
   5659   5671   5677   5678     1  0.0000000  0.6508444  3
   5659   5671   5677   5679     1  0.0000000  0.6508444  3
   5660   5659   5655   5662     1  0.0000000  1.2552000  3
   5660   5659   5671   5677     1  0.0000000  0.6508444  3
   5660   5659   5671   5672     1  0.0000000  0.6508444  3
   5660   5659   5671   5673     1  0.0000000  0.6508444  3
   5661   5659   5655   5662     1  0.0000000  1.2552000  3
   5661   5659   5671   5677     1  0.0000000  0.6508444  3
   5661   5659   5671   5672     1  0.0000000  0.6508444  3
   5661   5659   5671   5673     1  0.0000000  0.6508444  3
   5662   5665   5674   5675     1  0.0000000  0.6508444  3
   5662   5665   5674   5676     1  0.0000000  0.6508444  3
   5663   5662   5665   5674     1  0.0000000  0.6508444  3
   5663   5662   5665   5666     1  0.0000000  0.6508444  3
   5663   5662   5665   5667     1  0.0000000  0.6508444  3
   5664   5662   5665   5674     1  0.0000000  0.6508444  3
   5664   5662   5665   5666     1  0.0000000  0.6508444  3
   5664   5662   5665   5667     1  0.0000000  0.6508444  3
   5666   5665   5674   5683     1  0.0000000  1.0460000  1
   5666   5665   5674   5683     1  0.0000000  0.0000000  3
   5666   5665   5674   5675     1  0.0000000  0.6508444  3
   5666   5665   5674   5676     1  0.0000000  0.6508444  3
   5667   5665   5674   5683     1  0.0000000  1.0460000  1
   5667   5665   5674   5683     1  0.0000000  0.0000000  3
   5667   5665   5674   5675     1  0.0000000  0.6508444  3
   5667   5665   5674   5676     1  0.0000000  0.6508444  3
   5669   5668   5680  10573     1  0.0000000  1.0460000  1
   5669   5668   5680  10573     1  0.0000000  0.0000000  3
   5669   5668   5680   5681     1  0.0000000  0.6508444  3
   5669   5668   5680   5682     1  0.0000000  0.6508444  3
   5670   5668   5680  10573     1  0.0000000  1.0460000  1
   5670   5668   5680  10573     1  0.0000000  0.0000000  3
   5670   5668   5680   5681     1  0.0000000  0.6508444  3
   5670   5668   5680   5682     1  0.0000000  0.6508444  3
   5672   5671   5677  10550     1  0.0000000  1.0460000  1
   5672   5671   5677  10550     1  0.0000000  0.0000000  3
   5672   5671   5677   5678     1  0.0000000  0.6508444  3
   5672   5671   5677   5679     1  0.0000000  0.6508444  3
   5673   5671   5677  10550     1  0.0000000  1.0460000  1
   5673   5671   5677  10550     1  0.0000000  0.0000000  3
   5673   5671   5677   5678     1  0.0000000  0.6508444  3
   5673   5671   5677   5679     1  0.0000000  0.6508444  3
   5677  10550  10546  10549     1  0.0000000  1.6038667  3
   5678   5677  10550  10546     1  0.0000000  1.6038667  3
   5679   5677  10550  10546     1  0.0000000  1.6038667  3
   5680  10573  10569  10572     1  0.0000000  1.6038667  3
   5681   5680  10573  10569     1  0.0000000  1.6038667  3
   5682   5680  10573  10569     1  0.0000000  1.6038667  3
   5684   5685   5697   5698     1  0.0000000  0.6508444  3
   5684   5685   5697   5699     1  0.0000000  0.6508444  3
   5684   5688   5700   5701     1  0.0000000  0.6508444  3
   5684   5688   5700   5702     1  0.0000000  0.6508444  3
   5684   5691   5694   5695     1  0.0000000  0.6508444  3
   5684   5691   5694   5696     1  0.0000000  0.6508444  3
   5685   5684   5688   5689     1  0.0000000  1.2552000  3
   5685   5684   5688   5690     1  0.0000000  1.2552000  3
   5685   5684   5691   5692     1  0.0000000  1.2552000  3
   5685   5684   5691   5693     1  0.0000000  1.2552000  3
   5685   5697   5709   5710     1  0.0000000  0.6508444  3
   5685   5697   5709   5711     1  0.0000000  0.6508444  3
   5686   5685   5684   5688     1  0.0000000  1.2552000  3
   5686   5685   5684   5691     1  0.0000000  1.2552000  3
   5686   5685   5697   5709     1  0.0000000  0.6508444  3
   5686   5685   5697   5698     1  0.0000000  0.6508444  3
   5686   5685   5697   5699     1  0.0000000  0.6508444  3
   5687   5685   5684   5688     1  0.0000000  1.2552000  3
   5687   5685   5684   5691     1  0.0000000  1.2552000  3
   5687   5685   5697   5709     1  0.0000000  0.6508444  3
   5687   5685   5697   5698     1  0.0000000  0.6508444  3
   5687   5685   5697   5699     1  0.0000000  0.6508444  3
   5688   5684   5691   5692     1  0.0000000  1.2552000  3
   5688   5684   5691   5693     1  0.0000000  1.2552000  3
   5688   5700   5706   5707     1  0.0000000  0.6508444  3
   5688   5700   5706   5708     1  0.0000000  0.6508444  3
   5689   5688   5684   5691     1  0.0000000  1.2552000  3
   5689   5688   5700   5706     1  0.0000000  0.6508444  3
   5689   5688   5700   5701     1  0.0000000  0.6508444  3
   5689   5688   5700   5702     1  0.0000000  0.6508444  3
   5690   5688   5684   5691     1  0.0000000  1.2552000  3
   5690   5688   5700   5706     1  0.0000000  0.6508444  3
   5690   5688   5700   5701     1  0.0000000  0.6508444  3
   5690   5688   5700   5702     1  0.0000000  0.6508444  3
   5691   5694   5703   5704     1  0.0000000  0.6508444  3
   5691   5694   5703   5705     1  0.0000000  0.6508444  3
   5692   5691   5694   5703     1  0.0000000  0.6508444  3
   5692   5691   5694   5695     1  0.0000000  0.6508444  3
   5692   5691   5694   5696     1  0.0000000  0.6508444  3
   5693   5691   5694   5703     1  0.0000000  0.6508444  3
   5693   5691   5694   5695     1  0.0000000  0.6508444  3
   5693   5691   5694   5696     1  0.0000000  0.6508444  3
   5695   5694   5703   5712     1  0.0000000  1.0460000  1
   5695   5694   5703   5712     1  0.0000000  0.0000000  3
   5695   5694   5703   5704     1  0.0000000  0.6508444  3
   5695   5694   5703   5705     1  0.0000000  0.6508444  3
   5696   5694   5703   5712     1  0.0000000  1.0460000  1
   5696   5694   5703   5712     1  0.0000000  0.0000000  3
   5696   5694   5703   5704     1  0.0000000  0.6508444  3
   5696   5694   5703   5705     1  0.0000000  0.6508444  3
   5698   5697   5709  10619     1  0.0000000  1.0460000  1
   5698   5697   5709  10619     1  0.0000000  0.0000000  3
   5698   5697   5709   5710     1  0.0000000  0.6508444  3
   5698   5697   5709   5711     1  0.0000000  0.6508444  3
   5699   5697   5709  10619     1  0.0000000  1.0460000  1
   5699   5697   5709  10619     1  0.0000000  0.0000000  3
   5699   5697   5709   5710     1  0.0000000  0.6508444  3
   5699   5697   5709   5711     1  0.0000000  0.6508444  3
   5701   5700   5706  10596     1  0.0000000  1.0460000  1
   5701   5700   5706  10596     1  0.0000000  0.0000000  3
   5701   5700   5706   5707     1  0.0000000  0.6508444  3
   5701   5700   5706   5708     1  0.0000000  0.6508444  3
   5702   5700   5706  10596     1  0.0000000  1.0460000  1
   5702   5700   5706  10596     1  0.0000000  0.0000000  3
   5702   5700   5706   5707     1  0.0000000  0.6508444  3
   5702   5700   5706   5708     1  0.0000000  0.6508444  3
   5706  10596  10592  10595     1  0.0000000  1.6038667  3
   5707   5706  10596  10592     1  0.0000000  1.6038667  3
   5708   5706  10596  10592     1  0.0000000  1.6038667  3
   5709  10619  10615  10618     1  0.0000000  1.6038667  3
   5710   5709  10619  10615     1  0.0000000  1.6038667  3
   5711   5709  10619  10615     1  0.0000000  1.6038667  3
   5713   5714   5726   5727     1  0.0000000  0.6508444  3
   5713   5714   5726   5728     1  0.0000000  0.6508444  3
   5713   5717   5729   5730     1  0.0000000  0.6508444  3
   5713   5717   5729   5731     1  0.0000000  0.6508444  3
   5713   5720   5723   5724     1  0.0000000  0.6508444  3
   5713   5720   5723   5725     1  0.0000000  0.6508444  3
   5714   5713   5717   5718     1  0.0000000  1.2552000  3
   5714   5713   5717   5719     1  0.0000000  1.2552000  3
   5714   5713   5720   5721     1  0.0000000  1.2552000  3
   5714   5713   5720   5722     1  0.0000000  1.2552000  3
   5714   5726   5738   5739     1  0.0000000  0.6508444  3
   5714   5726   5738   5740     1  0.0000000  0.6508444  3
   5715   5714   5713   5717     1  0.0000000  1.2552000  3
   5715   5714   5713   5720     1  0.0000000  1.2552000  3
   5715   5714   5726   5738     1  0.0000000  0.6508444  3
   5715   5714   5726   5727     1  0.0000000  0.6508444  3
   5715   5714   5726   5728     1  0.0000000  0.6508444  3
   5716   5714   5713   5717     1  0.0000000  1.2552000  3
   5716   5714   5713   5720     1  0.0000000  1.2552000  3
   5716   5714   5726   5738     1  0.0000000  0.6508444  3
   5716   5714   5726   5727     1  0.0000000  0.6508444  3
   5716   5714   5726   5728     1  0.0000000  0.6508444  3
   5717   5713   5720   5721     1  0.0000000  1.2552000  3
   5717   5713   5720   5722     1  0.0000000  1.2552000  3
   5717   5729   5735   5736     1  0.0000000  0.6508444  3
   5717   5729   5735   5737     1  0.0000000  0.6508444  3
   5718   5717   5713   5720     1  0.0000000  1.2552000  3
   5718   5717   5729   5735     1  0.0000000  0.6508444  3
   5718   5717   5729   5730     1  0.0000000  0.6508444  3
   5718   5717   5729   5731     1  0.0000000  0.6508444  3
   5719   5717   5713   5720     1  0.0000000  1.2552000  3
   5719   5717   5729   5735     1  0.0000000  0.6508444  3
   5719   5717   5729   5730     1  0.0000000  0.6508444  3
   5719   5717   5729   5731     1  0.0000000  0.6508444  3
   5720   5723   5732   5733     1  0.0000000  0.6508444  3
   5720   5723   5732   5734     1  0.0000000  0.6508444  3
   5721   5720   5723   5732     1  0.0000000  0.6508444  3
   5721   5720   5723   5724     1  0.0000000  0.6508444  3
   5721   5720   5723   5725     1  0.0000000  0.6508444  3
   5722   5720   5723   5732     1  0.0000000  0.6508444  3
   5722   5720   5723   5724     1  0.0000000  0.6508444  3
   5722   5720   5723   5725     1  0.0000000  0.6508444  3
   5724   5723   5732   5741     1  0.0000000  1.0460000  1
   5724   5723   5732   5741     1  0.0000000  0.0000000  3
   5724   5723   5732   5733     1  0.0000000  0.6508444  3
   5724   5723   5732   5734     1  0.0000000  0.6508444  3
   5725   5723   5732   5741     1  0.0000000  1.0460000  1
   5725   5723   5732   5741     1  0.0000000  0.0000000  3
   5725   5723   5732   5733     1  0.0000000  0.6508444  3
   5725   5723   5732   5734     1  0.0000000  0.6508444  3
   5727   5726   5738  10665     1  0.0000000  1.0460000  1
   5727   5726   5738  10665     1  0.0000000  0.0000000  3
   5727   5726   5738   5739     1  0.0000000  0.6508444  3
   5727   5726   5738   5740     1  0.0000000  0.6508444  3
   5728   5726   5738  10665     1  0.0000000  1.0460000  1
   5728   5726   5738  10665     1  0.0000000  0.0000000  3
   5728   5726   5738   5739     1  0.0000000  0.6508444  3
   5728   5726   5738   5740     1  0.0000000  0.6508444  3
   5730   5729   5735  10642     1  0.0000000  1.0460000  1
   5730   5729   5735  10642     1  0.0000000  0.0000000  3
   5730   5729   5735   5736     1  0.0000000  0.6508444  3
   5730   5729   5735   5737     1  0.0000000  0.6508444  3
   5731   5729   5735  10642     1  0.0000000  1.0460000  1
   5731   5729   5735  10642     1  0.0000000  0.0000000  3
   5731   5729   5735   5736     1  0.0000000  0.6508444  3
   5731   5729   5735   5737     1  0.0000000  0.6508444  3
   5735  10642  10638  10641     1  0.0000000  1.6038667  3
   5736   5735  10642  10638     1  0.0000000  1.6038667  3
   5737   5735  10642  10638     1  0.0000000  1.6038667  3
   5738  10665  10661  10664     1  0.0000000  1.6038667  3
   5739   5738  10665  10661     1  0.0000000  1.6038667  3
   5740   5738  10665  10661     1  0.0000000  1.6038667  3
   5742   5743   5755   5756     1  0.0000000  0.6508444  3
   5742   5743   5755   5757     1  0.0000000  0.6508444  3
   5742   5746   5758   5759     1  0.0000000  0.6508444  3
   5742   5746   5758   5760     1  0.0000000  0.6508444  3
   5742   5749   5752   5753     1  0.0000000  0.6508444  3
   5742   5749   5752   5754     1  0.0000000  0.6508444  3
   5743   5742   5746   5747     1  0.0000000  1.2552000  3
   5743   5742   5746   5748     1  0.0000000  1.2552000  3
   5743   5742   5749   5750     1  0.0000000  1.2552000  3
   5743   5742   5749   5751     1  0.0000000  1.2552000  3
   5743   5755   5767   5768     1  0.0000000  0.6508444  3
   5743   5755   5767   5769     1  0.0000000  0.6508444  3
   5744   5743   5742   5746     1  0.0000000  1.2552000  3
   5744   5743   5742   5749     1  0.0000000  1.2552000  3
   5744   5743   5755   5767     1  0.0000000  0.6508444  3
   5744   5743   5755   5756     1  0.0000000  0.6508444  3
   5744   5743   5755   5757     1  0.0000000  0.6508444  3
   5745   5743   5742   5746     1  0.0000000  1.2552000  3
   5745   5743   5742   5749     1  0.0000000  1.2552000  3
   5745   5743   5755   5767     1  0.0000000  0.6508444  3
   5745   5743   5755   5756     1  0.0000000  0.6508444  3
   5745   5743   5755   5757     1  0.0000000  0.6508444  3
   5746   5742   5749   5750     1  0.0000000  1.2552000  3
   5746   5742   5749   5751     1  0.0000000  1.2552000  3
   5746   5758   5764   5765     1  0.0000000  0.6508444  3
   5746   5758   5764   5766     1  0.0000000  0.6508444  3
   5747   5746   5742   5749     1  0.0000000  1.2552000  3
   5747   5746   5758   5764     1  0.0000000  0.6508444  3
   5747   5746   5758   5759     1  0.0000000  0.6508444  3
   5747   5746   5758   5760     1  0.0000000  0.6508444  3
   5748   5746   5742   5749     1  0.0000000  1.2552000  3
   5748   5746   5758   5764     1  0.0000000  0.6508444  3
   5748   5746   5758   5759     1  0.0000000  0.6508444  3
   5748   5746   5758   5760     1  0.0000000  0.6508444  3
   5749   5752   5761   5762     1  0.0000000  0.6508444  3
   5749   5752   5761   5763     1  0.0000000  0.6508444  3
   5750   5749   5752   5761     1  0.0000000  0.6508444  3
   5750   5749   5752   5753     1  0.0000000  0.6508444  3
   5750   5749   5752   5754     1  0.0000000  0.6508444  3
   5751   5749   5752   5761     1  0.0000000  0.6508444  3
   5751   5749   5752   5753     1  0.0000000  0.6508444  3
   5751   5749   5752   5754     1  0.0000000  0.6508444  3
   5753   5752   5761   5770     1  0.0000000  1.0460000  1
   5753   5752   5761   5770     1  0.0000000  0.0000000  3
   5753   5752   5761   5762     1  0.0000000  0.6508444  3
   5753   5752   5761   5763     1  0.0000000  0.6508444  3
   5754   5752   5761   5770     1  0.0000000  1.0460000  1
   5754   5752   5761   5770     1  0.0000000  0.0000000  3
   5754   5752   5761   5762     1  0.0000000  0.6508444  3
   5754   5752   5761   5763     1  0.0000000  0.6508444  3
   5756   5755   5767  10711     1  0.0000000  1.0460000  1
   5756   5755   5767  10711     1  0.0000000  0.0000000  3
   5756   5755   5767   5768     1  0.0000000  0.6508444  3
   5756   5755   5767   5769     1  0.0000000  0.6508444  3
   5757   5755   5767  10711     1  0.0000000  1.0460000  1
   5757   5755   5767  10711     1  0.0000000  0.0000000  3
   5757   5755   5767   5768     1  0.0000000  0.6508444  3
   5757   5755   5767   5769     1  0.0000000  0.6508444  3
   5759   5758   5764  10688     1  0.0000000  1.0460000  1
   5759   5758   5764  10688     1  0.0000000  0.0000000  3
   5759   5758   5764   5765     1  0.0000000  0.6508444  3
   5759   5758   5764   5766     1  0.0000000  0.6508444  3
   5760   5758   5764  10688     1  0.0000000  1.0460000  1
   5760   5758   5764  10688     1  0.0000000  0.0000000  3
   5760   5758   5764   5765     1  0.0000000  0.6508444  3
   5760   5758   5764   5766     1  0.0000000  0.6508444  3
   5764  10688  10684  10687     1  0.0000000  1.6038667  3
   5765   5764  10688  10684     1  0.0000000  1.6038667  3
   5766   5764  10688  10684     1  0.0000000  1.6038667  3
   5767  10711  10707  10710     1  0.0000000  1.6038667  3
   5768   5767  10711  10707     1  0.0000000  1.6038667  3
   5769   5767  10711  10707     1  0.0000000  1.6038667  3
   5771   5772   5784   5785     1  0.0000000  0.6508444  3
   5771   5772   5784   5786     1  0.0000000  0.6508444  3
   5771   5775   5787   5788     1  0.0000000  0.6508444  3
   5771   5775   5787   5789     1  0.0000000  0.6508444  3
   5771   5778   5781   5782     1  0.0000000  0.6508444  3
   5771   5778   5781   5783     1  0.0000000  0.6508444  3
   5772   5771   5775   5776     1  0.0000000  1.2552000  3
   5772   5771   5775   5777     1  0.0000000  1.2552000  3
   5772   5771   5778   5779     1  0.0000000  1.2552000  3
   5772   5771   5778   5780     1  0.0000000  1.2552000  3
   5772   5784   5796   5797     1  0.0000000  0.6508444  3
   5772   5784   5796   5798     1  0.0000000  0.6508444  3
   5773   5772   5771   5775     1  0.0000000  1.2552000  3
   5773   5772   5771   5778     1  0.0000000  1.2552000  3
   5773   5772   5784   5796     1  0.0000000  0.6508444  3
   5773   5772   5784   5785     1  0.0000000  0.6508444  3
   5773   5772   5784   5786     1  0.0000000  0.6508444  3
   5774   5772   5771   5775     1  0.0000000  1.2552000  3
   5774   5772   5771   5778     1  0.0000000  1.2552000  3
   5774   5772   5784   5796     1  0.0000000  0.6508444  3
   5774   5772   5784   5785     1  0.0000000  0.6508444  3
   5774   5772   5784   5786     1  0.0000000  0.6508444  3
   5775   5771   5778   5779     1  0.0000000  1.2552000  3
   5775   5771   5778   5780     1  0.0000000  1.2552000  3
   5775   5787   5793   5794     1  0.0000000  0.6508444  3
   5775   5787   5793   5795     1  0.0000000  0.6508444  3
   5776   5775   5771   5778     1  0.0000000  1.2552000  3
   5776   5775   5787   5793     1  0.0000000  0.6508444  3
   5776   5775   5787   5788     1  0.0000000  0.6508444  3
   5776   5775   5787   5789     1  0.0000000  0.6508444  3
   5777   5775   5771   5778     1  0.0000000  1.2552000  3
   5777   5775   5787   5793     1  0.0000000  0.6508444  3
   5777   5775   5787   5788     1  0.0000000  0.6508444  3
   5777   5775   5787   5789     1  0.0000000  0.6508444  3
   5778   5781   5790   5791     1  0.0000000  0.6508444  3
   5778   5781   5790   5792     1  0.0000000  0.6508444  3
   5779   5778   5781   5790     1  0.0000000  0.6508444  3
   5779   5778   5781   5782     1  0.0000000  0.6508444  3
   5779   5778   5781   5783     1  0.0000000  0.6508444  3
   5780   5778   5781   5790     1  0.0000000  0.6508444  3
   5780   5778   5781   5782     1  0.0000000  0.6508444  3
   5780   5778   5781   5783     1  0.0000000  0.6508444  3
   5782   5781   5790   5799     1  0.0000000  1.0460000  1
   5782   5781   5790   5799     1  0.0000000  0.0000000  3
   5782   5781   5790   5791     1  0.0000000  0.6508444  3
   5782   5781   5790   5792     1  0.0000000  0.6508444  3
   5783   5781   5790   5799     1  0.0000000  1.0460000  1
   5783   5781   5790   5799     1  0.0000000  0.0000000  3
   5783   5781   5790   5791     1  0.0000000  0.6508444  3
   5783   5781   5790   5792     1  0.0000000  0.6508444  3
   5785   5784   5796  10757     1  0.0000000  1.0460000  1
   5785   5784   5796  10757     1  0.0000000  0.0000000  3
   5785   5784   5796   5797     1  0.0000000  0.6508444  3
   5785   5784   5796   5798     1  0.0000000  0.6508444  3
   5786   5784   5796  10757     1  0.0000000  1.0460000  1
   5786   5784   5796  10757     1  0.0000000  0.0000000  3
   5786   5784   5796   5797     1  0.0000000  0.6508444  3
   5786   5784   5796   5798     1  0.0000000  0.6508444  3
   5788   5787   5793  10734     1  0.0000000  1.0460000  1
   5788   5787   5793  10734     1  0.0000000  0.0000000  3
   5788   5787   5793   5794     1  0.0000000  0.6508444  3
   5788   5787   5793   5795     1  0.0000000  0.6508444  3
   5789   5787   5793  10734     1  0.0000000  1.0460000  1
   5789   5787   5793  10734     1  0.0000000  0.0000000  3
   5789   5787   5793   5794     1  0.0000000  0.6508444  3
   5789   5787   5793   5795     1  0.0000000  0.6508444  3
   5793  10734  10730  10733     1  0.0000000  1.6038667  3
   5794   5793  10734  10730     1  0.0000000  1.6038667  3
   5795   5793  10734  10730     1  0.0000000  1.6038667  3
   5796  10757  10753  10756     1  0.0000000  1.6038667  3
   5797   5796  10757  10753     1  0.0000000  1.6038667  3
   5798   5796  10757  10753     1  0.0000000  1.6038667  3
   5800   5801   5813   5814     1  0.0000000  0.6508444  3
   5800   5801   5813   5815     1  0.0000000  0.6508444  3
   5800   5804   5816   5817     1  0.0000000  0.6508444  3
   5800   5804   5816   5818     1  0.0000000  0.6508444  3
   5800   5807   5810   5811     1  0.0000000  0.6508444  3
   5800   5807   5810   5812     1  0.0000000  0.6508444  3
   5801   5800   5804   5805     1  0.0000000  1.2552000  3
   5801   5800   5804   5806     1  0.0000000  1.2552000  3
   5801   5800   5807   5808     1  0.0000000  1.2552000  3
   5801   5800   5807   5809     1  0.0000000  1.2552000  3
   5801   5813   5825   5826     1  0.0000000  0.6508444  3
   5801   5813   5825   5827     1  0.0000000  0.6508444  3
   5802   5801   5800   5804     1  0.0000000  1.2552000  3
   5802   5801   5800   5807     1  0.0000000  1.2552000  3
   5802   5801   5813   5825     1  0.0000000  0.6508444  3
   5802   5801   5813   5814     1  0.0000000  0.6508444  3
   5802   5801   5813   5815     1  0.0000000  0.6508444  3
   5803   5801   5800   5804     1  0.0000000  1.2552000  3
   5803   5801   5800   5807     1  0.0000000  1.2552000  3
   5803   5801   5813   5825     1  0.0000000  0.6508444  3
   5803   5801   5813   5814     1  0.0000000  0.6508444  3
   5803   5801   5813   5815     1  0.0000000  0.6508444  3
   5804   5800   5807   5808     1  0.0000000  1.2552000  3
   5804   5800   5807   5809     1  0.0000000  1.2552000  3
   5804   5816   5822   5823     1  0.0000000  0.6508444  3
   5804   5816   5822   5824     1  0.0000000  0.6508444  3
   5805   5804   5800   5807     1  0.0000000  1.2552000  3
   5805   5804   5816   5822     1  0.0000000  0.6508444  3
   5805   5804   5816   5817     1  0.0000000  0.6508444  3
   5805   5804   5816   5818     1  0.0000000  0.6508444  3
   5806   5804   5800   5807     1  0.0000000  1.2552000  3
   5806   5804   5816   5822     1  0.0000000  0.6508444  3
   5806   5804   5816   5817     1  0.0000000  0.6508444  3
   5806   5804   5816   5818     1  0.0000000  0.6508444  3
   5807   5810   5819   5820     1  0.0000000  0.6508444  3
   5807   5810   5819   5821     1  0.0000000  0.6508444  3
   5808   5807   5810   5819     1  0.0000000  0.6508444  3
   5808   5807   5810   5811     1  0.0000000  0.6508444  3
   5808   5807   5810   5812     1  0.0000000  0.6508444  3
   5809   5807   5810   5819     1  0.0000000  0.6508444  3
   5809   5807   5810   5811     1  0.0000000  0.6508444  3
   5809   5807   5810   5812     1  0.0000000  0.6508444  3
   5811   5810   5819   5828     1  0.0000000  1.0460000  1
   5811   5810   5819   5828     1  0.0000000  0.0000000  3
   5811   5810   5819   5820     1  0.0000000  0.6508444  3
   5811   5810   5819   5821     1  0.0000000  0.6508444  3
   5812   5810   5819   5828     1  0.0000000  1.0460000  1
   5812   5810   5819   5828     1  0.0000000  0.0000000  3
   5812   5810   5819   5820     1  0.0000000  0.6508444  3
   5812   5810   5819   5821     1  0.0000000  0.6508444  3
   5814   5813   5825  10803     1  0.0000000  1.0460000  1
   5814   5813   5825  10803     1  0.0000000  0.0000000  3
   5814   5813   5825   5826     1  0.0000000  0.6508444  3
   5814   5813   5825   5827     1  0.0000000  0.6508444  3
   5815   5813   5825  10803     1  0.0000000  1.0460000  1
   5815   5813   5825  10803     1  0.0000000  0.0000000  3
   5815   5813   5825   5826     1  0.0000000  0.6508444  3
   5815   5813   5825   5827     1  0.0000000  0.6508444  3
   5817   5816   5822  10780     1  0.0000000  1.0460000  1
   5817   5816   5822  10780     1  0.0000000  0.0000000  3
   5817   5816   5822   5823     1  0.0000000  0.6508444  3
   5817   5816   5822   5824     1  0.0000000  0.6508444  3
   5818   5816   5822  10780     1  0.0000000  1.0460000  1
   5818   5816   5822  10780     1  0.0000000  0.0000000  3
   5818   5816   5822   5823     1  0.0000000  0.6508444  3
   5818   5816   5822   5824     1  0.0000000  0.6508444  3
   5822  10780  10776  10779     1  0.0000000  1.6038667  3
   5823   5822  10780  10776     1  0.0000000  1.6038667  3
   5824   5822  10780  10776     1  0.0000000  1.6038667  3
   5825  10803  10799  10802     1  0.0000000  1.6038667  3
   5826   5825  10803  10799     1  0.0000000  1.6038667  3
   5827   5825  10803  10799     1  0.0000000  1.6038667  3
   5829   5830   5842   5843     1  0.0000000  0.6508444  3
   5829   5830   5842   5844     1  0.0000000  0.6508444  3
   5829   5833   5845   5846     1  0.0000000  0.6508444  3
   5829   5833   5845   5847     1  0.0000000  0.6508444  3
   5829   5836   5839   5840     1  0.0000000  0.6508444  3
   5829   5836   5839   5841     1  0.0000000  0.6508444  3
   5830   5829   5833   5834     1  0.0000000  1.2552000  3
   5830   5829   5833   5835     1  0.0000000  1.2552000  3
   5830   5829   5836   5837     1  0.0000000  1.2552000  3
   5830   5829   5836   5838     1  0.0000000  1.2552000  3
   5830   5842   5854   5855     1  0.0000000  0.6508444  3
   5830   5842   5854   5856     1  0.0000000  0.6508444  3
   5831   5830   5829   5833     1  0.0000000  1.2552000  3
   5831   5830   5829   5836     1  0.0000000  1.2552000  3
   5831   5830   5842   5854     1  0.0000000  0.6508444  3
   5831   5830   5842   5843     1  0.0000000  0.6508444  3
   5831   5830   5842   5844     1  0.0000000  0.6508444  3
   5832   5830   5829   5833     1  0.0000000  1.2552000  3
   5832   5830   5829   5836     1  0.0000000  1.2552000  3
   5832   5830   5842   5854     1  0.0000000  0.6508444  3
   5832   5830   5842   5843     1  0.0000000  0.6508444  3
   5832   5830   5842   5844     1  0.0000000  0.6508444  3
   5833   5829   5836   5837     1  0.0000000  1.2552000  3
   5833   5829   5836   5838     1  0.0000000  1.2552000  3
   5833   5845   5851   5852     1  0.0000000  0.6508444  3
   5833   5845   5851   5853     1  0.0000000  0.6508444  3
   5834   5833   5829   5836     1  0.0000000  1.2552000  3
   5834   5833   5845   5851     1  0.0000000  0.6508444  3
   5834   5833   5845   5846     1  0.0000000  0.6508444  3
   5834   5833   5845   5847     1  0.0000000  0.6508444  3
   5835   5833   5829   5836     1  0.0000000  1.2552000  3
   5835   5833   5845   5851     1  0.0000000  0.6508444  3
   5835   5833   5845   5846     1  0.0000000  0.6508444  3
   5835   5833   5845   5847     1  0.0000000  0.6508444  3
   5836   5839   5848   5849     1  0.0000000  0.6508444  3
   5836   5839   5848   5850     1  0.0000000  0.6508444  3
   5837   5836   5839   5848     1  0.0000000  0.6508444  3
   5837   5836   5839   5840     1  0.0000000  0.6508444  3
   5837   5836   5839   5841     1  0.0000000  0.6508444  3
   5838   5836   5839   5848     1  0.0000000  0.6508444  3
   5838   5836   5839   5840     1  0.0000000  0.6508444  3
   5838   5836   5839   5841     1  0.0000000  0.6508444  3
   5840   5839   5848   5857     1  0.0000000  1.0460000  1
   5840   5839   5848   5857     1  0.0000000  0.0000000  3
   5840   5839   5848   5849     1  0.0000000  0.6508444  3
   5840   5839   5848   5850     1  0.0000000  0.6508444  3
   5841   5839   5848   5857     1  0.0000000  1.0460000  1
   5841   5839   5848   5857     1  0.0000000  0.0000000  3
   5841   5839   5848   5849     1  0.0000000  0.6508444  3
   5841   5839   5848   5850     1  0.0000000  0.6508444  3
   5843   5842   5854  10849     1  0.0000000  1.0460000  1
   5843   5842   5854  10849     1  0.0000000  0.0000000  3
   5843   5842   5854   5855     1  0.0000000  0.6508444  3
   5843   5842   5854   5856     1  0.0000000  0.6508444  3
   5844   5842   5854  10849     1  0.0000000  1.0460000  1
   5844   5842   5854  10849     1  0.0000000  0.0000000  3
   5844   5842   5854   5855     1  0.0000000  0.6508444  3
   5844   5842   5854   5856     1  0.0000000  0.6508444  3
   5846   5845   5851  10826     1  0.0000000  1.0460000  1
   5846   5845   5851  10826     1  0.0000000  0.0000000  3
   5846   5845   5851   5852     1  0.0000000  0.6508444  3
   5846   5845   5851   5853     1  0.0000000  0.6508444  3
   5847   5845   5851  10826     1  0.0000000  1.0460000  1
   5847   5845   5851  10826     1  0.0000000  0.0000000  3
   5847   5845   5851   5852     1  0.0000000  0.6508444  3
   5847   5845   5851   5853     1  0.0000000  0.6508444  3
   5851  10826  10822  10825     1  0.0000000  1.6038667  3
   5852   5851  10826  10822     1  0.0000000  1.6038667  3
   5853   5851  10826  10822     1  0.0000000  1.6038667  3
   5854  10849  10845  10848     1  0.0000000  1.6038667  3
   5855   5854  10849  10845     1  0.0000000  1.6038667  3
   5856   5854  10849  10845     1  0.0000000  1.6038667  3
   5858   5859   5871   5872     1  0.0000000  0.6508444  3
   5858   5859   5871   5873     1  0.0000000  0.6508444  3
   5858   5862   5874   5875     1  0.0000000  0.6508444  3
   5858   5862   5874   5876     1  0.0000000  0.6508444  3
   5858   5865   5868   5869     1  0.0000000  0.6508444  3
   5858   5865   5868   5870     1  0.0000000  0.6508444  3
   5859   5858   5862   5863     1  0.0000000  1.2552000  3
   5859   5858   5862   5864     1  0.0000000  1.2552000  3
   5859   5858   5865   5866     1  0.0000000  1.2552000  3
   5859   5858   5865   5867     1  0.0000000  1.2552000  3
   5859   5871   5883   5884     1  0.0000000  0.6508444  3
   5859   5871   5883   5885     1  0.0000000  0.6508444  3
   5860   5859   5858   5862     1  0.0000000  1.2552000  3
   5860   5859   5858   5865     1  0.0000000  1.2552000  3
   5860   5859   5871   5883     1  0.0000000  0.6508444  3
   5860   5859   5871   5872     1  0.0000000  0.6508444  3
   5860   5859   5871   5873     1  0.0000000  0.6508444  3
   5861   5859   5858   5862     1  0.0000000  1.2552000  3
   5861   5859   5858   5865     1  0.0000000  1.2552000  3
   5861   5859   5871   5883     1  0.0000000  0.6508444  3
   5861   5859   5871   5872     1  0.0000000  0.6508444  3
   5861   5859   5871   5873     1  0.0000000  0.6508444  3
   5862   5858   5865   5866     1  0.0000000  1.2552000  3
   5862   5858   5865   5867     1  0.0000000  1.2552000  3
   5862   5874   5880   5881     1  0.0000000  0.6508444  3
   5862   5874   5880   5882     1  0.0000000  0.6508444  3
   5863   5862   5858   5865     1  0.0000000  1.2552000  3
   5863   5862   5874   5880     1  0.0000000  0.6508444  3
   5863   5862   5874   5875     1  0.0000000  0.6508444  3
   5863   5862   5874   5876     1  0.0000000  0.6508444  3
   5864   5862   5858   5865     1  0.0000000  1.2552000  3
   5864   5862   5874   5880     1  0.0000000  0.6508444  3
   5864   5862   5874   5875     1  0.0000000  0.6508444  3
   5864   5862   5874   5876     1  0.0000000  0.6508444  3
   5865   5868   5877   5878     1  0.0000000  0.6508444  3
   5865   5868   5877   5879     1  0.0000000  0.6508444  3
   5866   5865   5868   5877     1  0.0000000  0.6508444  3
   5866   5865   5868   5869     1  0.0000000  0.6508444  3
   5866   5865   5868   5870     1  0.0000000  0.6508444  3
   5867   5865   5868   5877     1  0.0000000  0.6508444  3
   5867   5865   5868   5869     1  0.0000000  0.6508444  3
   5867   5865   5868   5870     1  0.0000000  0.6508444  3
   5869   5868   5877   5886     1  0.0000000  1.0460000  1
   5869   5868   5877   5886     1  0.0000000  0.0000000  3
   5869   5868   5877   5878     1  0.0000000  0.6508444  3
   5869   5868   5877   5879     1  0.0000000  0.6508444  3
   5870   5868   5877   5886     1  0.0000000  1.0460000  1
   5870   5868   5877   5886     1  0.0000000  0.0000000  3
   5870   5868   5877   5878     1  0.0000000  0.6508444  3
   5870   5868   5877   5879     1  0.0000000  0.6508444  3
   5872   5871   5883  10895     1  0.0000000  1.0460000  1
   5872   5871   5883  10895     1  0.0000000  0.0000000  3
   5872   5871   5883   5884     1  0.0000000  0.6508444  3
   5872   5871   5883   5885     1  0.0000000  0.6508444  3
   5873   5871   5883  10895     1  0.0000000  1.0460000  1
   5873   5871   5883  10895     1  0.0000000  0.0000000  3
   5873   5871   5883   5884     1  0.0000000  0.6508444  3
   5873   5871   5883   5885     1  0.0000000  0.6508444  3
   5875   5874   5880  10872     1  0.0000000  1.0460000  1
   5875   5874   5880  10872     1  0.0000000  0.0000000  3
   5875   5874   5880   5881     1  0.0000000  0.6508444  3
   5875   5874   5880   5882     1  0.0000000  0.6508444  3
   5876   5874   5880  10872     1  0.0000000  1.0460000  1
   5876   5874   5880  10872     1  0.0000000  0.0000000  3
   5876   5874   5880   5881     1  0.0000000  0.6508444  3
   5876   5874   5880   5882     1  0.0000000  0.6508444  3
   5880  10872  10868  10871     1  0.0000000  1.6038667  3
   5881   5880  10872  10868     1  0.0000000  1.6038667  3
   5882   5880  10872  10868     1  0.0000000  1.6038667  3
   5883  10895  10891  10894     1  0.0000000  1.6038667  3
   5884   5883  10895  10891     1  0.0000000  1.6038667  3
   5885   5883  10895  10891     1  0.0000000  1.6038667  3
   5887   5888   5900   5901     1  0.0000000  0.6508444  3
   5887   5888   5900   5902     1  0.0000000  0.6508444  3
   5887   5891   5903   5904     1  0.0000000  0.6508444  3
   5887   5891   5903   5905     1  0.0000000  0.6508444  3
   5887   5894   5897   5898     1  0.0000000  0.6508444  3
   5887   5894   5897   5899     1  0.0000000  0.6508444  3
   5888   5887   5891   5892     1  0.0000000  1.2552000  3
   5888   5887   5891   5893     1  0.0000000  1.2552000  3
   5888   5887   5894   5895     1  0.0000000  1.2552000  3
   5888   5887   5894   5896     1  0.0000000  1.2552000  3
   5888   5900   5912   5913     1  0.0000000  0.6508444  3
   5888   5900   5912   5914     1  0.0000000  0.6508444  3
   5889   5888   5887   5891     1  0.0000000  1.2552000  3
   5889   5888   5887   5894     1  0.0000000  1.2552000  3
   5889   5888   5900   5912     1  0.0000000  0.6508444  3
   5889   5888   5900   5901     1  0.0000000  0.6508444  3
   5889   5888   5900   5902     1  0.0000000  0.6508444  3
   5890   5888   5887   5891     1  0.0000000  1.2552000  3
   5890   5888   5887   5894     1  0.0000000  1.2552000  3
   5890   5888   5900   5912     1  0.0000000  0.6508444  3
   5890   5888   5900   5901     1  0.0000000  0.6508444  3
   5890   5888   5900   5902     1  0.0000000  0.6508444  3
   5891   5887   5894   5895     1  0.0000000  1.2552000  3
   5891   5887   5894   5896     1  0.0000000  1.2552000  3
   5891   5903   5909   5910     1  0.0000000  0.6508444  3
   5891   5903   5909   5911     1  0.0000000  0.6508444  3
   5892   5891   5887   5894     1  0.0000000  1.2552000  3
   5892   5891   5903   5909     1  0.0000000  0.6508444  3
   5892   5891   5903   5904     1  0.0000000  0.6508444  3
   5892   5891   5903   5905     1  0.0000000  0.6508444  3
   5893   5891   5887   5894     1  0.0000000  1.2552000  3
   5893   5891   5903   5909     1  0.0000000  0.6508444  3
   5893   5891   5903   5904     1  0.0000000  0.6508444  3
   5893   5891   5903   5905     1  0.0000000  0.6508444  3
   5894   5897   5906   5907     1  0.0000000  0.6508444  3
   5894   5897   5906   5908     1  0.0000000  0.6508444  3
   5895   5894   5897   5906     1  0.0000000  0.6508444  3
   5895   5894   5897   5898     1  0.0000000  0.6508444  3
   5895   5894   5897   5899     1  0.0000000  0.6508444  3
   5896   5894   5897   5906     1  0.0000000  0.6508444  3
   5896   5894   5897   5898     1  0.0000000  0.6508444  3
   5896   5894   5897   5899     1  0.0000000  0.6508444  3
   5898   5897   5906   5915     1  0.0000000  1.0460000  1
   5898   5897   5906   5915     1  0.0000000  0.0000000  3
   5898   5897   5906   5907     1  0.0000000  0.6508444  3
   5898   5897   5906   5908     1  0.0000000  0.6508444  3
   5899   5897   5906   5915     1  0.0000000  1.0460000  1
   5899   5897   5906   5915     1  0.0000000  0.0000000  3
   5899   5897   5906   5907     1  0.0000000  0.6508444  3
   5899   5897   5906   5908     1  0.0000000  0.6508444  3
   5901   5900   5912  10941     1  0.0000000  1.0460000  1
   5901   5900   5912  10941     1  0.0000000  0.0000000  3
   5901   5900   5912   5913     1  0.0000000  0.6508444  3
   5901   5900   5912   5914     1  0.0000000  0.6508444  3
   5902   5900   5912  10941     1  0.0000000  1.0460000  1
   5902   5900   5912  10941     1  0.0000000  0.0000000  3
   5902   5900   5912   5913     1  0.0000000  0.6508444  3
   5902   5900   5912   5914     1  0.0000000  0.6508444  3
   5904   5903   5909  10918     1  0.0000000  1.0460000  1
   5904   5903   5909  10918     1  0.0000000  0.0000000  3
   5904   5903   5909   5910     1  0.0000000  0.6508444  3
   5904   5903   5909   5911     1  0.0000000  0.6508444  3
   5905   5903   5909  10918     1  0.0000000  1.0460000  1
   5905   5903   5909  10918     1  0.0000000  0.0000000  3
   5905   5903   5909   5910     1  0.0000000  0.6508444  3
   5905   5903   5909   5911     1  0.0000000  0.6508444  3
   5909  10918  10914  10917     1  0.0000000  1.6038667  3
   5910   5909  10918  10914     1  0.0000000  1.6038667  3
   5911   5909  10918  10914     1  0.0000000  1.6038667  3
   5912  10941  10937  10940     1  0.0000000  1.6038667  3
   5913   5912  10941  10937     1  0.0000000  1.6038667  3
   5914   5912  10941  10937     1  0.0000000  1.6038667  3
   5916   5917   5929   5930     1  0.0000000  0.6508444  3
   5916   5917   5929   5931     1  0.0000000  0.6508444  3
   5916   5920   5932   5933     1  0.0000000  0.6508444  3
   5916   5920   5932   5934     1  0.0000000  0.6508444  3
   5916   5923   5926   5927     1  0.0000000  0.6508444  3
   5916   5923   5926   5928     1  0.0000000  0.6508444  3
   5917   5916   5920   5921     1  0.0000000  1.2552000  3
   5917   5916   5920   5922     1  0.0000000  1.2552000  3
   5917   5916   5923   5924     1  0.0000000  1.2552000  3
   5917   5916   5923   5925     1  0.0000000  1.2552000  3
   5917   5929   5941   5942     1  0.0000000  0.6508444  3
   5917   5929   5941   5943     1  0.0000000  0.6508444  3
   5918   5917   5916   5920     1  0.0000000  1.2552000  3
   5918   5917   5916   5923     1  0.0000000  1.2552000  3
   5918   5917   5929   5941     1  0.0000000  0.6508444  3
   5918   5917   5929   5930     1  0.0000000  0.6508444  3
   5918   5917   5929   5931     1  0.0000000  0.6508444  3
   5919   5917   5916   5920     1  0.0000000  1.2552000  3
   5919   5917   5916   5923     1  0.0000000  1.2552000  3
   5919   5917   5929   5941     1  0.0000000  0.6508444  3
   5919   5917   5929   5930     1  0.0000000  0.6508444  3
   5919   5917   5929   5931     1  0.0000000  0.6508444  3
   5920   5916   5923   5924     1  0.0000000  1.2552000  3
   5920   5916   5923   5925     1  0.0000000  1.2552000  3
   5920   5932   5938   5939     1  0.0000000  0.6508444  3
   5920   5932   5938   5940     1  0.0000000  0.6508444  3
   5921   5920   5916   5923     1  0.0000000  1.2552000  3
   5921   5920   5932   5938     1  0.0000000  0.6508444  3
   5921   5920   5932   5933     1  0.0000000  0.6508444  3
   5921   5920   5932   5934     1  0.0000000  0.6508444  3
   5922   5920   5916   5923     1  0.0000000  1.2552000  3
   5922   5920   5932   5938     1  0.0000000  0.6508444  3
   5922   5920   5932   5933     1  0.0000000  0.6508444  3
   5922   5920   5932   5934     1  0.0000000  0.6508444  3
   5923   5926   5935   5936     1  0.0000000  0.6508444  3
   5923   5926   5935   5937     1  0.0000000  0.6508444  3
   5924   5923   5926   5935     1  0.0000000  0.6508444  3
   5924   5923   5926   5927     1  0.0000000  0.6508444  3
   5924   5923   5926   5928     1  0.0000000  0.6508444  3
   5925   5923   5926   5935     1  0.0000000  0.6508444  3
   5925   5923   5926   5927     1  0.0000000  0.6508444  3
   5925   5923   5926   5928     1  0.0000000  0.6508444  3
   5927   5926   5935   5944     1  0.0000000  1.0460000  1
   5927   5926   5935   5944     1  0.0000000  0.0000000  3
   5927   5926   5935   5936     1  0.0000000  0.6508444  3
   5927   5926   5935   5937     1  0.0000000  0.6508444  3
   5928   5926   5935   5944     1  0.0000000  1.0460000  1
   5928   5926   5935   5944     1  0.0000000  0.0000000  3
   5928   5926   5935   5936     1  0.0000000  0.6508444  3
   5928   5926   5935   5937     1  0.0000000  0.6508444  3
   5930   5929   5941  10987     1  0.0000000  1.0460000  1
   5930   5929   5941  10987     1  0.0000000  0.0000000  3
   5930   5929   5941   5942     1  0.0000000  0.6508444  3
   5930   5929   5941   5943     1  0.0000000  0.6508444  3
   5931   5929   5941  10987     1  0.0000000  1.0460000  1
   5931   5929   5941  10987     1  0.0000000  0.0000000  3
   5931   5929   5941   5942     1  0.0000000  0.6508444  3
   5931   5929   5941   5943     1  0.0000000  0.6508444  3
   5933   5932   5938  10964     1  0.0000000  1.0460000  1
   5933   5932   5938  10964     1  0.0000000  0.0000000  3
   5933   5932   5938   5939     1  0.0000000  0.6508444  3
   5933   5932   5938   5940     1  0.0000000  0.6508444  3
   5934   5932   5938  10964     1  0.0000000  1.0460000  1
   5934   5932   5938  10964     1  0.0000000  0.0000000  3
   5934   5932   5938   5939     1  0.0000000  0.6508444  3
   5934   5932   5938   5940     1  0.0000000  0.6508444  3
   5938  10964  10960  10963     1  0.0000000  1.6038667  3
   5939   5938  10964  10960     1  0.0000000  1.6038667  3
   5940   5938  10964  10960     1  0.0000000  1.6038667  3
   5941  10987  10983  10986     1  0.0000000  1.6038667  3
   5942   5941  10987  10983     1  0.0000000  1.6038667  3
   5943   5941  10987  10983     1  0.0000000  1.6038667  3
   5945   5946   5958   5959     1  0.0000000  0.6508444  3
   5945   5946   5958   5960     1  0.0000000  0.6508444  3
   5945   5949   5961   5962     1  0.0000000  0.6508444  3
   5945   5949   5961   5963     1  0.0000000  0.6508444  3
   5945   5952   5955   5956     1  0.0000000  0.6508444  3
   5945   5952   5955   5957     1  0.0000000  0.6508444  3
   5946   5945   5949   5950     1  0.0000000  1.2552000  3
   5946   5945   5949   5951     1  0.0000000  1.2552000  3
   5946   5945   5952   5953     1  0.0000000  1.2552000  3
   5946   5945   5952   5954     1  0.0000000  1.2552000  3
   5946   5958   5970   5971     1  0.0000000  0.6508444  3
   5946   5958   5970   5972     1  0.0000000  0.6508444  3
   5947   5946   5945   5949     1  0.0000000  1.2552000  3
   5947   5946   5945   5952     1  0.0000000  1.2552000  3
   5947   5946   5958   5970     1  0.0000000  0.6508444  3
   5947   5946   5958   5959     1  0.0000000  0.6508444  3
   5947   5946   5958   5960     1  0.0000000  0.6508444  3
   5948   5946   5945   5949     1  0.0000000  1.2552000  3
   5948   5946   5945   5952     1  0.0000000  1.2552000  3
   5948   5946   5958   5970     1  0.0000000  0.6508444  3
   5948   5946   5958   5959     1  0.0000000  0.6508444  3
   5948   5946   5958   5960     1  0.0000000  0.6508444  3
   5949   5945   5952   5953     1  0.0000000  1.2552000  3
   5949   5945   5952   5954     1  0.0000000  1.2552000  3
   5949   5961   5967   5968     1  0.0000000  0.6508444  3
   5949   5961   5967   5969     1  0.0000000  0.6508444  3
   5950   5949   5945   5952     1  0.0000000  1.2552000  3
   5950   5949   5961   5967     1  0.0000000  0.6508444  3
   5950   5949   5961   5962     1  0.0000000  0.6508444  3
   5950   5949   5961   5963     1  0.0000000  0.6508444  3
   5951   5949   5945   5952     1  0.0000000  1.2552000  3
   5951   5949   5961   5967     1  0.0000000  0.6508444  3
   5951   5949   5961   5962     1  0.0000000  0.6508444  3
   5951   5949   5961   5963     1  0.0000000  0.6508444  3
   5952   5955   5964   5965     1  0.0000000  0.6508444  3
   5952   5955   5964   5966     1  0.0000000  0.6508444  3
   5953   5952   5955   5964     1  0.0000000  0.6508444  3
   5953   5952   5955   5956     1  0.0000000  0.6508444  3
   5953   5952   5955   5957     1  0.0000000  0.6508444  3
   5954   5952   5955   5964     1  0.0000000  0.6508444  3
   5954   5952   5955   5956     1  0.0000000  0.6508444  3
   5954   5952   5955   5957     1  0.0000000  0.6508444  3
   5956   5955   5964   5973     1  0.0000000  1.0460000  1
   5956   5955   5964   5973     1  0.0000000  0.0000000  3
   5956   5955   5964   5965     1  0.0000000  0.6508444  3
   5956   5955   5964   5966     1  0.0000000  0.6508444  3
   5957   5955   5964   5973     1  0.0000000  1.0460000  1
   5957   5955   5964   5973     1  0.0000000  0.0000000  3
   5957   5955   5964   5965     1  0.0000000  0.6508444  3
   5957   5955   5964   5966     1  0.0000000  0.6508444  3
   5959   5958   5970  11033     1  0.0000000  1.0460000  1
   5959   5958   5970  11033     1  0.0000000  0.0000000  3
   5959   5958   5970   5971     1  0.0000000  0.6508444  3
   5959   5958   5970   5972     1  0.0000000  0.6508444  3
   5960   5958   5970  11033     1  0.0000000  1.0460000  1
   5960   5958   5970  11033     1  0.0000000  0.0000000  3
   5960   5958   5970   5971     1  0.0000000  0.6508444  3
   5960   5958   5970   5972     1  0.0000000  0.6508444  3
   5962   5961   5967  11010     1  0.0000000  1.0460000  1
   5962   5961   5967  11010     1  0.0000000  0.0000000  3
   5962   5961   5967   5968     1  0.0000000  0.6508444  3
   5962   5961   5967   5969     1  0.0000000  0.6508444  3
   5963   5961   5967  11010     1  0.0000000  1.0460000  1
   5963   5961   5967  11010     1  0.0000000  0.0000000  3
   5963   5961   5967   5968     1  0.0000000  0.6508444  3
   5963   5961   5967   5969     1  0.0000000  0.6508444  3
   5967  11010  11006  11009     1  0.0000000  1.6038667  3
   5968   5967  11010  11006     1  0.0000000  1.6038667  3
   5969   5967  11010  11006     1  0.0000000  1.6038667  3
   5970  11033  11029  11032     1  0.0000000  1.6038667  3
   5971   5970  11033  11029     1  0.0000000  1.6038667  3
   5972   5970  11033  11029     1  0.0000000  1.6038667  3
   5974   5975   5987   5988     1  0.0000000  0.6508444  3
   5974   5975   5987   5989     1  0.0000000  0.6508444  3
   5974   5978   5990   5991     1  0.0000000  0.6508444  3
   5974   5978   5990   5992     1  0.0000000  0.6508444  3
   5974   5981   5984   5985     1  0.0000000  0.6508444  3
   5974   5981   5984   5986     1  0.0000000  0.6508444  3
   5975   5974   5978   5979     1  0.0000000  1.2552000  3
   5975   5974   5978   5980     1  0.0000000  1.2552000  3
   5975   5974   5981   5982     1  0.0000000  1.2552000  3
   5975   5974   5981   5983     1  0.0000000  1.2552000  3
   5975   5987   5999   6000     1  0.0000000  0.6508444  3
   5975   5987   5999   6001     1  0.0000000  0.6508444  3
   5976   5975   5974   5978     1  0.0000000  1.2552000  3
   5976   5975   5974   5981     1  0.0000000  1.2552000  3
   5976   5975   5987   5999     1  0.0000000  0.6508444  3
   5976   5975   5987   5988     1  0.0000000  0.6508444  3
   5976   5975   5987   5989     1  0.0000000  0.6508444  3
   5977   5975   5974   5978     1  0.0000000  1.2552000  3
   5977   5975   5974   5981     1  0.0000000  1.2552000  3
   5977   5975   5987   5999     1  0.0000000  0.6508444  3
   5977   5975   5987   5988     1  0.0000000  0.6508444  3
   5977   5975   5987   5989     1  0.0000000  0.6508444  3
   5978   5974   5981   5982     1  0.0000000  1.2552000  3
   5978   5974   5981   5983     1  0.0000000  1.2552000  3
   5978   5990   5996   5997     1  0.0000000  0.6508444  3
   5978   5990   5996   5998     1  0.0000000  0.6508444  3
   5979   5978   5974   5981     1  0.0000000  1.2552000  3
   5979   5978   5990   5996     1  0.0000000  0.6508444  3
   5979   5978   5990   5991     1  0.0000000  0.6508444  3
   5979   5978   5990   5992     1  0.0000000  0.6508444  3
   5980   5978   5974   5981     1  0.0000000  1.2552000  3
   5980   5978   5990   5996     1  0.0000000  0.6508444  3
   5980   5978   5990   5991     1  0.0000000  0.6508444  3
   5980   5978   5990   5992     1  0.0000000  0.6508444  3
   5981   5984   5993   5994     1  0.0000000  0.6508444  3
   5981   5984   5993   5995     1  0.0000000  0.6508444  3
   5982   5981   5984   5993     1  0.0000000  0.6508444  3
   5982   5981   5984   5985     1  0.0000000  0.6508444  3
   5982   5981   5984   5986     1  0.0000000  0.6508444  3
   5983   5981   5984   5993     1  0.0000000  0.6508444  3
   5983   5981   5984   5985     1  0.0000000  0.6508444  3
   5983   5981   5984   5986     1  0.0000000  0.6508444  3
   5985   5984   5993   6002     1  0.0000000  1.0460000  1
   5985   5984   5993   6002     1  0.0000000  0.0000000  3
   5985   5984   5993   5994     1  0.0000000  0.6508444  3
   5985   5984   5993   5995     1  0.0000000  0.6508444  3
   5986   5984   5993   6002     1  0.0000000  1.0460000  1
   5986   5984   5993   6002     1  0.0000000  0.0000000  3
   5986   5984   5993   5994     1  0.0000000  0.6508444  3
   5986   5984   5993   5995     1  0.0000000  0.6508444  3
   5988   5987   5999  11079     1  0.0000000  1.0460000  1
   5988   5987   5999  11079     1  0.0000000  0.0000000  3
   5988   5987   5999   6000     1  0.0000000  0.6508444  3
   5988   5987   5999   6001     1  0.0000000  0.6508444  3
   5989   5987   5999  11079     1  0.0000000  1.0460000  1
   5989   5987   5999  11079     1  0.0000000  0.0000000  3
   5989   5987   5999   6000     1  0.0000000  0.6508444  3
   5989   5987   5999   6001     1  0.0000000  0.6508444  3
   5991   5990   5996  11056     1  0.0000000  1.0460000  1
   5991   5990   5996  11056     1  0.0000000  0.0000000  3
   5991   5990   5996   5997     1  0.0000000  0.6508444  3
   5991   5990   5996   5998     1  0.0000000  0.6508444  3
   5992   5990   5996  11056     1  0.0000000  1.0460000  1
   5992   5990   5996  11056     1  0.0000000  0.0000000  3
   5992   5990   5996   5997     1  0.0000000  0.6508444  3
   5992   5990   5996   5998     1  0.0000000  0.6508444  3
   5996  11056  11052  11055     1  0.0000000  1.6038667  3
   5997   5996  11056  11052     1  0.0000000  1.6038667  3
   5998   5996  11056  11052     1  0.0000000  1.6038667  3
   5999  11079  11075  11078     1  0.0000000  1.6038667  3
   6000   5999  11079  11075     1  0.0000000  1.6038667  3
   6001   5999  11079  11075     1  0.0000000  1.6038667  3
   6003   6004   6016   6017     1  0.0000000  0.6508444  3
   6003   6004   6016   6018     1  0.0000000  0.6508444  3
   6003   6007   6019   6020     1  0.0000000  0.6508444  3
   6003   6007   6019   6021     1  0.0000000  0.6508444  3
   6003   6010   6013   6014     1  0.0000000  0.6508444  3
   6003   6010   6013   6015     1  0.0000000  0.6508444  3
   6004   6003   6007   6008     1  0.0000000  1.2552000  3
   6004   6003   6007   6009     1  0.0000000  1.2552000  3
   6004   6003   6010   6011     1  0.0000000  1.2552000  3
   6004   6003   6010   6012     1  0.0000000  1.2552000  3
   6004   6016   6028   6029     1  0.0000000  0.6508444  3
   6004   6016   6028   6030     1  0.0000000  0.6508444  3
   6005   6004   6003   6007     1  0.0000000  1.2552000  3
   6005   6004   6003   6010     1  0.0000000  1.2552000  3
   6005   6004   6016   6028     1  0.0000000  0.6508444  3
   6005   6004   6016   6017     1  0.0000000  0.6508444  3
   6005   6004   6016   6018     1  0.0000000  0.6508444  3
   6006   6004   6003   6007     1  0.0000000  1.2552000  3
   6006   6004   6003   6010     1  0.0000000  1.2552000  3
   6006   6004   6016   6028     1  0.0000000  0.6508444  3
   6006   6004   6016   6017     1  0.0000000  0.6508444  3
   6006   6004   6016   6018     1  0.0000000  0.6508444  3
   6007   6003   6010   6011     1  0.0000000  1.2552000  3
   6007   6003   6010   6012     1  0.0000000  1.2552000  3
   6007   6019   6025   6026     1  0.0000000  0.6508444  3
   6007   6019   6025   6027     1  0.0000000  0.6508444  3
   6008   6007   6003   6010     1  0.0000000  1.2552000  3
   6008   6007   6019   6025     1  0.0000000  0.6508444  3
   6008   6007   6019   6020     1  0.0000000  0.6508444  3
   6008   6007   6019   6021     1  0.0000000  0.6508444  3
   6009   6007   6003   6010     1  0.0000000  1.2552000  3
   6009   6007   6019   6025     1  0.0000000  0.6508444  3
   6009   6007   6019   6020     1  0.0000000  0.6508444  3
   6009   6007   6019   6021     1  0.0000000  0.6508444  3
   6010   6013   6022   6023     1  0.0000000  0.6508444  3
   6010   6013   6022   6024     1  0.0000000  0.6508444  3
   6011   6010   6013   6022     1  0.0000000  0.6508444  3
   6011   6010   6013   6014     1  0.0000000  0.6508444  3
   6011   6010   6013   6015     1  0.0000000  0.6508444  3
   6012   6010   6013   6022     1  0.0000000  0.6508444  3
   6012   6010   6013   6014     1  0.0000000  0.6508444  3
   6012   6010   6013   6015     1  0.0000000  0.6508444  3
   6014   6013   6022   6031     1  0.0000000  1.0460000  1
   6014   6013   6022   6031     1  0.0000000  0.0000000  3
   6014   6013   6022   6023     1  0.0000000  0.6508444  3
   6014   6013   6022   6024     1  0.0000000  0.6508444  3
   6015   6013   6022   6031     1  0.0000000  1.0460000  1
   6015   6013   6022   6031     1  0.0000000  0.0000000  3
   6015   6013   6022   6023     1  0.0000000  0.6508444  3
   6015   6013   6022   6024     1  0.0000000  0.6508444  3
   6017   6016   6028  11125     1  0.0000000  1.0460000  1
   6017   6016   6028  11125     1  0.0000000  0.0000000  3
   6017   6016   6028   6029     1  0.0000000  0.6508444  3
   6017   6016   6028   6030     1  0.0000000  0.6508444  3
   6018   6016   6028  11125     1  0.0000000  1.0460000  1
   6018   6016   6028  11125     1  0.0000000  0.0000000  3
   6018   6016   6028   6029     1  0.0000000  0.6508444  3
   6018   6016   6028   6030     1  0.0000000  0.6508444  3
   6020   6019   6025  11102     1  0.0000000  1.0460000  1
   6020   6019   6025  11102     1  0.0000000  0.0000000  3
   6020   6019   6025   6026     1  0.0000000  0.6508444  3
   6020   6019   6025   6027     1  0.0000000  0.6508444  3
   6021   6019   6025  11102     1  0.0000000  1.0460000  1
   6021   6019   6025  11102     1  0.0000000  0.0000000  3
   6021   6019   6025   6026     1  0.0000000  0.6508444  3
   6021   6019   6025   6027     1  0.0000000  0.6508444  3
   6025  11102  11098  11101     1  0.0000000  1.6038667  3
   6026   6025  11102  11098     1  0.0000000  1.6038667  3
   6027   6025  11102  11098     1  0.0000000  1.6038667  3
   6028  11125  11121  11124     1  0.0000000  1.6038667  3
   6029   6028  11125  11121     1  0.0000000  1.6038667  3
   6030   6028  11125  11121     1  0.0000000  1.6038667  3
   6032   6033   6045   6046     1  0.0000000  0.6508444  3
   6032   6033   6045   6047     1  0.0000000  0.6508444  3
   6032   6036   6048   6049     1  0.0000000  0.6508444  3
   6032   6036   6048   6050     1  0.0000000  0.6508444  3
   6032   6039   6042   6043     1  0.0000000  0.6508444  3
   6032   6039   6042   6044     1  0.0000000  0.6508444  3
   6033   6032   6036   6037     1  0.0000000  1.2552000  3
   6033   6032   6036   6038     1  0.0000000  1.2552000  3
   6033   6032   6039   6040     1  0.0000000  1.2552000  3
   6033   6032   6039   6041     1  0.0000000  1.2552000  3
   6033   6045   6057   6058     1  0.0000000  0.6508444  3
   6033   6045   6057   6059     1  0.0000000  0.6508444  3
   6034   6033   6032   6036     1  0.0000000  1.2552000  3
   6034   6033   6032   6039     1  0.0000000  1.2552000  3
   6034   6033   6045   6057     1  0.0000000  0.6508444  3
   6034   6033   6045   6046     1  0.0000000  0.6508444  3
   6034   6033   6045   6047     1  0.0000000  0.6508444  3
   6035   6033   6032   6036     1  0.0000000  1.2552000  3
   6035   6033   6032   6039     1  0.0000000  1.2552000  3
   6035   6033   6045   6057     1  0.0000000  0.6508444  3
   6035   6033   6045   6046     1  0.0000000  0.6508444  3
   6035   6033   6045   6047     1  0.0000000  0.6508444  3
   6036   6032   6039   6040     1  0.0000000  1.2552000  3
   6036   6032   6039   6041     1  0.0000000  1.2552000  3
   6036   6048   6054   6055     1  0.0000000  0.6508444  3
   6036   6048   6054   6056     1  0.0000000  0.6508444  3
   6037   6036   6032   6039     1  0.0000000  1.2552000  3
   6037   6036   6048   6054     1  0.0000000  0.6508444  3
   6037   6036   6048   6049     1  0.0000000  0.6508444  3
   6037   6036   6048   6050     1  0.0000000  0.6508444  3
   6038   6036   6032   6039     1  0.0000000  1.2552000  3
   6038   6036   6048   6054     1  0.0000000  0.6508444  3
   6038   6036   6048   6049     1  0.0000000  0.6508444  3
   6038   6036   6048   6050     1  0.0000000  0.6508444  3
   6039   6042   6051   6052     1  0.0000000  0.6508444  3
   6039   6042   6051   6053     1  0.0000000  0.6508444  3
   6040   6039   6042   6051     1  0.0000000  0.6508444  3
   6040   6039   6042   6043     1  0.0000000  0.6508444  3
   6040   6039   6042   6044     1  0.0000000  0.6508444  3
   6041   6039   6042   6051     1  0.0000000  0.6508444  3
   6041   6039   6042   6043     1  0.0000000  0.6508444  3
   6041   6039   6042   6044     1  0.0000000  0.6508444  3
   6043   6042   6051   6060     1  0.0000000  1.0460000  1
   6043   6042   6051   6060     1  0.0000000  0.0000000  3
   6043   6042   6051   6052     1  0.0000000  0.6508444  3
   6043   6042   6051   6053     1  0.0000000  0.6508444  3
   6044   6042   6051   6060     1  0.0000000  1.0460000  1
   6044   6042   6051   6060     1  0.0000000  0.0000000  3
   6044   6042   6051   6052     1  0.0000000  0.6508444  3
   6044   6042   6051   6053     1  0.0000000  0.6508444  3
   6046   6045   6057  11171     1  0.0000000  1.0460000  1
   6046   6045   6057  11171     1  0.0000000  0.0000000  3
   6046   6045   6057   6058     1  0.0000000  0.6508444  3
   6046   6045   6057   6059     1  0.0000000  0.6508444  3
   6047   6045   6057  11171     1  0.0000000  1.0460000  1
   6047   6045   6057  11171     1  0.0000000  0.0000000  3
   6047   6045   6057   6058     1  0.0000000  0.6508444  3
   6047   6045   6057   6059     1  0.0000000  0.6508444  3
   6049   6048   6054  11148     1  0.0000000  1.0460000  1
   6049   6048   6054  11148     1  0.0000000  0.0000000  3
   6049   6048   6054   6055     1  0.0000000  0.6508444  3
   6049   6048   6054   6056     1  0.0000000  0.6508444  3
   6050   6048   6054  11148     1  0.0000000  1.0460000  1
   6050   6048   6054  11148     1  0.0000000  0.0000000  3
   6050   6048   6054   6055     1  0.0000000  0.6508444  3
   6050   6048   6054   6056     1  0.0000000  0.6508444  3
   6054  11148  11144  11147     1  0.0000000  1.6038667  3
   6055   6054  11148  11144     1  0.0000000  1.6038667  3
   6056   6054  11148  11144     1  0.0000000  1.6038667  3
   6057  11171  11167  11170     1  0.0000000  1.6038667  3
   6058   6057  11171  11167     1  0.0000000  1.6038667  3
   6059   6057  11171  11167     1  0.0000000  1.6038667  3
   6061   6062   6074   6075     1  0.0000000  0.6508444  3
   6061   6062   6074   6076     1  0.0000000  0.6508444  3
   6061   6065   6077   6078     1  0.0000000  0.6508444  3
   6061   6065   6077   6079     1  0.0000000  0.6508444  3
   6061   6068   6071   6072     1  0.0000000  0.6508444  3
   6061   6068   6071   6073     1  0.0000000  0.6508444  3
   6062   6061   6065   6066     1  0.0000000  1.2552000  3
   6062   6061   6065   6067     1  0.0000000  1.2552000  3
   6062   6061   6068   6069     1  0.0000000  1.2552000  3
   6062   6061   6068   6070     1  0.0000000  1.2552000  3
   6062   6074   6086   6087     1  0.0000000  0.6508444  3
   6062   6074   6086   6088     1  0.0000000  0.6508444  3
   6063   6062   6061   6065     1  0.0000000  1.2552000  3
   6063   6062   6061   6068     1  0.0000000  1.2552000  3
   6063   6062   6074   6086     1  0.0000000  0.6508444  3
   6063   6062   6074   6075     1  0.0000000  0.6508444  3
   6063   6062   6074   6076     1  0.0000000  0.6508444  3
   6064   6062   6061   6065     1  0.0000000  1.2552000  3
   6064   6062   6061   6068     1  0.0000000  1.2552000  3
   6064   6062   6074   6086     1  0.0000000  0.6508444  3
   6064   6062   6074   6075     1  0.0000000  0.6508444  3
   6064   6062   6074   6076     1  0.0000000  0.6508444  3
   6065   6061   6068   6069     1  0.0000000  1.2552000  3
   6065   6061   6068   6070     1  0.0000000  1.2552000  3
   6065   6077   6083   6084     1  0.0000000  0.6508444  3
   6065   6077   6083   6085     1  0.0000000  0.6508444  3
   6066   6065   6061   6068     1  0.0000000  1.2552000  3
   6066   6065   6077   6083     1  0.0000000  0.6508444  3
   6066   6065   6077   6078     1  0.0000000  0.6508444  3
   6066   6065   6077   6079     1  0.0000000  0.6508444  3
   6067   6065   6061   6068     1  0.0000000  1.2552000  3
   6067   6065   6077   6083     1  0.0000000  0.6508444  3
   6067   6065   6077   6078     1  0.0000000  0.6508444  3
   6067   6065   6077   6079     1  0.0000000  0.6508444  3
   6068   6071   6080   6081     1  0.0000000  0.6508444  3
   6068   6071   6080   6082     1  0.0000000  0.6508444  3
   6069   6068   6071   6080     1  0.0000000  0.6508444  3
   6069   6068   6071   6072     1  0.0000000  0.6508444  3
   6069   6068   6071   6073     1  0.0000000  0.6508444  3
   6070   6068   6071   6080     1  0.0000000  0.6508444  3
   6070   6068   6071   6072     1  0.0000000  0.6508444  3
   6070   6068   6071   6073     1  0.0000000  0.6508444  3
   6072   6071   6080   6089     1  0.0000000  1.0460000  1
   6072   6071   6080   6089     1  0.0000000  0.0000000  3
   6072   6071   6080   6081     1  0.0000000  0.6508444  3
   6072   6071   6080   6082     1  0.0000000  0.6508444  3
   6073   6071   6080   6089     1  0.0000000  1.0460000  1
   6073   6071   6080   6089     1  0.0000000  0.0000000  3
   6073   6071   6080   6081     1  0.0000000  0.6508444  3
   6073   6071   6080   6082     1  0.0000000  0.6508444  3
   6075   6074   6086  11217     1  0.0000000  1.0460000  1
   6075   6074   6086  11217     1  0.0000000  0.0000000  3
   6075   6074   6086   6087     1  0.0000000  0.6508444  3
   6075   6074   6086   6088     1  0.0000000  0.6508444  3
   6076   6074   6086  11217     1  0.0000000  1.0460000  1
   6076   6074   6086  11217     1  0.0000000  0.0000000  3
   6076   6074   6086   6087     1  0.0000000  0.6508444  3
   6076   6074   6086   6088     1  0.0000000  0.6508444  3
   6078   6077   6083  11194     1  0.0000000  1.0460000  1
   6078   6077   6083  11194     1  0.0000000  0.0000000  3
   6078   6077   6083   6084     1  0.0000000  0.6508444  3
   6078   6077   6083   6085     1  0.0000000  0.6508444  3
   6079   6077   6083  11194     1  0.0000000  1.0460000  1
   6079   6077   6083  11194     1  0.0000000  0.0000000  3
   6079   6077   6083   6084     1  0.0000000  0.6508444  3
   6079   6077   6083   6085     1  0.0000000  0.6508444  3
   6083  11194  11190  11193     1  0.0000000  1.6038667  3
   6084   6083  11194  11190     1  0.0000000  1.6038667  3
   6085   6083  11194  11190     1  0.0000000  1.6038667  3
   6086  11217  11213  11216     1  0.0000000  1.6038667  3
   6087   6086  11217  11213     1  0.0000000  1.6038667  3
   6088   6086  11217  11213     1  0.0000000  1.6038667  3
   6090   6091   6103   6104     1  0.0000000  0.6508444  3
   6090   6091   6103   6105     1  0.0000000  0.6508444  3
   6090   6094   6106   6107     1  0.0000000  0.6508444  3
   6090   6094   6106   6108     1  0.0000000  0.6508444  3
   6090   6097   6100   6101     1  0.0000000  0.6508444  3
   6090   6097   6100   6102     1  0.0000000  0.6508444  3
   6091   6090   6094   6095     1  0.0000000  1.2552000  3
   6091   6090   6094   6096     1  0.0000000  1.2552000  3
   6091   6090   6097   6098     1  0.0000000  1.2552000  3
   6091   6090   6097   6099     1  0.0000000  1.2552000  3
   6091   6103   6115   6116     1  0.0000000  0.6508444  3
   6091   6103   6115   6117     1  0.0000000  0.6508444  3
   6092   6091   6090   6094     1  0.0000000  1.2552000  3
   6092   6091   6090   6097     1  0.0000000  1.2552000  3
   6092   6091   6103   6115     1  0.0000000  0.6508444  3
   6092   6091   6103   6104     1  0.0000000  0.6508444  3
   6092   6091   6103   6105     1  0.0000000  0.6508444  3
   6093   6091   6090   6094     1  0.0000000  1.2552000  3
   6093   6091   6090   6097     1  0.0000000  1.2552000  3
   6093   6091   6103   6115     1  0.0000000  0.6508444  3
   6093   6091   6103   6104     1  0.0000000  0.6508444  3
   6093   6091   6103   6105     1  0.0000000  0.6508444  3
   6094   6090   6097   6098     1  0.0000000  1.2552000  3
   6094   6090   6097   6099     1  0.0000000  1.2552000  3
   6094   6106   6112   6113     1  0.0000000  0.6508444  3
   6094   6106   6112   6114     1  0.0000000  0.6508444  3
   6095   6094   6090   6097     1  0.0000000  1.2552000  3
   6095   6094   6106   6112     1  0.0000000  0.6508444  3
   6095   6094   6106   6107     1  0.0000000  0.6508444  3
   6095   6094   6106   6108     1  0.0000000  0.6508444  3
   6096   6094   6090   6097     1  0.0000000  1.2552000  3
   6096   6094   6106   6112     1  0.0000000  0.6508444  3
   6096   6094   6106   6107     1  0.0000000  0.6508444  3
   6096   6094   6106   6108     1  0.0000000  0.6508444  3
   6097   6100   6109   6110     1  0.0000000  0.6508444  3
   6097   6100   6109   6111     1  0.0000000  0.6508444  3
   6098   6097   6100   6109     1  0.0000000  0.6508444  3
   6098   6097   6100   6101     1  0.0000000  0.6508444  3
   6098   6097   6100   6102     1  0.0000000  0.6508444  3
   6099   6097   6100   6109     1  0.0000000  0.6508444  3
   6099   6097   6100   6101     1  0.0000000  0.6508444  3
   6099   6097   6100   6102     1  0.0000000  0.6508444  3
   6101   6100   6109   6118     1  0.0000000  1.0460000  1
   6101   6100   6109   6118     1  0.0000000  0.0000000  3
   6101   6100   6109   6110     1  0.0000000  0.6508444  3
   6101   6100   6109   6111     1  0.0000000  0.6508444  3
   6102   6100   6109   6118     1  0.0000000  1.0460000  1
   6102   6100   6109   6118     1  0.0000000  0.0000000  3
   6102   6100   6109   6110     1  0.0000000  0.6508444  3
   6102   6100   6109   6111     1  0.0000000  0.6508444  3
   6104   6103   6115  11263     1  0.0000000  1.0460000  1
   6104   6103   6115  11263     1  0.0000000  0.0000000  3
   6104   6103   6115   6116     1  0.0000000  0.6508444  3
   6104   6103   6115   6117     1  0.0000000  0.6508444  3
   6105   6103   6115  11263     1  0.0000000  1.0460000  1
   6105   6103   6115  11263     1  0.0000000  0.0000000  3
   6105   6103   6115   6116     1  0.0000000  0.6508444  3
   6105   6103   6115   6117     1  0.0000000  0.6508444  3
   6107   6106   6112  11240     1  0.0000000  1.0460000  1
   6107   6106   6112  11240     1  0.0000000  0.0000000  3
   6107   6106   6112   6113     1  0.0000000  0.6508444  3
   6107   6106   6112   6114     1  0.0000000  0.6508444  3
   6108   6106   6112  11240     1  0.0000000  1.0460000  1
   6108   6106   6112  11240     1  0.0000000  0.0000000  3
   6108   6106   6112   6113     1  0.0000000  0.6508444  3
   6108   6106   6112   6114     1  0.0000000  0.6508444  3
   6112  11240  11236  11239     1  0.0000000  1.6038667  3
   6113   6112  11240  11236     1  0.0000000  1.6038667  3
   6114   6112  11240  11236     1  0.0000000  1.6038667  3
   6115  11263  11259  11262     1  0.0000000  1.6038667  3
   6116   6115  11263  11259     1  0.0000000  1.6038667  3
   6117   6115  11263  11259     1  0.0000000  1.6038667  3
   6119   6120   6132   6133     1  0.0000000  0.6508444  3
   6119   6120   6132   6134     1  0.0000000  0.6508444  3
   6119   6123   6135   6136     1  0.0000000  0.6508444  3
   6119   6123   6135   6137     1  0.0000000  0.6508444  3
   6119   6126   6129   6130     1  0.0000000  0.6508444  3
   6119   6126   6129   6131     1  0.0000000  0.6508444  3
   6120   6119   6123   6124     1  0.0000000  1.2552000  3
   6120   6119   6123   6125     1  0.0000000  1.2552000  3
   6120   6119   6126   6127     1  0.0000000  1.2552000  3
   6120   6119   6126   6128     1  0.0000000  1.2552000  3
   6120   6132   6144   6145     1  0.0000000  0.6508444  3
   6120   6132   6144   6146     1  0.0000000  0.6508444  3
   6121   6120   6119   6123     1  0.0000000  1.2552000  3
   6121   6120   6119   6126     1  0.0000000  1.2552000  3
   6121   6120   6132   6144     1  0.0000000  0.6508444  3
   6121   6120   6132   6133     1  0.0000000  0.6508444  3
   6121   6120   6132   6134     1  0.0000000  0.6508444  3
   6122   6120   6119   6123     1  0.0000000  1.2552000  3
   6122   6120   6119   6126     1  0.0000000  1.2552000  3
   6122   6120   6132   6144     1  0.0000000  0.6508444  3
   6122   6120   6132   6133     1  0.0000000  0.6508444  3
   6122   6120   6132   6134     1  0.0000000  0.6508444  3
   6123   6119   6126   6127     1  0.0000000  1.2552000  3
   6123   6119   6126   6128     1  0.0000000  1.2552000  3
   6123   6135   6141   6142     1  0.0000000  0.6508444  3
   6123   6135   6141   6143     1  0.0000000  0.6508444  3
   6124   6123   6119   6126     1  0.0000000  1.2552000  3
   6124   6123   6135   6141     1  0.0000000  0.6508444  3
   6124   6123   6135   6136     1  0.0000000  0.6508444  3
   6124   6123   6135   6137     1  0.0000000  0.6508444  3
   6125   6123   6119   6126     1  0.0000000  1.2552000  3
   6125   6123   6135   6141     1  0.0000000  0.6508444  3
   6125   6123   6135   6136     1  0.0000000  0.6508444  3
   6125   6123   6135   6137     1  0.0000000  0.6508444  3
   6126   6129   6138   6139     1  0.0000000  0.6508444  3
   6126   6129   6138   6140     1  0.0000000  0.6508444  3
   6127   6126   6129   6138     1  0.0000000  0.6508444  3
   6127   6126   6129   6130     1  0.0000000  0.6508444  3
   6127   6126   6129   6131     1  0.0000000  0.6508444  3
   6128   6126   6129   6138     1  0.0000000  0.6508444  3
   6128   6126   6129   6130     1  0.0000000  0.6508444  3
   6128   6126   6129   6131     1  0.0000000  0.6508444  3
   6130   6129   6138   6147     1  0.0000000  1.0460000  1
   6130   6129   6138   6147     1  0.0000000  0.0000000  3
   6130   6129   6138   6139     1  0.0000000  0.6508444  3
   6130   6129   6138   6140     1  0.0000000  0.6508444  3
   6131   6129   6138   6147     1  0.0000000  1.0460000  1
   6131   6129   6138   6147     1  0.0000000  0.0000000  3
   6131   6129   6138   6139     1  0.0000000  0.6508444  3
   6131   6129   6138   6140     1  0.0000000  0.6508444  3
   6133   6132   6144  11309     1  0.0000000  1.0460000  1
   6133   6132   6144  11309     1  0.0000000  0.0000000  3
   6133   6132   6144   6145     1  0.0000000  0.6508444  3
   6133   6132   6144   6146     1  0.0000000  0.6508444  3
   6134   6132   6144  11309     1  0.0000000  1.0460000  1
   6134   6132   6144  11309     1  0.0000000  0.0000000  3
   6134   6132   6144   6145     1  0.0000000  0.6508444  3
   6134   6132   6144   6146     1  0.0000000  0.6508444  3
   6136   6135   6141  11286     1  0.0000000  1.0460000  1
   6136   6135   6141  11286     1  0.0000000  0.0000000  3
   6136   6135   6141   6142     1  0.0000000  0.6508444  3
   6136   6135   6141   6143     1  0.0000000  0.6508444  3
   6137   6135   6141  11286     1  0.0000000  1.0460000  1
   6137   6135   6141  11286     1  0.0000000  0.0000000  3
   6137   6135   6141   6142     1  0.0000000  0.6508444  3
   6137   6135   6141   6143     1  0.0000000  0.6508444  3
   6141  11286  11282  11285     1  0.0000000  1.6038667  3
   6142   6141  11286  11282     1  0.0000000  1.6038667  3
   6143   6141  11286  11282     1  0.0000000  1.6038667  3
   6144  11309  11305  11308     1  0.0000000  1.6038667  3
   6145   6144  11309  11305     1  0.0000000  1.6038667  3
   6146   6144  11309  11305     1  0.0000000  1.6038667  3
   6148   6149   6161   6162     1  0.0000000  0.6508444  3
   6148   6149   6161   6163     1  0.0000000  0.6508444  3
   6148   6152   6164   6165     1  0.0000000  0.6508444  3
   6148   6152   6164   6166     1  0.0000000  0.6508444  3
   6148   6155   6158   6159     1  0.0000000  0.6508444  3
   6148   6155   6158   6160     1  0.0000000  0.6508444  3
   6149   6148   6152   6153     1  0.0000000  1.2552000  3
   6149   6148   6152   6154     1  0.0000000  1.2552000  3
   6149   6148   6155   6156     1  0.0000000  1.2552000  3
   6149   6148   6155   6157     1  0.0000000  1.2552000  3
   6149   6161   6173   6174     1  0.0000000  0.6508444  3
   6149   6161   6173   6175     1  0.0000000  0.6508444  3
   6150   6149   6148   6152     1  0.0000000  1.2552000  3
   6150   6149   6148   6155     1  0.0000000  1.2552000  3
   6150   6149   6161   6173     1  0.0000000  0.6508444  3
   6150   6149   6161   6162     1  0.0000000  0.6508444  3
   6150   6149   6161   6163     1  0.0000000  0.6508444  3
   6151   6149   6148   6152     1  0.0000000  1.2552000  3
   6151   6149   6148   6155     1  0.0000000  1.2552000  3
   6151   6149   6161   6173     1  0.0000000  0.6508444  3
   6151   6149   6161   6162     1  0.0000000  0.6508444  3
   6151   6149   6161   6163     1  0.0000000  0.6508444  3
   6152   6148   6155   6156     1  0.0000000  1.2552000  3
   6152   6148   6155   6157     1  0.0000000  1.2552000  3
   6152   6164   6170   6171     1  0.0000000  0.6508444  3
   6152   6164   6170   6172     1  0.0000000  0.6508444  3
   6153   6152   6148   6155     1  0.0000000  1.2552000  3
   6153   6152   6164   6170     1  0.0000000  0.6508444  3
   6153   6152   6164   6165     1  0.0000000  0.6508444  3
   6153   6152   6164   6166     1  0.0000000  0.6508444  3
   6154   6152   6148   6155     1  0.0000000  1.2552000  3
   6154   6152   6164   6170     1  0.0000000  0.6508444  3
   6154   6152   6164   6165     1  0.0000000  0.6508444  3
   6154   6152   6164   6166     1  0.0000000  0.6508444  3
   6155   6158   6167   6168     1  0.0000000  0.6508444  3
   6155   6158   6167   6169     1  0.0000000  0.6508444  3
   6156   6155   6158   6167     1  0.0000000  0.6508444  3
   6156   6155   6158   6159     1  0.0000000  0.6508444  3
   6156   6155   6158   6160     1  0.0000000  0.6508444  3
   6157   6155   6158   6167     1  0.0000000  0.6508444  3
   6157   6155   6158   6159     1  0.0000000  0.6508444  3
   6157   6155   6158   6160     1  0.0000000  0.6508444  3
   6159   6158   6167   6176     1  0.0000000  1.0460000  1
   6159   6158   6167   6176     1  0.0000000  0.0000000  3
   6159   6158   6167   6168     1  0.0000000  0.6508444  3
   6159   6158   6167   6169     1  0.0000000  0.6508444  3
   6160   6158   6167   6176     1  0.0000000  1.0460000  1
   6160   6158   6167   6176     1  0.0000000  0.0000000  3
   6160   6158   6167   6168     1  0.0000000  0.6508444  3
   6160   6158   6167   6169     1  0.0000000  0.6508444  3
   6162   6161   6173  11355     1  0.0000000  1.0460000  1
   6162   6161   6173  11355     1  0.0000000  0.0000000  3
   6162   6161   6173   6174     1  0.0000000  0.6508444  3
   6162   6161   6173   6175     1  0.0000000  0.6508444  3
   6163   6161   6173  11355     1  0.0000000  1.0460000  1
   6163   6161   6173  11355     1  0.0000000  0.0000000  3
   6163   6161   6173   6174     1  0.0000000  0.6508444  3
   6163   6161   6173   6175     1  0.0000000  0.6508444  3
   6165   6164   6170  11332     1  0.0000000  1.0460000  1
   6165   6164   6170  11332     1  0.0000000  0.0000000  3
   6165   6164   6170   6171     1  0.0000000  0.6508444  3
   6165   6164   6170   6172     1  0.0000000  0.6508444  3
   6166   6164   6170  11332     1  0.0000000  1.0460000  1
   6166   6164   6170  11332     1  0.0000000  0.0000000  3
   6166   6164   6170   6171     1  0.0000000  0.6508444  3
   6166   6164   6170   6172     1  0.0000000  0.6508444  3
   6170  11332  11328  11331     1  0.0000000  1.6038667  3
   6171   6170  11332  11328     1  0.0000000  1.6038667  3
   6172   6170  11332  11328     1  0.0000000  1.6038667  3
   6173  11355  11351  11354     1  0.0000000  1.6038667  3
   6174   6173  11355  11351     1  0.0000000  1.6038667  3
   6175   6173  11355  11351     1  0.0000000  1.6038667  3
   6177   6178   6190   6191     1  0.0000000  0.6508444  3
   6177   6178   6190   6192     1  0.0000000  0.6508444  3
   6177   6181   6193   6194     1  0.0000000  0.6508444  3
   6177   6181   6193   6195     1  0.0000000  0.6508444  3
   6177   6184   6187   6188     1  0.0000000  0.6508444  3
   6177   6184   6187   6189     1  0.0000000  0.6508444  3
   6178   6177   6181   6182     1  0.0000000  1.2552000  3
   6178   6177   6181   6183     1  0.0000000  1.2552000  3
   6178   6177   6184   6185     1  0.0000000  1.2552000  3
   6178   6177   6184   6186     1  0.0000000  1.2552000  3
   6178   6190   6202   6203     1  0.0000000  0.6508444  3
   6178   6190   6202   6204     1  0.0000000  0.6508444  3
   6179   6178   6177   6181     1  0.0000000  1.2552000  3
   6179   6178   6177   6184     1  0.0000000  1.2552000  3
   6179   6178   6190   6202     1  0.0000000  0.6508444  3
   6179   6178   6190   6191     1  0.0000000  0.6508444  3
   6179   6178   6190   6192     1  0.0000000  0.6508444  3
   6180   6178   6177   6181     1  0.0000000  1.2552000  3
   6180   6178   6177   6184     1  0.0000000  1.2552000  3
   6180   6178   6190   6202     1  0.0000000  0.6508444  3
   6180   6178   6190   6191     1  0.0000000  0.6508444  3
   6180   6178   6190   6192     1  0.0000000  0.6508444  3
   6181   6177   6184   6185     1  0.0000000  1.2552000  3
   6181   6177   6184   6186     1  0.0000000  1.2552000  3
   6181   6193   6199   6200     1  0.0000000  0.6508444  3
   6181   6193   6199   6201     1  0.0000000  0.6508444  3
   6182   6181   6177   6184     1  0.0000000  1.2552000  3
   6182   6181   6193   6199     1  0.0000000  0.6508444  3
   6182   6181   6193   6194     1  0.0000000  0.6508444  3
   6182   6181   6193   6195     1  0.0000000  0.6508444  3
   6183   6181   6177   6184     1  0.0000000  1.2552000  3
   6183   6181   6193   6199     1  0.0000000  0.6508444  3
   6183   6181   6193   6194     1  0.0000000  0.6508444  3
   6183   6181   6193   6195     1  0.0000000  0.6508444  3
   6184   6187   6196   6197     1  0.0000000  0.6508444  3
   6184   6187   6196   6198     1  0.0000000  0.6508444  3
   6185   6184   6187   6196     1  0.0000000  0.6508444  3
   6185   6184   6187   6188     1  0.0000000  0.6508444  3
   6185   6184   6187   6189     1  0.0000000  0.6508444  3
   6186   6184   6187   6196     1  0.0000000  0.6508444  3
   6186   6184   6187   6188     1  0.0000000  0.6508444  3
   6186   6184   6187   6189     1  0.0000000  0.6508444  3
   6188   6187   6196   6205     1  0.0000000  1.0460000  1
   6188   6187   6196   6205     1  0.0000000  0.0000000  3
   6188   6187   6196   6197     1  0.0000000  0.6508444  3
   6188   6187   6196   6198     1  0.0000000  0.6508444  3
   6189   6187   6196   6205     1  0.0000000  1.0460000  1
   6189   6187   6196   6205     1  0.0000000  0.0000000  3
   6189   6187   6196   6197     1  0.0000000  0.6508444  3
   6189   6187   6196   6198     1  0.0000000  0.6508444  3
   6191   6190   6202  11401     1  0.0000000  1.0460000  1
   6191   6190   6202  11401     1  0.0000000  0.0000000  3
   6191   6190   6202   6203     1  0.0000000  0.6508444  3
   6191   6190   6202   6204     1  0.0000000  0.6508444  3
   6192   6190   6202  11401     1  0.0000000  1.0460000  1
   6192   6190   6202  11401     1  0.0000000  0.0000000  3
   6192   6190   6202   6203     1  0.0000000  0.6508444  3
   6192   6190   6202   6204     1  0.0000000  0.6508444  3
   6194   6193   6199  11378     1  0.0000000  1.0460000  1
   6194   6193   6199  11378     1  0.0000000  0.0000000  3
   6194   6193   6199   6200     1  0.0000000  0.6508444  3
   6194   6193   6199   6201     1  0.0000000  0.6508444  3
   6195   6193   6199  11378     1  0.0000000  1.0460000  1
   6195   6193   6199  11378     1  0.0000000  0.0000000  3
   6195   6193   6199   6200     1  0.0000000  0.6508444  3
   6195   6193   6199   6201     1  0.0000000  0.6508444  3
   6199  11378  11374  11377     1  0.0000000  1.6038667  3
   6200   6199  11378  11374     1  0.0000000  1.6038667  3
   6201   6199  11378  11374     1  0.0000000  1.6038667  3
   6202  11401  11397  11400     1  0.0000000  1.6038667  3
   6203   6202  11401  11397     1  0.0000000  1.6038667  3
   6204   6202  11401  11397     1  0.0000000  1.6038667  3
   6206   6207   6219   6220     1  0.0000000  0.6508444  3
   6206   6207   6219   6221     1  0.0000000  0.6508444  3
   6206   6210   6222   6223     1  0.0000000  0.6508444  3
   6206   6210   6222   6224     1  0.0000000  0.6508444  3
   6206   6213   6216   6217     1  0.0000000  0.6508444  3
   6206   6213   6216   6218     1  0.0000000  0.6508444  3
   6207   6206   6210   6211     1  0.0000000  1.2552000  3
   6207   6206   6210   6212     1  0.0000000  1.2552000  3
   6207   6206   6213   6214     1  0.0000000  1.2552000  3
   6207   6206   6213   6215     1  0.0000000  1.2552000  3
   6207   6219   6231   6232     1  0.0000000  0.6508444  3
   6207   6219   6231   6233     1  0.0000000  0.6508444  3
   6208   6207   6206   6210     1  0.0000000  1.2552000  3
   6208   6207   6206   6213     1  0.0000000  1.2552000  3
   6208   6207   6219   6231     1  0.0000000  0.6508444  3
   6208   6207   6219   6220     1  0.0000000  0.6508444  3
   6208   6207   6219   6221     1  0.0000000  0.6508444  3
   6209   6207   6206   6210     1  0.0000000  1.2552000  3
   6209   6207   6206   6213     1  0.0000000  1.2552000  3
   6209   6207   6219   6231     1  0.0000000  0.6508444  3
   6209   6207   6219   6220     1  0.0000000  0.6508444  3
   6209   6207   6219   6221     1  0.0000000  0.6508444  3
   6210   6206   6213   6214     1  0.0000000  1.2552000  3
   6210   6206   6213   6215     1  0.0000000  1.2552000  3
   6210   6222   6228   6229     1  0.0000000  0.6508444  3
   6210   6222   6228   6230     1  0.0000000  0.6508444  3
   6211   6210   6206   6213     1  0.0000000  1.2552000  3
   6211   6210   6222   6228     1  0.0000000  0.6508444  3
   6211   6210   6222   6223     1  0.0000000  0.6508444  3
   6211   6210   6222   6224     1  0.0000000  0.6508444  3
   6212   6210   6206   6213     1  0.0000000  1.2552000  3
   6212   6210   6222   6228     1  0.0000000  0.6508444  3
   6212   6210   6222   6223     1  0.0000000  0.6508444  3
   6212   6210   6222   6224     1  0.0000000  0.6508444  3
   6213   6216   6225   6226     1  0.0000000  0.6508444  3
   6213   6216   6225   6227     1  0.0000000  0.6508444  3
   6214   6213   6216   6225     1  0.0000000  0.6508444  3
   6214   6213   6216   6217     1  0.0000000  0.6508444  3
   6214   6213   6216   6218     1  0.0000000  0.6508444  3
   6215   6213   6216   6225     1  0.0000000  0.6508444  3
   6215   6213   6216   6217     1  0.0000000  0.6508444  3
   6215   6213   6216   6218     1  0.0000000  0.6508444  3
   6217   6216   6225   6234     1  0.0000000  1.0460000  1
   6217   6216   6225   6234     1  0.0000000  0.0000000  3
   6217   6216   6225   6226     1  0.0000000  0.6508444  3
   6217   6216   6225   6227     1  0.0000000  0.6508444  3
   6218   6216   6225   6234     1  0.0000000  1.0460000  1
   6218   6216   6225   6234     1  0.0000000  0.0000000  3
   6218   6216   6225   6226     1  0.0000000  0.6508444  3
   6218   6216   6225   6227     1  0.0000000  0.6508444  3
   6220   6219   6231  11447     1  0.0000000  1.0460000  1
   6220   6219   6231  11447     1  0.0000000  0.0000000  3
   6220   6219   6231   6232     1  0.0000000  0.6508444  3
   6220   6219   6231   6233     1  0.0000000  0.6508444  3
   6221   6219   6231  11447     1  0.0000000  1.0460000  1
   6221   6219   6231  11447     1  0.0000000  0.0000000  3
   6221   6219   6231   6232     1  0.0000000  0.6508444  3
   6221   6219   6231   6233     1  0.0000000  0.6508444  3
   6223   6222   6228  11424     1  0.0000000  1.0460000  1
   6223   6222   6228  11424     1  0.0000000  0.0000000  3
   6223   6222   6228   6229     1  0.0000000  0.6508444  3
   6223   6222   6228   6230     1  0.0000000  0.6508444  3
   6224   6222   6228  11424     1  0.0000000  1.0460000  1
   6224   6222   6228  11424     1  0.0000000  0.0000000  3
   6224   6222   6228   6229     1  0.0000000  0.6508444  3
   6224   6222   6228   6230     1  0.0000000  0.6508444  3
   6228  11424  11420  11423     1  0.0000000  1.6038667  3
   6229   6228  11424  11420     1  0.0000000  1.6038667  3
   6230   6228  11424  11420     1  0.0000000  1.6038667  3
   6231  11447  11443  11446     1  0.0000000  1.6038667  3
   6232   6231  11447  11443     1  0.0000000  1.6038667  3
   6233   6231  11447  11443     1  0.0000000  1.6038667  3
   6235   6236   6248   6249     1  0.0000000  0.6508444  3
   6235   6236   6248   6250     1  0.0000000  0.6508444  3
   6235   6239   6251   6252     1  0.0000000  0.6508444  3
   6235   6239   6251   6253     1  0.0000000  0.6508444  3
   6235   6242   6245   6246     1  0.0000000  0.6508444  3
   6235   6242   6245   6247     1  0.0000000  0.6508444  3
   6236   6235   6239   6240     1  0.0000000  1.2552000  3
   6236   6235   6239   6241     1  0.0000000  1.2552000  3
   6236   6235   6242   6243     1  0.0000000  1.2552000  3
   6236   6235   6242   6244     1  0.0000000  1.2552000  3
   6236   6248   6260   6261     1  0.0000000  0.6508444  3
   6236   6248   6260   6262     1  0.0000000  0.6508444  3
   6237   6236   6235   6239     1  0.0000000  1.2552000  3
   6237   6236   6235   6242     1  0.0000000  1.2552000  3
   6237   6236   6248   6260     1  0.0000000  0.6508444  3
   6237   6236   6248   6249     1  0.0000000  0.6508444  3
   6237   6236   6248   6250     1  0.0000000  0.6508444  3
   6238   6236   6235   6239     1  0.0000000  1.2552000  3
   6238   6236   6235   6242     1  0.0000000  1.2552000  3
   6238   6236   6248   6260     1  0.0000000  0.6508444  3
   6238   6236   6248   6249     1  0.0000000  0.6508444  3
   6238   6236   6248   6250     1  0.0000000  0.6508444  3
   6239   6235   6242   6243     1  0.0000000  1.2552000  3
   6239   6235   6242   6244     1  0.0000000  1.2552000  3
   6239   6251   6257   6258     1  0.0000000  0.6508444  3
   6239   6251   6257   6259     1  0.0000000  0.6508444  3
   6240   6239   6235   6242     1  0.0000000  1.2552000  3
   6240   6239   6251   6257     1  0.0000000  0.6508444  3
   6240   6239   6251   6252     1  0.0000000  0.6508444  3
   6240   6239   6251   6253     1  0.0000000  0.6508444  3
   6241   6239   6235   6242     1  0.0000000  1.2552000  3
   6241   6239   6251   6257     1  0.0000000  0.6508444  3
   6241   6239   6251   6252     1  0.0000000  0.6508444  3
   6241   6239   6251   6253     1  0.0000000  0.6508444  3
   6242   6245   6254   6255     1  0.0000000  0.6508444  3
   6242   6245   6254   6256     1  0.0000000  0.6508444  3
   6243   6242   6245   6254     1  0.0000000  0.6508444  3
   6243   6242   6245   6246     1  0.0000000  0.6508444  3
   6243   6242   6245   6247     1  0.0000000  0.6508444  3
   6244   6242   6245   6254     1  0.0000000  0.6508444  3
   6244   6242   6245   6246     1  0.0000000  0.6508444  3
   6244   6242   6245   6247     1  0.0000000  0.6508444  3
   6246   6245   6254   6263     1  0.0000000  1.0460000  1
   6246   6245   6254   6263     1  0.0000000  0.0000000  3
   6246   6245   6254   6255     1  0.0000000  0.6508444  3
   6246   6245   6254   6256     1  0.0000000  0.6508444  3
   6247   6245   6254   6263     1  0.0000000  1.0460000  1
   6247   6245   6254   6263     1  0.0000000  0.0000000  3
   6247   6245   6254   6255     1  0.0000000  0.6508444  3
   6247   6245   6254   6256     1  0.0000000  0.6508444  3
   6249   6248   6260  11493     1  0.0000000  1.0460000  1
   6249   6248   6260  11493     1  0.0000000  0.0000000  3
   6249   6248   6260   6261     1  0.0000000  0.6508444  3
   6249   6248   6260   6262     1  0.0000000  0.6508444  3
   6250   6248   6260  11493     1  0.0000000  1.0460000  1
   6250   6248   6260  11493     1  0.0000000  0.0000000  3
   6250   6248   6260   6261     1  0.0000000  0.6508444  3
   6250   6248   6260   6262     1  0.0000000  0.6508444  3
   6252   6251   6257  11470     1  0.0000000  1.0460000  1
   6252   6251   6257  11470     1  0.0000000  0.0000000  3
   6252   6251   6257   6258     1  0.0000000  0.6508444  3
   6252   6251   6257   6259     1  0.0000000  0.6508444  3
   6253   6251   6257  11470     1  0.0000000  1.0460000  1
   6253   6251   6257  11470     1  0.0000000  0.0000000  3
   6253   6251   6257   6258     1  0.0000000  0.6508444  3
   6253   6251   6257   6259     1  0.0000000  0.6508444  3
   6257  11470  11466  11469     1  0.0000000  1.6038667  3
   6258   6257  11470  11466     1  0.0000000  1.6038667  3
   6259   6257  11470  11466     1  0.0000000  1.6038667  3
   6260  11493  11489  11492     1  0.0000000  1.6038667  3
   6261   6260  11493  11489     1  0.0000000  1.6038667  3
   6262   6260  11493  11489     1  0.0000000  1.6038667  3
   6264   6265   6277   6278     1  0.0000000  0.6508444  3
   6264   6265   6277   6279     1  0.0000000  0.6508444  3
   6264   6268   6280   6281     1  0.0000000  0.6508444  3
   6264   6268   6280   6282     1  0.0000000  0.6508444  3
   6264   6271   6274   6275     1  0.0000000  0.6508444  3
   6264   6271   6274   6276     1  0.0000000  0.6508444  3
   6265   6264   6268   6269     1  0.0000000  1.2552000  3
   6265   6264   6268   6270     1  0.0000000  1.2552000  3
   6265   6264   6271   6272     1  0.0000000  1.2552000  3
   6265   6264   6271   6273     1  0.0000000  1.2552000  3
   6265   6277   6289   6290     1  0.0000000  0.6508444  3
   6265   6277   6289   6291     1  0.0000000  0.6508444  3
   6266   6265   6264   6268     1  0.0000000  1.2552000  3
   6266   6265   6264   6271     1  0.0000000  1.2552000  3
   6266   6265   6277   6289     1  0.0000000  0.6508444  3
   6266   6265   6277   6278     1  0.0000000  0.6508444  3
   6266   6265   6277   6279     1  0.0000000  0.6508444  3
   6267   6265   6264   6268     1  0.0000000  1.2552000  3
   6267   6265   6264   6271     1  0.0000000  1.2552000  3
   6267   6265   6277   6289     1  0.0000000  0.6508444  3
   6267   6265   6277   6278     1  0.0000000  0.6508444  3
   6267   6265   6277   6279     1  0.0000000  0.6508444  3
   6268   6264   6271   6272     1  0.0000000  1.2552000  3
   6268   6264   6271   6273     1  0.0000000  1.2552000  3
   6268   6280   6286   6287     1  0.0000000  0.6508444  3
   6268   6280   6286   6288     1  0.0000000  0.6508444  3
   6269   6268   6264   6271     1  0.0000000  1.2552000  3
   6269   6268   6280   6286     1  0.0000000  0.6508444  3
   6269   6268   6280   6281     1  0.0000000  0.6508444  3
   6269   6268   6280   6282     1  0.0000000  0.6508444  3
   6270   6268   6264   6271     1  0.0000000  1.2552000  3
   6270   6268   6280   6286     1  0.0000000  0.6508444  3
   6270   6268   6280   6281     1  0.0000000  0.6508444  3
   6270   6268   6280   6282     1  0.0000000  0.6508444  3
   6271   6274   6283   6284     1  0.0000000  0.6508444  3
   6271   6274   6283   6285     1  0.0000000  0.6508444  3
   6272   6271   6274   6283     1  0.0000000  0.6508444  3
   6272   6271   6274   6275     1  0.0000000  0.6508444  3
   6272   6271   6274   6276     1  0.0000000  0.6508444  3
   6273   6271   6274   6283     1  0.0000000  0.6508444  3
   6273   6271   6274   6275     1  0.0000000  0.6508444  3
   6273   6271   6274   6276     1  0.0000000  0.6508444  3
   6275   6274   6283   6292     1  0.0000000  1.0460000  1
   6275   6274   6283   6292     1  0.0000000  0.0000000  3
   6275   6274   6283   6284     1  0.0000000  0.6508444  3
   6275   6274   6283   6285     1  0.0000000  0.6508444  3
   6276   6274   6283   6292     1  0.0000000  1.0460000  1
   6276   6274   6283   6292     1  0.0000000  0.0000000  3
   6276   6274   6283   6284     1  0.0000000  0.6508444  3
   6276   6274   6283   6285     1  0.0000000  0.6508444  3
   6278   6277   6289  11539     1  0.0000000  1.0460000  1
   6278   6277   6289  11539     1  0.0000000  0.0000000  3
   6278   6277   6289   6290     1  0.0000000  0.6508444  3
   6278   6277   6289   6291     1  0.0000000  0.6508444  3
   6279   6277   6289  11539     1  0.0000000  1.0460000  1
   6279   6277   6289  11539     1  0.0000000  0.0000000  3
   6279   6277   6289   6290     1  0.0000000  0.6508444  3
   6279   6277   6289   6291     1  0.0000000  0.6508444  3
   6281   6280   6286  11516     1  0.0000000  1.0460000  1
   6281   6280   6286  11516     1  0.0000000  0.0000000  3
   6281   6280   6286   6287     1  0.0000000  0.6508444  3
   6281   6280   6286   6288     1  0.0000000  0.6508444  3
   6282   6280   6286  11516     1  0.0000000  1.0460000  1
   6282   6280   6286  11516     1  0.0000000  0.0000000  3
   6282   6280   6286   6287     1  0.0000000  0.6508444  3
   6282   6280   6286   6288     1  0.0000000  0.6508444  3
   6286  11516  11512  11515     1  0.0000000  1.6038667  3
   6287   6286  11516  11512     1  0.0000000  1.6038667  3
   6288   6286  11516  11512     1  0.0000000  1.6038667  3
   6289  11539  11535  11538     1  0.0000000  1.6038667  3
   6290   6289  11539  11535     1  0.0000000  1.6038667  3
   6291   6289  11539  11535     1  0.0000000  1.6038667  3
   6293   6294   6306   6307     1  0.0000000  0.6508444  3
   6293   6294   6306   6308     1  0.0000000  0.6508444  3
   6293   6297   6309   6310     1  0.0000000  0.6508444  3
   6293   6297   6309   6311     1  0.0000000  0.6508444  3
   6293   6300   6303   6304     1  0.0000000  0.6508444  3
   6293   6300   6303   6305     1  0.0000000  0.6508444  3
   6294   6293   6297   6298     1  0.0000000  1.2552000  3
   6294   6293   6297   6299     1  0.0000000  1.2552000  3
   6294   6293   6300   6301     1  0.0000000  1.2552000  3
   6294   6293   6300   6302     1  0.0000000  1.2552000  3
   6294   6306   6318   6319     1  0.0000000  0.6508444  3
   6294   6306   6318   6320     1  0.0000000  0.6508444  3
   6295   6294   6293   6297     1  0.0000000  1.2552000  3
   6295   6294   6293   6300     1  0.0000000  1.2552000  3
   6295   6294   6306   6318     1  0.0000000  0.6508444  3
   6295   6294   6306   6307     1  0.0000000  0.6508444  3
   6295   6294   6306   6308     1  0.0000000  0.6508444  3
   6296   6294   6293   6297     1  0.0000000  1.2552000  3
   6296   6294   6293   6300     1  0.0000000  1.2552000  3
   6296   6294   6306   6318     1  0.0000000  0.6508444  3
   6296   6294   6306   6307     1  0.0000000  0.6508444  3
   6296   6294   6306   6308     1  0.0000000  0.6508444  3
   6297   6293   6300   6301     1  0.0000000  1.2552000  3
   6297   6293   6300   6302     1  0.0000000  1.2552000  3
   6297   6309   6315   6316     1  0.0000000  0.6508444  3
   6297   6309   6315   6317     1  0.0000000  0.6508444  3
   6298   6297   6293   6300     1  0.0000000  1.2552000  3
   6298   6297   6309   6315     1  0.0000000  0.6508444  3
   6298   6297   6309   6310     1  0.0000000  0.6508444  3
   6298   6297   6309   6311     1  0.0000000  0.6508444  3
   6299   6297   6293   6300     1  0.0000000  1.2552000  3
   6299   6297   6309   6315     1  0.0000000  0.6508444  3
   6299   6297   6309   6310     1  0.0000000  0.6508444  3
   6299   6297   6309   6311     1  0.0000000  0.6508444  3
   6300   6303   6312   6313     1  0.0000000  0.6508444  3
   6300   6303   6312   6314     1  0.0000000  0.6508444  3
   6301   6300   6303   6312     1  0.0000000  0.6508444  3
   6301   6300   6303   6304     1  0.0000000  0.6508444  3
   6301   6300   6303   6305     1  0.0000000  0.6508444  3
   6302   6300   6303   6312     1  0.0000000  0.6508444  3
   6302   6300   6303   6304     1  0.0000000  0.6508444  3
   6302   6300   6303   6305     1  0.0000000  0.6508444  3
   6304   6303   6312   6321     1  0.0000000  1.0460000  1
   6304   6303   6312   6321     1  0.0000000  0.0000000  3
   6304   6303   6312   6313     1  0.0000000  0.6508444  3
   6304   6303   6312   6314     1  0.0000000  0.6508444  3
   6305   6303   6312   6321     1  0.0000000  1.0460000  1
   6305   6303   6312   6321     1  0.0000000  0.0000000  3
   6305   6303   6312   6313     1  0.0000000  0.6508444  3
   6305   6303   6312   6314     1  0.0000000  0.6508444  3
   6307   6306   6318  11585     1  0.0000000  1.0460000  1
   6307   6306   6318  11585     1  0.0000000  0.0000000  3
   6307   6306   6318   6319     1  0.0000000  0.6508444  3
   6307   6306   6318   6320     1  0.0000000  0.6508444  3
   6308   6306   6318  11585     1  0.0000000  1.0460000  1
   6308   6306   6318  11585     1  0.0000000  0.0000000  3
   6308   6306   6318   6319     1  0.0000000  0.6508444  3
   6308   6306   6318   6320     1  0.0000000  0.6508444  3
   6310   6309   6315  11562     1  0.0000000  1.0460000  1
   6310   6309   6315  11562     1  0.0000000  0.0000000  3
   6310   6309   6315   6316     1  0.0000000  0.6508444  3
   6310   6309   6315   6317     1  0.0000000  0.6508444  3
   6311   6309   6315  11562     1  0.0000000  1.0460000  1
   6311   6309   6315  11562     1  0.0000000  0.0000000  3
   6311   6309   6315   6316     1  0.0000000  0.6508444  3
   6311   6309   6315   6317     1  0.0000000  0.6508444  3
   6315  11562  11558  11561     1  0.0000000  1.6038667  3
   6316   6315  11562  11558     1  0.0000000  1.6038667  3
   6317   6315  11562  11558     1  0.0000000  1.6038667  3
   6318  11585  11581  11584     1  0.0000000  1.6038667  3
   6319   6318  11585  11581     1  0.0000000  1.6038667  3
   6320   6318  11585  11581     1  0.0000000  1.6038667  3
   6322   6323   6335   6336     1  0.0000000  0.6508444  3
   6322   6323   6335   6337     1  0.0000000  0.6508444  3
   6322   6326   6338   6339     1  0.0000000  0.6508444  3
   6322   6326   6338   6340     1  0.0000000  0.6508444  3
   6322   6329   6332   6333     1  0.0000000  0.6508444  3
   6322   6329   6332   6334     1  0.0000000  0.6508444  3
   6323   6322   6326   6327     1  0.0000000  1.2552000  3
   6323   6322   6326   6328     1  0.0000000  1.2552000  3
   6323   6322   6329   6330     1  0.0000000  1.2552000  3
   6323   6322   6329   6331     1  0.0000000  1.2552000  3
   6323   6335   6347   6348     1  0.0000000  0.6508444  3
   6323   6335   6347   6349     1  0.0000000  0.6508444  3
   6324   6323   6322   6326     1  0.0000000  1.2552000  3
   6324   6323   6322   6329     1  0.0000000  1.2552000  3
   6324   6323   6335   6347     1  0.0000000  0.6508444  3
   6324   6323   6335   6336     1  0.0000000  0.6508444  3
   6324   6323   6335   6337     1  0.0000000  0.6508444  3
   6325   6323   6322   6326     1  0.0000000  1.2552000  3
   6325   6323   6322   6329     1  0.0000000  1.2552000  3
   6325   6323   6335   6347     1  0.0000000  0.6508444  3
   6325   6323   6335   6336     1  0.0000000  0.6508444  3
   6325   6323   6335   6337     1  0.0000000  0.6508444  3
   6326   6322   6329   6330     1  0.0000000  1.2552000  3
   6326   6322   6329   6331     1  0.0000000  1.2552000  3
   6326   6338   6344   6345     1  0.0000000  0.6508444  3
   6326   6338   6344   6346     1  0.0000000  0.6508444  3
   6327   6326   6322   6329     1  0.0000000  1.2552000  3
   6327   6326   6338   6344     1  0.0000000  0.6508444  3
   6327   6326   6338   6339     1  0.0000000  0.6508444  3
   6327   6326   6338   6340     1  0.0000000  0.6508444  3
   6328   6326   6322   6329     1  0.0000000  1.2552000  3
   6328   6326   6338   6344     1  0.0000000  0.6508444  3
   6328   6326   6338   6339     1  0.0000000  0.6508444  3
   6328   6326   6338   6340     1  0.0000000  0.6508444  3
   6329   6332   6341   6342     1  0.0000000  0.6508444  3
   6329   6332   6341   6343     1  0.0000000  0.6508444  3
   6330   6329   6332   6341     1  0.0000000  0.6508444  3
   6330   6329   6332   6333     1  0.0000000  0.6508444  3
   6330   6329   6332   6334     1  0.0000000  0.6508444  3
   6331   6329   6332   6341     1  0.0000000  0.6508444  3
   6331   6329   6332   6333     1  0.0000000  0.6508444  3
   6331   6329   6332   6334     1  0.0000000  0.6508444  3
   6333   6332   6341   6350     1  0.0000000  1.0460000  1
   6333   6332   6341   6350     1  0.0000000  0.0000000  3
   6333   6332   6341   6342     1  0.0000000  0.6508444  3
   6333   6332   6341   6343     1  0.0000000  0.6508444  3
   6334   6332   6341   6350     1  0.0000000  1.0460000  1
   6334   6332   6341   6350     1  0.0000000  0.0000000  3
   6334   6332   6341   6342     1  0.0000000  0.6508444  3
   6334   6332   6341   6343     1  0.0000000  0.6508444  3
   6336   6335   6347  11631     1  0.0000000  1.0460000  1
   6336   6335   6347  11631     1  0.0000000  0.0000000  3
   6336   6335   6347   6348     1  0.0000000  0.6508444  3
   6336   6335   6347   6349     1  0.0000000  0.6508444  3
   6337   6335   6347  11631     1  0.0000000  1.0460000  1
   6337   6335   6347  11631     1  0.0000000  0.0000000  3
   6337   6335   6347   6348     1  0.0000000  0.6508444  3
   6337   6335   6347   6349     1  0.0000000  0.6508444  3
   6339   6338   6344  11608     1  0.0000000  1.0460000  1
   6339   6338   6344  11608     1  0.0000000  0.0000000  3
   6339   6338   6344   6345     1  0.0000000  0.6508444  3
   6339   6338   6344   6346     1  0.0000000  0.6508444  3
   6340   6338   6344  11608     1  0.0000000  1.0460000  1
   6340   6338   6344  11608     1  0.0000000  0.0000000  3
   6340   6338   6344   6345     1  0.0000000  0.6508444  3
   6340   6338   6344   6346     1  0.0000000  0.6508444  3
   6344  11608  11604  11607     1  0.0000000  1.6038667  3
   6345   6344  11608  11604     1  0.0000000  1.6038667  3
   6346   6344  11608  11604     1  0.0000000  1.6038667  3
   6347  11631  11627  11630     1  0.0000000  1.6038667  3
   6348   6347  11631  11627     1  0.0000000  1.6038667  3
   6349   6347  11631  11627     1  0.0000000  1.6038667  3
   6351   6352   6364   6365     1  0.0000000  0.6508444  3
   6351   6352   6364   6366     1  0.0000000  0.6508444  3
   6351   6355   6367   6368     1  0.0000000  0.6508444  3
   6351   6355   6367   6369     1  0.0000000  0.6508444  3
   6351   6358   6361   6362     1  0.0000000  0.6508444  3
   6351   6358   6361   6363     1  0.0000000  0.6508444  3
   6352   6351   6355   6356     1  0.0000000  1.2552000  3
   6352   6351   6355   6357     1  0.0000000  1.2552000  3
   6352   6351   6358   6359     1  0.0000000  1.2552000  3
   6352   6351   6358   6360     1  0.0000000  1.2552000  3
   6352   6364   6376   6377     1  0.0000000  0.6508444  3
   6352   6364   6376   6378     1  0.0000000  0.6508444  3
   6353   6352   6351   6355     1  0.0000000  1.2552000  3
   6353   6352   6351   6358     1  0.0000000  1.2552000  3
   6353   6352   6364   6376     1  0.0000000  0.6508444  3
   6353   6352   6364   6365     1  0.0000000  0.6508444  3
   6353   6352   6364   6366     1  0.0000000  0.6508444  3
   6354   6352   6351   6355     1  0.0000000  1.2552000  3
   6354   6352   6351   6358     1  0.0000000  1.2552000  3
   6354   6352   6364   6376     1  0.0000000  0.6508444  3
   6354   6352   6364   6365     1  0.0000000  0.6508444  3
   6354   6352   6364   6366     1  0.0000000  0.6508444  3
   6355   6351   6358   6359     1  0.0000000  1.2552000  3
   6355   6351   6358   6360     1  0.0000000  1.2552000  3
   6355   6367   6373   6374     1  0.0000000  0.6508444  3
   6355   6367   6373   6375     1  0.0000000  0.6508444  3
   6356   6355   6351   6358     1  0.0000000  1.2552000  3
   6356   6355   6367   6373     1  0.0000000  0.6508444  3
   6356   6355   6367   6368     1  0.0000000  0.6508444  3
   6356   6355   6367   6369     1  0.0000000  0.6508444  3
   6357   6355   6351   6358     1  0.0000000  1.2552000  3
   6357   6355   6367   6373     1  0.0000000  0.6508444  3
   6357   6355   6367   6368     1  0.0000000  0.6508444  3
   6357   6355   6367   6369     1  0.0000000  0.6508444  3
   6358   6361   6370   6371     1  0.0000000  0.6508444  3
   6358   6361   6370   6372     1  0.0000000  0.6508444  3
   6359   6358   6361   6370     1  0.0000000  0.6508444  3
   6359   6358   6361   6362     1  0.0000000  0.6508444  3
   6359   6358   6361   6363     1  0.0000000  0.6508444  3
   6360   6358   6361   6370     1  0.0000000  0.6508444  3
   6360   6358   6361   6362     1  0.0000000  0.6508444  3
   6360   6358   6361   6363     1  0.0000000  0.6508444  3
   6362   6361   6370   6379     1  0.0000000  1.0460000  1
   6362   6361   6370   6379     1  0.0000000  0.0000000  3
   6362   6361   6370   6371     1  0.0000000  0.6508444  3
   6362   6361   6370   6372     1  0.0000000  0.6508444  3
   6363   6361   6370   6379     1  0.0000000  1.0460000  1
   6363   6361   6370   6379     1  0.0000000  0.0000000  3
   6363   6361   6370   6371     1  0.0000000  0.6508444  3
   6363   6361   6370   6372     1  0.0000000  0.6508444  3
   6365   6364   6376  11677     1  0.0000000  1.0460000  1
   6365   6364   6376  11677     1  0.0000000  0.0000000  3
   6365   6364   6376   6377     1  0.0000000  0.6508444  3
   6365   6364   6376   6378     1  0.0000000  0.6508444  3
   6366   6364   6376  11677     1  0.0000000  1.0460000  1
   6366   6364   6376  11677     1  0.0000000  0.0000000  3
   6366   6364   6376   6377     1  0.0000000  0.6508444  3
   6366   6364   6376   6378     1  0.0000000  0.6508444  3
   6368   6367   6373  11654     1  0.0000000  1.0460000  1
   6368   6367   6373  11654     1  0.0000000  0.0000000  3
   6368   6367   6373   6374     1  0.0000000  0.6508444  3
   6368   6367   6373   6375     1  0.0000000  0.6508444  3
   6369   6367   6373  11654     1  0.0000000  1.0460000  1
   6369   6367   6373  11654     1  0.0000000  0.0000000  3
   6369   6367   6373   6374     1  0.0000000  0.6508444  3
   6369   6367   6373   6375     1  0.0000000  0.6508444  3
   6373  11654  11650  11653     1  0.0000000  1.6038667  3
   6374   6373  11654  11650     1  0.0000000  1.6038667  3
   6375   6373  11654  11650     1  0.0000000  1.6038667  3
   6376  11677  11673  11676     1  0.0000000  1.6038667  3
   6377   6376  11677  11673     1  0.0000000  1.6038667  3
   6378   6376  11677  11673     1  0.0000000  1.6038667  3
   6380   6381   6393   6394     1  0.0000000  0.6508444  3
   6380   6381   6393   6395     1  0.0000000  0.6508444  3
   6380   6384   6396   6397     1  0.0000000  0.6508444  3
   6380   6384   6396   6398     1  0.0000000  0.6508444  3
   6380   6387   6390   6391     1  0.0000000  0.6508444  3
   6380   6387   6390   6392     1  0.0000000  0.6508444  3
   6381   6380   6384   6385     1  0.0000000  1.2552000  3
   6381   6380   6384   6386     1  0.0000000  1.2552000  3
   6381   6380   6387   6388     1  0.0000000  1.2552000  3
   6381   6380   6387   6389     1  0.0000000  1.2552000  3
   6381   6393   6405   6406     1  0.0000000  0.6508444  3
   6381   6393   6405   6407     1  0.0000000  0.6508444  3
   6382   6381   6380   6384     1  0.0000000  1.2552000  3
   6382   6381   6380   6387     1  0.0000000  1.2552000  3
   6382   6381   6393   6405     1  0.0000000  0.6508444  3
   6382   6381   6393   6394     1  0.0000000  0.6508444  3
   6382   6381   6393   6395     1  0.0000000  0.6508444  3
   6383   6381   6380   6384     1  0.0000000  1.2552000  3
   6383   6381   6380   6387     1  0.0000000  1.2552000  3
   6383   6381   6393   6405     1  0.0000000  0.6508444  3
   6383   6381   6393   6394     1  0.0000000  0.6508444  3
   6383   6381   6393   6395     1  0.0000000  0.6508444  3
   6384   6380   6387   6388     1  0.0000000  1.2552000  3
   6384   6380   6387   6389     1  0.0000000  1.2552000  3
   6384   6396   6402   6403     1  0.0000000  0.6508444  3
   6384   6396   6402   6404     1  0.0000000  0.6508444  3
   6385   6384   6380   6387     1  0.0000000  1.2552000  3
   6385   6384   6396   6402     1  0.0000000  0.6508444  3
   6385   6384   6396   6397     1  0.0000000  0.6508444  3
   6385   6384   6396   6398     1  0.0000000  0.6508444  3
   6386   6384   6380   6387     1  0.0000000  1.2552000  3
   6386   6384   6396   6402     1  0.0000000  0.6508444  3
   6386   6384   6396   6397     1  0.0000000  0.6508444  3
   6386   6384   6396   6398     1  0.0000000  0.6508444  3
   6387   6390   6399   6400     1  0.0000000  0.6508444  3
   6387   6390   6399   6401     1  0.0000000  0.6508444  3
   6388   6387   6390   6399     1  0.0000000  0.6508444  3
   6388   6387   6390   6391     1  0.0000000  0.6508444  3
   6388   6387   6390   6392     1  0.0000000  0.6508444  3
   6389   6387   6390   6399     1  0.0000000  0.6508444  3
   6389   6387   6390   6391     1  0.0000000  0.6508444  3
   6389   6387   6390   6392     1  0.0000000  0.6508444  3
   6391   6390   6399   6408     1  0.0000000  1.0460000  1
   6391   6390   6399   6408     1  0.0000000  0.0000000  3
   6391   6390   6399   6400     1  0.0000000  0.6508444  3
   6391   6390   6399   6401     1  0.0000000  0.6508444  3
   6392   6390   6399   6408     1  0.0000000  1.0460000  1
   6392   6390   6399   6408     1  0.0000000  0.0000000  3
   6392   6390   6399   6400     1  0.0000000  0.6508444  3
   6392   6390   6399   6401     1  0.0000000  0.6508444  3
   6394   6393   6405  11723     1  0.0000000  1.0460000  1
   6394   6393   6405  11723     1  0.0000000  0.0000000  3
   6394   6393   6405   6406     1  0.0000000  0.6508444  3
   6394   6393   6405   6407     1  0.0000000  0.6508444  3
   6395   6393   6405  11723     1  0.0000000  1.0460000  1
   6395   6393   6405  11723     1  0.0000000  0.0000000  3
   6395   6393   6405   6406     1  0.0000000  0.6508444  3
   6395   6393   6405   6407     1  0.0000000  0.6508444  3
   6397   6396   6402  11700     1  0.0000000  1.0460000  1
   6397   6396   6402  11700     1  0.0000000  0.0000000  3
   6397   6396   6402   6403     1  0.0000000  0.6508444  3
   6397   6396   6402   6404     1  0.0000000  0.6508444  3
   6398   6396   6402  11700     1  0.0000000  1.0460000  1
   6398   6396   6402  11700     1  0.0000000  0.0000000  3
   6398   6396   6402   6403     1  0.0000000  0.6508444  3
   6398   6396   6402   6404     1  0.0000000  0.6508444  3
   6402  11700  11696  11699     1  0.0000000  1.6038667  3
   6403   6402  11700  11696     1  0.0000000  1.6038667  3
   6404   6402  11700  11696     1  0.0000000  1.6038667  3
   6405  11723  11719  11722     1  0.0000000  1.6038667  3
   6406   6405  11723  11719     1  0.0000000  1.6038667  3
   6407   6405  11723  11719     1  0.0000000  1.6038667  3
   6409   6410   6422   6423     1  0.0000000  0.6508444  3
   6409   6410   6422   6424     1  0.0000000  0.6508444  3
   6409   6413   6425   6426     1  0.0000000  0.6508444  3
   6409   6413   6425   6427     1  0.0000000  0.6508444  3
   6409   6416   6419   6420     1  0.0000000  0.6508444  3
   6409   6416   6419   6421     1  0.0000000  0.6508444  3
   6410   6409   6413   6414     1  0.0000000  1.2552000  3
   6410   6409   6413   6415     1  0.0000000  1.2552000  3
   6410   6409   6416   6417     1  0.0000000  1.2552000  3
   6410   6409   6416   6418     1  0.0000000  1.2552000  3
   6410   6422   6434   6435     1  0.0000000  0.6508444  3
   6410   6422   6434   6436     1  0.0000000  0.6508444  3
   6411   6410   6409   6413     1  0.0000000  1.2552000  3
   6411   6410   6409   6416     1  0.0000000  1.2552000  3
   6411   6410   6422   6434     1  0.0000000  0.6508444  3
   6411   6410   6422   6423     1  0.0000000  0.6508444  3
   6411   6410   6422   6424     1  0.0000000  0.6508444  3
   6412   6410   6409   6413     1  0.0000000  1.2552000  3
   6412   6410   6409   6416     1  0.0000000  1.2552000  3
   6412   6410   6422   6434     1  0.0000000  0.6508444  3
   6412   6410   6422   6423     1  0.0000000  0.6508444  3
   6412   6410   6422   6424     1  0.0000000  0.6508444  3
   6413   6409   6416   6417     1  0.0000000  1.2552000  3
   6413   6409   6416   6418     1  0.0000000  1.2552000  3
   6413   6425   6431   6432     1  0.0000000  0.6508444  3
   6413   6425   6431   6433     1  0.0000000  0.6508444  3
   6414   6413   6409   6416     1  0.0000000  1.2552000  3
   6414   6413   6425   6431     1  0.0000000  0.6508444  3
   6414   6413   6425   6426     1  0.0000000  0.6508444  3
   6414   6413   6425   6427     1  0.0000000  0.6508444  3
   6415   6413   6409   6416     1  0.0000000  1.2552000  3
   6415   6413   6425   6431     1  0.0000000  0.6508444  3
   6415   6413   6425   6426     1  0.0000000  0.6508444  3
   6415   6413   6425   6427     1  0.0000000  0.6508444  3
   6416   6419   6428   6429     1  0.0000000  0.6508444  3
   6416   6419   6428   6430     1  0.0000000  0.6508444  3
   6417   6416   6419   6428     1  0.0000000  0.6508444  3
   6417   6416   6419   6420     1  0.0000000  0.6508444  3
   6417   6416   6419   6421     1  0.0000000  0.6508444  3
   6418   6416   6419   6428     1  0.0000000  0.6508444  3
   6418   6416   6419   6420     1  0.0000000  0.6508444  3
   6418   6416   6419   6421     1  0.0000000  0.6508444  3
   6420   6419   6428   6437     1  0.0000000  1.0460000  1
   6420   6419   6428   6437     1  0.0000000  0.0000000  3
   6420   6419   6428   6429     1  0.0000000  0.6508444  3
   6420   6419   6428   6430     1  0.0000000  0.6508444  3
   6421   6419   6428   6437     1  0.0000000  1.0460000  1
   6421   6419   6428   6437     1  0.0000000  0.0000000  3
   6421   6419   6428   6429     1  0.0000000  0.6508444  3
   6421   6419   6428   6430     1  0.0000000  0.6508444  3
   6423   6422   6434  11769     1  0.0000000  1.0460000  1
   6423   6422   6434  11769     1  0.0000000  0.0000000  3
   6423   6422   6434   6435     1  0.0000000  0.6508444  3
   6423   6422   6434   6436     1  0.0000000  0.6508444  3
   6424   6422   6434  11769     1  0.0000000  1.0460000  1
   6424   6422   6434  11769     1  0.0000000  0.0000000  3
   6424   6422   6434   6435     1  0.0000000  0.6508444  3
   6424   6422   6434   6436     1  0.0000000  0.6508444  3
   6426   6425   6431  11746     1  0.0000000  1.0460000  1
   6426   6425   6431  11746     1  0.0000000  0.0000000  3
   6426   6425   6431   6432     1  0.0000000  0.6508444  3
   6426   6425   6431   6433     1  0.0000000  0.6508444  3
   6427   6425   6431  11746     1  0.0000000  1.0460000  1
   6427   6425   6431  11746     1  0.0000000  0.0000000  3
   6427   6425   6431   6432     1  0.0000000  0.6508444  3
   6427   6425   6431   6433     1  0.0000000  0.6508444  3
   6431  11746  11742  11745     1  0.0000000  1.6038667  3
   6432   6431  11746  11742     1  0.0000000  1.6038667  3
   6433   6431  11746  11742     1  0.0000000  1.6038667  3
   6434  11769  11765  11768     1  0.0000000  1.6038667  3
   6435   6434  11769  11765     1  0.0000000  1.6038667  3
   6436   6434  11769  11765     1  0.0000000  1.6038667  3
   6438   6439   6451   6452     1  0.0000000  0.6508444  3
   6438   6439   6451   6453     1  0.0000000  0.6508444  3
   6438   6442   6454   6455     1  0.0000000  0.6508444  3
   6438   6442   6454   6456     1  0.0000000  0.6508444  3
   6438   6445   6448   6449     1  0.0000000  0.6508444  3
   6438   6445   6448   6450     1  0.0000000  0.6508444  3
   6439   6438   6442   6443     1  0.0000000  1.2552000  3
   6439   6438   6442   6444     1  0.0000000  1.2552000  3
   6439   6438   6445   6446     1  0.0000000  1.2552000  3
   6439   6438   6445   6447     1  0.0000000  1.2552000  3
   6439   6451   6463   6464     1  0.0000000  0.6508444  3
   6439   6451   6463   6465     1  0.0000000  0.6508444  3
   6440   6439   6438   6442     1  0.0000000  1.2552000  3
   6440   6439   6438   6445     1  0.0000000  1.2552000  3
   6440   6439   6451   6463     1  0.0000000  0.6508444  3
   6440   6439   6451   6452     1  0.0000000  0.6508444  3
   6440   6439   6451   6453     1  0.0000000  0.6508444  3
   6441   6439   6438   6442     1  0.0000000  1.2552000  3
   6441   6439   6438   6445     1  0.0000000  1.2552000  3
   6441   6439   6451   6463     1  0.0000000  0.6508444  3
   6441   6439   6451   6452     1  0.0000000  0.6508444  3
   6441   6439   6451   6453     1  0.0000000  0.6508444  3
   6442   6438   6445   6446     1  0.0000000  1.2552000  3
   6442   6438   6445   6447     1  0.0000000  1.2552000  3
   6442   6454   6460   6461     1  0.0000000  0.6508444  3
   6442   6454   6460   6462     1  0.0000000  0.6508444  3
   6443   6442   6438   6445     1  0.0000000  1.2552000  3
   6443   6442   6454   6460     1  0.0000000  0.6508444  3
   6443   6442   6454   6455     1  0.0000000  0.6508444  3
   6443   6442   6454   6456     1  0.0000000  0.6508444  3
   6444   6442   6438   6445     1  0.0000000  1.2552000  3
   6444   6442   6454   6460     1  0.0000000  0.6508444  3
   6444   6442   6454   6455     1  0.0000000  0.6508444  3
   6444   6442   6454   6456     1  0.0000000  0.6508444  3
   6445   6448   6457   6458     1  0.0000000  0.6508444  3
   6445   6448   6457   6459     1  0.0000000  0.6508444  3
   6446   6445   6448   6457     1  0.0000000  0.6508444  3
   6446   6445   6448   6449     1  0.0000000  0.6508444  3
   6446   6445   6448   6450     1  0.0000000  0.6508444  3
   6447   6445   6448   6457     1  0.0000000  0.6508444  3
   6447   6445   6448   6449     1  0.0000000  0.6508444  3
   6447   6445   6448   6450     1  0.0000000  0.6508444  3
   6449   6448   6457   6466     1  0.0000000  1.0460000  1
   6449   6448   6457   6466     1  0.0000000  0.0000000  3
   6449   6448   6457   6458     1  0.0000000  0.6508444  3
   6449   6448   6457   6459     1  0.0000000  0.6508444  3
   6450   6448   6457   6466     1  0.0000000  1.0460000  1
   6450   6448   6457   6466     1  0.0000000  0.0000000  3
   6450   6448   6457   6458     1  0.0000000  0.6508444  3
   6450   6448   6457   6459     1  0.0000000  0.6508444  3
   6452   6451   6463  11815     1  0.0000000  1.0460000  1
   6452   6451   6463  11815     1  0.0000000  0.0000000  3
   6452   6451   6463   6464     1  0.0000000  0.6508444  3
   6452   6451   6463   6465     1  0.0000000  0.6508444  3
   6453   6451   6463  11815     1  0.0000000  1.0460000  1
   6453   6451   6463  11815     1  0.0000000  0.0000000  3
   6453   6451   6463   6464     1  0.0000000  0.6508444  3
   6453   6451   6463   6465     1  0.0000000  0.6508444  3
   6455   6454   6460  11792     1  0.0000000  1.0460000  1
   6455   6454   6460  11792     1  0.0000000  0.0000000  3
   6455   6454   6460   6461     1  0.0000000  0.6508444  3
   6455   6454   6460   6462     1  0.0000000  0.6508444  3
   6456   6454   6460  11792     1  0.0000000  1.0460000  1
   6456   6454   6460  11792     1  0.0000000  0.0000000  3
   6456   6454   6460   6461     1  0.0000000  0.6508444  3
   6456   6454   6460   6462     1  0.0000000  0.6508444  3
   6460  11792  11788  11791     1  0.0000000  1.6038667  3
   6461   6460  11792  11788     1  0.0000000  1.6038667  3
   6462   6460  11792  11788     1  0.0000000  1.6038667  3
   6463  11815  11811  11814     1  0.0000000  1.6038667  3
   6464   6463  11815  11811     1  0.0000000  1.6038667  3
   6465   6463  11815  11811     1  0.0000000  1.6038667  3
   6467   6468   6480   6481     1  0.0000000  0.6508444  3
   6467   6468   6480   6482     1  0.0000000  0.6508444  3
   6467   6471   6483   6484     1  0.0000000  0.6508444  3
   6467   6471   6483   6485     1  0.0000000  0.6508444  3
   6467   6474   6477   6478     1  0.0000000  0.6508444  3
   6467   6474   6477   6479     1  0.0000000  0.6508444  3
   6468   6467   6471   6472     1  0.0000000  1.2552000  3
   6468   6467   6471   6473     1  0.0000000  1.2552000  3
   6468   6467   6474   6475     1  0.0000000  1.2552000  3
   6468   6467   6474   6476     1  0.0000000  1.2552000  3
   6468   6480   6492   6493     1  0.0000000  0.6508444  3
   6468   6480   6492   6494     1  0.0000000  0.6508444  3
   6469   6468   6467   6471     1  0.0000000  1.2552000  3
   6469   6468   6467   6474     1  0.0000000  1.2552000  3
   6469   6468   6480   6492     1  0.0000000  0.6508444  3
   6469   6468   6480   6481     1  0.0000000  0.6508444  3
   6469   6468   6480   6482     1  0.0000000  0.6508444  3
   6470   6468   6467   6471     1  0.0000000  1.2552000  3
   6470   6468   6467   6474     1  0.0000000  1.2552000  3
   6470   6468   6480   6492     1  0.0000000  0.6508444  3
   6470   6468   6480   6481     1  0.0000000  0.6508444  3
   6470   6468   6480   6482     1  0.0000000  0.6508444  3
   6471   6467   6474   6475     1  0.0000000  1.2552000  3
   6471   6467   6474   6476     1  0.0000000  1.2552000  3
   6471   6483   6489   6490     1  0.0000000  0.6508444  3
   6471   6483   6489   6491     1  0.0000000  0.6508444  3
   6472   6471   6467   6474     1  0.0000000  1.2552000  3
   6472   6471   6483   6489     1  0.0000000  0.6508444  3
   6472   6471   6483   6484     1  0.0000000  0.6508444  3
   6472   6471   6483   6485     1  0.0000000  0.6508444  3
   6473   6471   6467   6474     1  0.0000000  1.2552000  3
   6473   6471   6483   6489     1  0.0000000  0.6508444  3
   6473   6471   6483   6484     1  0.0000000  0.6508444  3
   6473   6471   6483   6485     1  0.0000000  0.6508444  3
   6474   6477   6486   6487     1  0.0000000  0.6508444  3
   6474   6477   6486   6488     1  0.0000000  0.6508444  3
   6475   6474   6477   6486     1  0.0000000  0.6508444  3
   6475   6474   6477   6478     1  0.0000000  0.6508444  3
   6475   6474   6477   6479     1  0.0000000  0.6508444  3
   6476   6474   6477   6486     1  0.0000000  0.6508444  3
   6476   6474   6477   6478     1  0.0000000  0.6508444  3
   6476   6474   6477   6479     1  0.0000000  0.6508444  3
   6478   6477   6486   6495     1  0.0000000  1.0460000  1
   6478   6477   6486   6495     1  0.0000000  0.0000000  3
   6478   6477   6486   6487     1  0.0000000  0.6508444  3
   6478   6477   6486   6488     1  0.0000000  0.6508444  3
   6479   6477   6486   6495     1  0.0000000  1.0460000  1
   6479   6477   6486   6495     1  0.0000000  0.0000000  3
   6479   6477   6486   6487     1  0.0000000  0.6508444  3
   6479   6477   6486   6488     1  0.0000000  0.6508444  3
   6481   6480   6492  11861     1  0.0000000  1.0460000  1
   6481   6480   6492  11861     1  0.0000000  0.0000000  3
   6481   6480   6492   6493     1  0.0000000  0.6508444  3
   6481   6480   6492   6494     1  0.0000000  0.6508444  3
   6482   6480   6492  11861     1  0.0000000  1.0460000  1
   6482   6480   6492  11861     1  0.0000000  0.0000000  3
   6482   6480   6492   6493     1  0.0000000  0.6508444  3
   6482   6480   6492   6494     1  0.0000000  0.6508444  3
   6484   6483   6489  11838     1  0.0000000  1.0460000  1
   6484   6483   6489  11838     1  0.0000000  0.0000000  3
   6484   6483   6489   6490     1  0.0000000  0.6508444  3
   6484   6483   6489   6491     1  0.0000000  0.6508444  3
   6485   6483   6489  11838     1  0.0000000  1.0460000  1
   6485   6483   6489  11838     1  0.0000000  0.0000000  3
   6485   6483   6489   6490     1  0.0000000  0.6508444  3
   6485   6483   6489   6491     1  0.0000000  0.6508444  3
   6489  11838  11834  11837     1  0.0000000  1.6038667  3
   6490   6489  11838  11834     1  0.0000000  1.6038667  3
   6491   6489  11838  11834     1  0.0000000  1.6038667  3
   6492  11861  11857  11860     1  0.0000000  1.6038667  3
   6493   6492  11861  11857     1  0.0000000  1.6038667  3
   6494   6492  11861  11857     1  0.0000000  1.6038667  3
   6496   6497   6509   6510     1  0.0000000  0.6508444  3
   6496   6497   6509   6511     1  0.0000000  0.6508444  3
   6496   6500   6512   6513     1  0.0000000  0.6508444  3
   6496   6500   6512   6514     1  0.0000000  0.6508444  3
   6496   6503   6506   6507     1  0.0000000  0.6508444  3
   6496   6503   6506   6508     1  0.0000000  0.6508444  3
   6497   6496   6500   6501     1  0.0000000  1.2552000  3
   6497   6496   6500   6502     1  0.0000000  1.2552000  3
   6497   6496   6503   6504     1  0.0000000  1.2552000  3
   6497   6496   6503   6505     1  0.0000000  1.2552000  3
   6497   6509   6521   6522     1  0.0000000  0.6508444  3
   6497   6509   6521   6523     1  0.0000000  0.6508444  3
   6498   6497   6496   6500     1  0.0000000  1.2552000  3
   6498   6497   6496   6503     1  0.0000000  1.2552000  3
   6498   6497   6509   6521     1  0.0000000  0.6508444  3
   6498   6497   6509   6510     1  0.0000000  0.6508444  3
   6498   6497   6509   6511     1  0.0000000  0.6508444  3
   6499   6497   6496   6500     1  0.0000000  1.2552000  3
   6499   6497   6496   6503     1  0.0000000  1.2552000  3
   6499   6497   6509   6521     1  0.0000000  0.6508444  3
   6499   6497   6509   6510     1  0.0000000  0.6508444  3
   6499   6497   6509   6511     1  0.0000000  0.6508444  3
   6500   6496   6503   6504     1  0.0000000  1.2552000  3
   6500   6496   6503   6505     1  0.0000000  1.2552000  3
   6500   6512   6518   6519     1  0.0000000  0.6508444  3
   6500   6512   6518   6520     1  0.0000000  0.6508444  3
   6501   6500   6496   6503     1  0.0000000  1.2552000  3
   6501   6500   6512   6518     1  0.0000000  0.6508444  3
   6501   6500   6512   6513     1  0.0000000  0.6508444  3
   6501   6500   6512   6514     1  0.0000000  0.6508444  3
   6502   6500   6496   6503     1  0.0000000  1.2552000  3
   6502   6500   6512   6518     1  0.0000000  0.6508444  3
   6502   6500   6512   6513     1  0.0000000  0.6508444  3
   6502   6500   6512   6514     1  0.0000000  0.6508444  3
   6503   6506   6515   6516     1  0.0000000  0.6508444  3
   6503   6506   6515   6517     1  0.0000000  0.6508444  3
   6504   6503   6506   6515     1  0.0000000  0.6508444  3
   6504   6503   6506   6507     1  0.0000000  0.6508444  3
   6504   6503   6506   6508     1  0.0000000  0.6508444  3
   6505   6503   6506   6515     1  0.0000000  0.6508444  3
   6505   6503   6506   6507     1  0.0000000  0.6508444  3
   6505   6503   6506   6508     1  0.0000000  0.6508444  3
   6507   6506   6515   6524     1  0.0000000  1.0460000  1
   6507   6506   6515   6524     1  0.0000000  0.0000000  3
   6507   6506   6515   6516     1  0.0000000  0.6508444  3
   6507   6506   6515   6517     1  0.0000000  0.6508444  3
   6508   6506   6515   6524     1  0.0000000  1.0460000  1
   6508   6506   6515   6524     1  0.0000000  0.0000000  3
   6508   6506   6515   6516     1  0.0000000  0.6508444  3
   6508   6506   6515   6517     1  0.0000000  0.6508444  3
   6510   6509   6521  11907     1  0.0000000  1.0460000  1
   6510   6509   6521  11907     1  0.0000000  0.0000000  3
   6510   6509   6521   6522     1  0.0000000  0.6508444  3
   6510   6509   6521   6523     1  0.0000000  0.6508444  3
   6511   6509   6521  11907     1  0.0000000  1.0460000  1
   6511   6509   6521  11907     1  0.0000000  0.0000000  3
   6511   6509   6521   6522     1  0.0000000  0.6508444  3
   6511   6509   6521   6523     1  0.0000000  0.6508444  3
   6513   6512   6518  11884     1  0.0000000  1.0460000  1
   6513   6512   6518  11884     1  0.0000000  0.0000000  3
   6513   6512   6518   6519     1  0.0000000  0.6508444  3
   6513   6512   6518   6520     1  0.0000000  0.6508444  3
   6514   6512   6518  11884     1  0.0000000  1.0460000  1
   6514   6512   6518  11884     1  0.0000000  0.0000000  3
   6514   6512   6518   6519     1  0.0000000  0.6508444  3
   6514   6512   6518   6520     1  0.0000000  0.6508444  3
   6518  11884  11880  11883     1  0.0000000  1.6038667  3
   6519   6518  11884  11880     1  0.0000000  1.6038667  3
   6520   6518  11884  11880     1  0.0000000  1.6038667  3
   6521  11907  11903  11906     1  0.0000000  1.6038667  3
   6522   6521  11907  11903     1  0.0000000  1.6038667  3
   6523   6521  11907  11903     1  0.0000000  1.6038667  3
   6525   6526   6538   6539     1  0.0000000  0.6508444  3
   6525   6526   6538   6540     1  0.0000000  0.6508444  3
   6525   6529   6541   6542     1  0.0000000  0.6508444  3
   6525   6529   6541   6543     1  0.0000000  0.6508444  3
   6525   6532   6535   6536     1  0.0000000  0.6508444  3
   6525   6532   6535   6537     1  0.0000000  0.6508444  3
   6526   6525   6529   6530     1  0.0000000  1.2552000  3
   6526   6525   6529   6531     1  0.0000000  1.2552000  3
   6526   6525   6532   6533     1  0.0000000  1.2552000  3
   6526   6525   6532   6534     1  0.0000000  1.2552000  3
   6526   6538   6550   6551     1  0.0000000  0.6508444  3
   6526   6538   6550   6552     1  0.0000000  0.6508444  3
   6527   6526   6525   6529     1  0.0000000  1.2552000  3
   6527   6526   6525   6532     1  0.0000000  1.2552000  3
   6527   6526   6538   6550     1  0.0000000  0.6508444  3
   6527   6526   6538   6539     1  0.0000000  0.6508444  3
   6527   6526   6538   6540     1  0.0000000  0.6508444  3
   6528   6526   6525   6529     1  0.0000000  1.2552000  3
   6528   6526   6525   6532     1  0.0000000  1.2552000  3
   6528   6526   6538   6550     1  0.0000000  0.6508444  3
   6528   6526   6538   6539     1  0.0000000  0.6508444  3
   6528   6526   6538   6540     1  0.0000000  0.6508444  3
   6529   6525   6532   6533     1  0.0000000  1.2552000  3
   6529   6525   6532   6534     1  0.0000000  1.2552000  3
   6529   6541   6547   6548     1  0.0000000  0.6508444  3
   6529   6541   6547   6549     1  0.0000000  0.6508444  3
   6530   6529   6525   6532     1  0.0000000  1.2552000  3
   6530   6529   6541   6547     1  0.0000000  0.6508444  3
   6530   6529   6541   6542     1  0.0000000  0.6508444  3
   6530   6529   6541   6543     1  0.0000000  0.6508444  3
   6531   6529   6525   6532     1  0.0000000  1.2552000  3
   6531   6529   6541   6547     1  0.0000000  0.6508444  3
   6531   6529   6541   6542     1  0.0000000  0.6508444  3
   6531   6529   6541   6543     1  0.0000000  0.6508444  3
   6532   6535   6544   6545     1  0.0000000  0.6508444  3
   6532   6535   6544   6546     1  0.0000000  0.6508444  3
   6533   6532   6535   6544     1  0.0000000  0.6508444  3
   6533   6532   6535   6536     1  0.0000000  0.6508444  3
   6533   6532   6535   6537     1  0.0000000  0.6508444  3
   6534   6532   6535   6544     1  0.0000000  0.6508444  3
   6534   6532   6535   6536     1  0.0000000  0.6508444  3
   6534   6532   6535   6537     1  0.0000000  0.6508444  3
   6536   6535   6544   6553     1  0.0000000  1.0460000  1
   6536   6535   6544   6553     1  0.0000000  0.0000000  3
   6536   6535   6544   6545     1  0.0000000  0.6508444  3
   6536   6535   6544   6546     1  0.0000000  0.6508444  3
   6537   6535   6544   6553     1  0.0000000  1.0460000  1
   6537   6535   6544   6553     1  0.0000000  0.0000000  3
   6537   6535   6544   6545     1  0.0000000  0.6508444  3
   6537   6535   6544   6546     1  0.0000000  0.6508444  3
   6539   6538   6550  11953     1  0.0000000  1.0460000  1
   6539   6538   6550  11953     1  0.0000000  0.0000000  3
   6539   6538   6550   6551     1  0.0000000  0.6508444  3
   6539   6538   6550   6552     1  0.0000000  0.6508444  3
   6540   6538   6550  11953     1  0.0000000  1.0460000  1
   6540   6538   6550  11953     1  0.0000000  0.0000000  3
   6540   6538   6550   6551     1  0.0000000  0.6508444  3
   6540   6538   6550   6552     1  0.0000000  0.6508444  3
   6542   6541   6547  11930     1  0.0000000  1.0460000  1
   6542   6541   6547  11930     1  0.0000000  0.0000000  3
   6542   6541   6547   6548     1  0.0000000  0.6508444  3
   6542   6541   6547   6549     1  0.0000000  0.6508444  3
   6543   6541   6547  11930     1  0.0000000  1.0460000  1
   6543   6541   6547  11930     1  0.0000000  0.0000000  3
   6543   6541   6547   6548     1  0.0000000  0.6508444  3
   6543   6541   6547   6549     1  0.0000000  0.6508444  3
   6547  11930  11926  11929     1  0.0000000  1.6038667  3
   6548   6547  11930  11926     1  0.0000000  1.6038667  3
   6549   6547  11930  11926     1  0.0000000  1.6038667  3
   6550  11953  11949  11952     1  0.0000000  1.6038667  3
   6551   6550  11953  11949     1  0.0000000  1.6038667  3
   6552   6550  11953  11949     1  0.0000000  1.6038667  3
   6554   6555   6567   6568     1  0.0000000  0.6508444  3
   6554   6555   6567   6569     1  0.0000000  0.6508444  3
   6554   6558   6570   6571     1  0.0000000  0.6508444  3
   6554   6558   6570   6572     1  0.0000000  0.6508444  3
   6554   6561   6564   6565     1  0.0000000  0.6508444  3
   6554   6561   6564   6566     1  0.0000000  0.6508444  3
   6555   6554   6558   6559     1  0.0000000  1.2552000  3
   6555   6554   6558   6560     1  0.0000000  1.2552000  3
   6555   6554   6561   6562     1  0.0000000  1.2552000  3
   6555   6554   6561   6563     1  0.0000000  1.2552000  3
   6555   6567   6579   6580     1  0.0000000  0.6508444  3
   6555   6567   6579   6581     1  0.0000000  0.6508444  3
   6556   6555   6554   6558     1  0.0000000  1.2552000  3
   6556   6555   6554   6561     1  0.0000000  1.2552000  3
   6556   6555   6567   6579     1  0.0000000  0.6508444  3
   6556   6555   6567   6568     1  0.0000000  0.6508444  3
   6556   6555   6567   6569     1  0.0000000  0.6508444  3
   6557   6555   6554   6558     1  0.0000000  1.2552000  3
   6557   6555   6554   6561     1  0.0000000  1.2552000  3
   6557   6555   6567   6579     1  0.0000000  0.6508444  3
   6557   6555   6567   6568     1  0.0000000  0.6508444  3
   6557   6555   6567   6569     1  0.0000000  0.6508444  3
   6558   6554   6561   6562     1  0.0000000  1.2552000  3
   6558   6554   6561   6563     1  0.0000000  1.2552000  3
   6558   6570   6576   6577     1  0.0000000  0.6508444  3
   6558   6570   6576   6578     1  0.0000000  0.6508444  3
   6559   6558   6554   6561     1  0.0000000  1.2552000  3
   6559   6558   6570   6576     1  0.0000000  0.6508444  3
   6559   6558   6570   6571     1  0.0000000  0.6508444  3
   6559   6558   6570   6572     1  0.0000000  0.6508444  3
   6560   6558   6554   6561     1  0.0000000  1.2552000  3
   6560   6558   6570   6576     1  0.0000000  0.6508444  3
   6560   6558   6570   6571     1  0.0000000  0.6508444  3
   6560   6558   6570   6572     1  0.0000000  0.6508444  3
   6561   6564   6573   6574     1  0.0000000  0.6508444  3
   6561   6564   6573   6575     1  0.0000000  0.6508444  3
   6562   6561   6564   6573     1  0.0000000  0.6508444  3
   6562   6561   6564   6565     1  0.0000000  0.6508444  3
   6562   6561   6564   6566     1  0.0000000  0.6508444  3
   6563   6561   6564   6573     1  0.0000000  0.6508444  3
   6563   6561   6564   6565     1  0.0000000  0.6508444  3
   6563   6561   6564   6566     1  0.0000000  0.6508444  3
   6565   6564   6573   6582     1  0.0000000  1.0460000  1
   6565   6564   6573   6582     1  0.0000000  0.0000000  3
   6565   6564   6573   6574     1  0.0000000  0.6508444  3
   6565   6564   6573   6575     1  0.0000000  0.6508444  3
   6566   6564   6573   6582     1  0.0000000  1.0460000  1
   6566   6564   6573   6582     1  0.0000000  0.0000000  3
   6566   6564   6573   6574     1  0.0000000  0.6508444  3
   6566   6564   6573   6575     1  0.0000000  0.6508444  3
   6568   6567   6579  11999     1  0.0000000  1.0460000  1
   6568   6567   6579  11999     1  0.0000000  0.0000000  3
   6568   6567   6579   6580     1  0.0000000  0.6508444  3
   6568   6567   6579   6581     1  0.0000000  0.6508444  3
   6569   6567   6579  11999     1  0.0000000  1.0460000  1
   6569   6567   6579  11999     1  0.0000000  0.0000000  3
   6569   6567   6579   6580     1  0.0000000  0.6508444  3
   6569   6567   6579   6581     1  0.0000000  0.6508444  3
   6571   6570   6576  11976     1  0.0000000  1.0460000  1
   6571   6570   6576  11976     1  0.0000000  0.0000000  3
   6571   6570   6576   6577     1  0.0000000  0.6508444  3
   6571   6570   6576   6578     1  0.0000000  0.6508444  3
   6572   6570   6576  11976     1  0.0000000  1.0460000  1
   6572   6570   6576  11976     1  0.0000000  0.0000000  3
   6572   6570   6576   6577     1  0.0000000  0.6508444  3
   6572   6570   6576   6578     1  0.0000000  0.6508444  3
   6576  11976  11972  11975     1  0.0000000  1.6038667  3
   6577   6576  11976  11972     1  0.0000000  1.6038667  3
   6578   6576  11976  11972     1  0.0000000  1.6038667  3
   6579  11999  11995  11998     1  0.0000000  1.6038667  3
   6580   6579  11999  11995     1  0.0000000  1.6038667  3
   6581   6579  11999  11995     1  0.0000000  1.6038667  3
   6583   6584   6596   6597     1  0.0000000  0.6508444  3
   6583   6584   6596   6598     1  0.0000000  0.6508444  3
   6583   6587   6599   6600     1  0.0000000  0.6508444  3
   6583   6587   6599   6601     1  0.0000000  0.6508444  3
   6583   6590   6593   6594     1  0.0000000  0.6508444  3
   6583   6590   6593   6595     1  0.0000000  0.6508444  3
   6584   6583   6587   6588     1  0.0000000  1.2552000  3
   6584   6583   6587   6589     1  0.0000000  1.2552000  3
   6584   6583   6590   6591     1  0.0000000  1.2552000  3
   6584   6583   6590   6592     1  0.0000000  1.2552000  3
   6584   6596   6608   6609     1  0.0000000  0.6508444  3
   6584   6596   6608   6610     1  0.0000000  0.6508444  3
   6585   6584   6583   6587     1  0.0000000  1.2552000  3
   6585   6584   6583   6590     1  0.0000000  1.2552000  3
   6585   6584   6596   6608     1  0.0000000  0.6508444  3
   6585   6584   6596   6597     1  0.0000000  0.6508444  3
   6585   6584   6596   6598     1  0.0000000  0.6508444  3
   6586   6584   6583   6587     1  0.0000000  1.2552000  3
   6586   6584   6583   6590     1  0.0000000  1.2552000  3
   6586   6584   6596   6608     1  0.0000000  0.6508444  3
   6586   6584   6596   6597     1  0.0000000  0.6508444  3
   6586   6584   6596   6598     1  0.0000000  0.6508444  3
   6587   6583   6590   6591     1  0.0000000  1.2552000  3
   6587   6583   6590   6592     1  0.0000000  1.2552000  3
   6587   6599   6605   6606     1  0.0000000  0.6508444  3
   6587   6599   6605   6607     1  0.0000000  0.6508444  3
   6588   6587   6583   6590     1  0.0000000  1.2552000  3
   6588   6587   6599   6605     1  0.0000000  0.6508444  3
   6588   6587   6599   6600     1  0.0000000  0.6508444  3
   6588   6587   6599   6601     1  0.0000000  0.6508444  3
   6589   6587   6583   6590     1  0.0000000  1.2552000  3
   6589   6587   6599   6605     1  0.0000000  0.6508444  3
   6589   6587   6599   6600     1  0.0000000  0.6508444  3
   6589   6587   6599   6601     1  0.0000000  0.6508444  3
   6590   6593   6602   6603     1  0.0000000  0.6508444  3
   6590   6593   6602   6604     1  0.0000000  0.6508444  3
   6591   6590   6593   6602     1  0.0000000  0.6508444  3
   6591   6590   6593   6594     1  0.0000000  0.6508444  3
   6591   6590   6593   6595     1  0.0000000  0.6508444  3
   6592   6590   6593   6602     1  0.0000000  0.6508444  3
   6592   6590   6593   6594     1  0.0000000  0.6508444  3
   6592   6590   6593   6595     1  0.0000000  0.6508444  3
   6594   6593   6602   6611     1  0.0000000  1.0460000  1
   6594   6593   6602   6611     1  0.0000000  0.0000000  3
   6594   6593   6602   6603     1  0.0000000  0.6508444  3
   6594   6593   6602   6604     1  0.0000000  0.6508444  3
   6595   6593   6602   6611     1  0.0000000  1.0460000  1
   6595   6593   6602   6611     1  0.0000000  0.0000000  3
   6595   6593   6602   6603     1  0.0000000  0.6508444  3
   6595   6593   6602   6604     1  0.0000000  0.6508444  3
   6597   6596   6608  12045     1  0.0000000  1.0460000  1
   6597   6596   6608  12045     1  0.0000000  0.0000000  3
   6597   6596   6608   6609     1  0.0000000  0.6508444  3
   6597   6596   6608   6610     1  0.0000000  0.6508444  3
   6598   6596   6608  12045     1  0.0000000  1.0460000  1
   6598   6596   6608  12045     1  0.0000000  0.0000000  3
   6598   6596   6608   6609     1  0.0000000  0.6508444  3
   6598   6596   6608   6610     1  0.0000000  0.6508444  3
   6600   6599   6605  12022     1  0.0000000  1.0460000  1
   6600   6599   6605  12022     1  0.0000000  0.0000000  3
   6600   6599   6605   6606     1  0.0000000  0.6508444  3
   6600   6599   6605   6607     1  0.0000000  0.6508444  3
   6601   6599   6605  12022     1  0.0000000  1.0460000  1
   6601   6599   6605  12022     1  0.0000000  0.0000000  3
   6601   6599   6605   6606     1  0.0000000  0.6508444  3
   6601   6599   6605   6607     1  0.0000000  0.6508444  3
   6605  12022  12018  12021     1  0.0000000  1.6038667  3
   6606   6605  12022  12018     1  0.0000000  1.6038667  3
   6607   6605  12022  12018     1  0.0000000  1.6038667  3
   6608  12045  12041  12044     1  0.0000000  1.6038667  3
   6609   6608  12045  12041     1  0.0000000  1.6038667  3
   6610   6608  12045  12041     1  0.0000000  1.6038667  3
   6612   6613   6625   6626     1  0.0000000  0.6508444  3
   6612   6613   6625   6627     1  0.0000000  0.6508444  3
   6612   6616   6628   6629     1  0.0000000  0.6508444  3
   6612   6616   6628   6630     1  0.0000000  0.6508444  3
   6612   6619   6622   6623     1  0.0000000  0.6508444  3
   6612   6619   6622   6624     1  0.0000000  0.6508444  3
   6613   6612   6616   6617     1  0.0000000  1.2552000  3
   6613   6612   6616   6618     1  0.0000000  1.2552000  3
   6613   6612   6619   6620     1  0.0000000  1.2552000  3
   6613   6612   6619   6621     1  0.0000000  1.2552000  3
   6613   6625   6637   6638     1  0.0000000  0.6508444  3
   6613   6625   6637   6639     1  0.0000000  0.6508444  3
   6614   6613   6612   6616     1  0.0000000  1.2552000  3
   6614   6613   6612   6619     1  0.0000000  1.2552000  3
   6614   6613   6625   6637     1  0.0000000  0.6508444  3
   6614   6613   6625   6626     1  0.0000000  0.6508444  3
   6614   6613   6625   6627     1  0.0000000  0.6508444  3
   6615   6613   6612   6616     1  0.0000000  1.2552000  3
   6615   6613   6612   6619     1  0.0000000  1.2552000  3
   6615   6613   6625   6637     1  0.0000000  0.6508444  3
   6615   6613   6625   6626     1  0.0000000  0.6508444  3
   6615   6613   6625   6627     1  0.0000000  0.6508444  3
   6616   6612   6619   6620     1  0.0000000  1.2552000  3
   6616   6612   6619   6621     1  0.0000000  1.2552000  3
   6616   6628   6634   6635     1  0.0000000  0.6508444  3
   6616   6628   6634   6636     1  0.0000000  0.6508444  3
   6617   6616   6612   6619     1  0.0000000  1.2552000  3
   6617   6616   6628   6634     1  0.0000000  0.6508444  3
   6617   6616   6628   6629     1  0.0000000  0.6508444  3
   6617   6616   6628   6630     1  0.0000000  0.6508444  3
   6618   6616   6612   6619     1  0.0000000  1.2552000  3
   6618   6616   6628   6634     1  0.0000000  0.6508444  3
   6618   6616   6628   6629     1  0.0000000  0.6508444  3
   6618   6616   6628   6630     1  0.0000000  0.6508444  3
   6619   6622   6631   6632     1  0.0000000  0.6508444  3
   6619   6622   6631   6633     1  0.0000000  0.6508444  3
   6620   6619   6622   6631     1  0.0000000  0.6508444  3
   6620   6619   6622   6623     1  0.0000000  0.6508444  3
   6620   6619   6622   6624     1  0.0000000  0.6508444  3
   6621   6619   6622   6631     1  0.0000000  0.6508444  3
   6621   6619   6622   6623     1  0.0000000  0.6508444  3
   6621   6619   6622   6624     1  0.0000000  0.6508444  3
   6623   6622   6631   6640     1  0.0000000  1.0460000  1
   6623   6622   6631   6640     1  0.0000000  0.0000000  3
   6623   6622   6631   6632     1  0.0000000  0.6508444  3
   6623   6622   6631   6633     1  0.0000000  0.6508444  3
   6624   6622   6631   6640     1  0.0000000  1.0460000  1
   6624   6622   6631   6640     1  0.0000000  0.0000000  3
   6624   6622   6631   6632     1  0.0000000  0.6508444  3
   6624   6622   6631   6633     1  0.0000000  0.6508444  3
   6626   6625   6637  12091     1  0.0000000  1.0460000  1
   6626   6625   6637  12091     1  0.0000000  0.0000000  3
   6626   6625   6637   6638     1  0.0000000  0.6508444  3
   6626   6625   6637   6639     1  0.0000000  0.6508444  3
   6627   6625   6637  12091     1  0.0000000  1.0460000  1
   6627   6625   6637  12091     1  0.0000000  0.0000000  3
   6627   6625   6637   6638     1  0.0000000  0.6508444  3
   6627   6625   6637   6639     1  0.0000000  0.6508444  3
   6629   6628   6634  12068     1  0.0000000  1.0460000  1
   6629   6628   6634  12068     1  0.0000000  0.0000000  3
   6629   6628   6634   6635     1  0.0000000  0.6508444  3
   6629   6628   6634   6636     1  0.0000000  0.6508444  3
   6630   6628   6634  12068     1  0.0000000  1.0460000  1
   6630   6628   6634  12068     1  0.0000000  0.0000000  3
   6630   6628   6634   6635     1  0.0000000  0.6508444  3
   6630   6628   6634   6636     1  0.0000000  0.6508444  3
   6634  12068  12064  12067     1  0.0000000  1.6038667  3
   6635   6634  12068  12064     1  0.0000000  1.6038667  3
   6636   6634  12068  12064     1  0.0000000  1.6038667  3
   6637  12091  12087  12090     1  0.0000000  1.6038667  3
   6638   6637  12091  12087     1  0.0000000  1.6038667  3
   6639   6637  12091  12087     1  0.0000000  1.6038667  3
   6641   6642   6654   6655     1  0.0000000  0.6508444  3
   6641   6642   6654   6656     1  0.0000000  0.6508444  3
   6641   6645   6657   6658     1  0.0000000  0.6508444  3
   6641   6645   6657   6659     1  0.0000000  0.6508444  3
   6641   6648   6651   6652     1  0.0000000  0.6508444  3
   6641   6648   6651   6653     1  0.0000000  0.6508444  3
   6642   6641   6645   6646     1  0.0000000  1.2552000  3
   6642   6641   6645   6647     1  0.0000000  1.2552000  3
   6642   6641   6648   6649     1  0.0000000  1.2552000  3
   6642   6641   6648   6650     1  0.0000000  1.2552000  3
   6642   6654   6666   6667     1  0.0000000  0.6508444  3
   6642   6654   6666   6668     1  0.0000000  0.6508444  3
   6643   6642   6641   6645     1  0.0000000  1.2552000  3
   6643   6642   6641   6648     1  0.0000000  1.2552000  3
   6643   6642   6654   6666     1  0.0000000  0.6508444  3
   6643   6642   6654   6655     1  0.0000000  0.6508444  3
   6643   6642   6654   6656     1  0.0000000  0.6508444  3
   6644   6642   6641   6645     1  0.0000000  1.2552000  3
   6644   6642   6641   6648     1  0.0000000  1.2552000  3
   6644   6642   6654   6666     1  0.0000000  0.6508444  3
   6644   6642   6654   6655     1  0.0000000  0.6508444  3
   6644   6642   6654   6656     1  0.0000000  0.6508444  3
   6645   6641   6648   6649     1  0.0000000  1.2552000  3
   6645   6641   6648   6650     1  0.0000000  1.2552000  3
   6645   6657   6663   6664     1  0.0000000  0.6508444  3
   6645   6657   6663   6665     1  0.0000000  0.6508444  3
   6646   6645   6641   6648     1  0.0000000  1.2552000  3
   6646   6645   6657   6663     1  0.0000000  0.6508444  3
   6646   6645   6657   6658     1  0.0000000  0.6508444  3
   6646   6645   6657   6659     1  0.0000000  0.6508444  3
   6647   6645   6641   6648     1  0.0000000  1.2552000  3
   6647   6645   6657   6663     1  0.0000000  0.6508444  3
   6647   6645   6657   6658     1  0.0000000  0.6508444  3
   6647   6645   6657   6659     1  0.0000000  0.6508444  3
   6648   6651   6660   6661     1  0.0000000  0.6508444  3
   6648   6651   6660   6662     1  0.0000000  0.6508444  3
   6649   6648   6651   6660     1  0.0000000  0.6508444  3
   6649   6648   6651   6652     1  0.0000000  0.6508444  3
   6649   6648   6651   6653     1  0.0000000  0.6508444  3
   6650   6648   6651   6660     1  0.0000000  0.6508444  3
   6650   6648   6651   6652     1  0.0000000  0.6508444  3
   6650   6648   6651   6653     1  0.0000000  0.6508444  3
   6652   6651   6660   6669     1  0.0000000  1.0460000  1
   6652   6651   6660   6669     1  0.0000000  0.0000000  3
   6652   6651   6660   6661     1  0.0000000  0.6508444  3
   6652   6651   6660   6662     1  0.0000000  0.6508444  3
   6653   6651   6660   6669     1  0.0000000  1.0460000  1
   6653   6651   6660   6669     1  0.0000000  0.0000000  3
   6653   6651   6660   6661     1  0.0000000  0.6508444  3
   6653   6651   6660   6662     1  0.0000000  0.6508444  3
   6655   6654   6666  12137     1  0.0000000  1.0460000  1
   6655   6654   6666  12137     1  0.0000000  0.0000000  3
   6655   6654   6666   6667     1  0.0000000  0.6508444  3
   6655   6654   6666   6668     1  0.0000000  0.6508444  3
   6656   6654   6666  12137     1  0.0000000  1.0460000  1
   6656   6654   6666  12137     1  0.0000000  0.0000000  3
   6656   6654   6666   6667     1  0.0000000  0.6508444  3
   6656   6654   6666   6668     1  0.0000000  0.6508444  3
   6658   6657   6663  12114     1  0.0000000  1.0460000  1
   6658   6657   6663  12114     1  0.0000000  0.0000000  3
   6658   6657   6663   6664     1  0.0000000  0.6508444  3
   6658   6657   6663   6665     1  0.0000000  0.6508444  3
   6659   6657   6663  12114     1  0.0000000  1.0460000  1
   6659   6657   6663  12114     1  0.0000000  0.0000000  3
   6659   6657   6663   6664     1  0.0000000  0.6508444  3
   6659   6657   6663   6665     1  0.0000000  0.6508444  3
   6663  12114  12110  12113     1  0.0000000  1.6038667  3
   6664   6663  12114  12110     1  0.0000000  1.6038667  3
   6665   6663  12114  12110     1  0.0000000  1.6038667  3
   6666  12137  12133  12136     1  0.0000000  1.6038667  3
   6667   6666  12137  12133     1  0.0000000  1.6038667  3
   6668   6666  12137  12133     1  0.0000000  1.6038667  3
   6670   6671   6683   6684     1  0.0000000  0.6508444  3
   6670   6671   6683   6685     1  0.0000000  0.6508444  3
   6670   6674   6686   6687     1  0.0000000  0.6508444  3
   6670   6674   6686   6688     1  0.0000000  0.6508444  3
   6670   6677   6680   6681     1  0.0000000  0.6508444  3
   6670   6677   6680   6682     1  0.0000000  0.6508444  3
   6671   6670   6674   6675     1  0.0000000  1.2552000  3
   6671   6670   6674   6676     1  0.0000000  1.2552000  3
   6671   6670   6677   6678     1  0.0000000  1.2552000  3
   6671   6670   6677   6679     1  0.0000000  1.2552000  3
   6671   6683   6695   6696     1  0.0000000  0.6508444  3
   6671   6683   6695   6697     1  0.0000000  0.6508444  3
   6672   6671   6670   6674     1  0.0000000  1.2552000  3
   6672   6671   6670   6677     1  0.0000000  1.2552000  3
   6672   6671   6683   6695     1  0.0000000  0.6508444  3
   6672   6671   6683   6684     1  0.0000000  0.6508444  3
   6672   6671   6683   6685     1  0.0000000  0.6508444  3
   6673   6671   6670   6674     1  0.0000000  1.2552000  3
   6673   6671   6670   6677     1  0.0000000  1.2552000  3
   6673   6671   6683   6695     1  0.0000000  0.6508444  3
   6673   6671   6683   6684     1  0.0000000  0.6508444  3
   6673   6671   6683   6685     1  0.0000000  0.6508444  3
   6674   6670   6677   6678     1  0.0000000  1.2552000  3
   6674   6670   6677   6679     1  0.0000000  1.2552000  3
   6674   6686   6692   6693     1  0.0000000  0.6508444  3
   6674   6686   6692   6694     1  0.0000000  0.6508444  3
   6675   6674   6670   6677     1  0.0000000  1.2552000  3
   6675   6674   6686   6692     1  0.0000000  0.6508444  3
   6675   6674   6686   6687     1  0.0000000  0.6508444  3
   6675   6674   6686   6688     1  0.0000000  0.6508444  3
   6676   6674   6670   6677     1  0.0000000  1.2552000  3
   6676   6674   6686   6692     1  0.0000000  0.6508444  3
   6676   6674   6686   6687     1  0.0000000  0.6508444  3
   6676   6674   6686   6688     1  0.0000000  0.6508444  3
   6677   6680   6689   6690     1  0.0000000  0.6508444  3
   6677   6680   6689   6691     1  0.0000000  0.6508444  3
   6678   6677   6680   6689     1  0.0000000  0.6508444  3
   6678   6677   6680   6681     1  0.0000000  0.6508444  3
   6678   6677   6680   6682     1  0.0000000  0.6508444  3
   6679   6677   6680   6689     1  0.0000000  0.6508444  3
   6679   6677   6680   6681     1  0.0000000  0.6508444  3
   6679   6677   6680   6682     1  0.0000000  0.6508444  3
   6681   6680   6689   6698     1  0.0000000  1.0460000  1
   6681   6680   6689   6698     1  0.0000000  0.0000000  3
   6681   6680   6689   6690     1  0.0000000  0.6508444  3
   6681   6680   6689   6691     1  0.0000000  0.6508444  3
   6682   6680   6689   6698     1  0.0000000  1.0460000  1
   6682   6680   6689   6698     1  0.0000000  0.0000000  3
   6682   6680   6689   6690     1  0.0000000  0.6508444  3
   6682   6680   6689   6691     1  0.0000000  0.6508444  3
   6684   6683   6695  12183     1  0.0000000  1.0460000  1
   6684   6683   6695  12183     1  0.0000000  0.0000000  3
   6684   6683   6695   6696     1  0.0000000  0.6508444  3
   6684   6683   6695   6697     1  0.0000000  0.6508444  3
   6685   6683   6695  12183     1  0.0000000  1.0460000  1
   6685   6683   6695  12183     1  0.0000000  0.0000000  3
   6685   6683   6695   6696     1  0.0000000  0.6508444  3
   6685   6683   6695   6697     1  0.0000000  0.6508444  3
   6687   6686   6692  12160     1  0.0000000  1.0460000  1
   6687   6686   6692  12160     1  0.0000000  0.0000000  3
   6687   6686   6692   6693     1  0.0000000  0.6508444  3
   6687   6686   6692   6694     1  0.0000000  0.6508444  3
   6688   6686   6692  12160     1  0.0000000  1.0460000  1
   6688   6686   6692  12160     1  0.0000000  0.0000000  3
   6688   6686   6692   6693     1  0.0000000  0.6508444  3
   6688   6686   6692   6694     1  0.0000000  0.6508444  3
   6692  12160  12156  12159     1  0.0000000  1.6038667  3
   6693   6692  12160  12156     1  0.0000000  1.6038667  3
   6694   6692  12160  12156     1  0.0000000  1.6038667  3
   6695  12183  12179  12182     1  0.0000000  1.6038667  3
   6696   6695  12183  12179     1  0.0000000  1.6038667  3
   6697   6695  12183  12179     1  0.0000000  1.6038667  3
   6699   6700   6712   6713     1  0.0000000  0.6508444  3
   6699   6700   6712   6714     1  0.0000000  0.6508444  3
   6699   6703   6715   6716     1  0.0000000  0.6508444  3
   6699   6703   6715   6717     1  0.0000000  0.6508444  3
   6699   6706   6709   6710     1  0.0000000  0.6508444  3
   6699   6706   6709   6711     1  0.0000000  0.6508444  3
   6700   6699   6703   6704     1  0.0000000  1.2552000  3
   6700   6699   6703   6705     1  0.0000000  1.2552000  3
   6700   6699   6706   6707     1  0.0000000  1.2552000  3
   6700   6699   6706   6708     1  0.0000000  1.2552000  3
   6700   6712   6724   6725     1  0.0000000  0.6508444  3
   6700   6712   6724   6726     1  0.0000000  0.6508444  3
   6701   6700   6699   6703     1  0.0000000  1.2552000  3
   6701   6700   6699   6706     1  0.0000000  1.2552000  3
   6701   6700   6712   6724     1  0.0000000  0.6508444  3
   6701   6700   6712   6713     1  0.0000000  0.6508444  3
   6701   6700   6712   6714     1  0.0000000  0.6508444  3
   6702   6700   6699   6703     1  0.0000000  1.2552000  3
   6702   6700   6699   6706     1  0.0000000  1.2552000  3
   6702   6700   6712   6724     1  0.0000000  0.6508444  3
   6702   6700   6712   6713     1  0.0000000  0.6508444  3
   6702   6700   6712   6714     1  0.0000000  0.6508444  3
   6703   6699   6706   6707     1  0.0000000  1.2552000  3
   6703   6699   6706   6708     1  0.0000000  1.2552000  3
   6703   6715   6721   6722     1  0.0000000  0.6508444  3
   6703   6715   6721   6723     1  0.0000000  0.6508444  3
   6704   6703   6699   6706     1  0.0000000  1.2552000  3
   6704   6703   6715   6721     1  0.0000000  0.6508444  3
   6704   6703   6715   6716     1  0.0000000  0.6508444  3
   6704   6703   6715   6717     1  0.0000000  0.6508444  3
   6705   6703   6699   6706     1  0.0000000  1.2552000  3
   6705   6703   6715   6721     1  0.0000000  0.6508444  3
   6705   6703   6715   6716     1  0.0000000  0.6508444  3
   6705   6703   6715   6717     1  0.0000000  0.6508444  3
   6706   6709   6718   6719     1  0.0000000  0.6508444  3
   6706   6709   6718   6720     1  0.0000000  0.6508444  3
   6707   6706   6709   6718     1  0.0000000  0.6508444  3
   6707   6706   6709   6710     1  0.0000000  0.6508444  3
   6707   6706   6709   6711     1  0.0000000  0.6508444  3
   6708   6706   6709   6718     1  0.0000000  0.6508444  3
   6708   6706   6709   6710     1  0.0000000  0.6508444  3
   6708   6706   6709   6711     1  0.0000000  0.6508444  3
   6710   6709   6718   6727     1  0.0000000  1.0460000  1
   6710   6709   6718   6727     1  0.0000000  0.0000000  3
   6710   6709   6718   6719     1  0.0000000  0.6508444  3
   6710   6709   6718   6720     1  0.0000000  0.6508444  3
   6711   6709   6718   6727     1  0.0000000  1.0460000  1
   6711   6709   6718   6727     1  0.0000000  0.0000000  3
   6711   6709   6718   6719     1  0.0000000  0.6508444  3
   6711   6709   6718   6720     1  0.0000000  0.6508444  3
   6713   6712   6724  12229     1  0.0000000  1.0460000  1
   6713   6712   6724  12229     1  0.0000000  0.0000000  3
   6713   6712   6724   6725     1  0.0000000  0.6508444  3
   6713   6712   6724   6726     1  0.0000000  0.6508444  3
   6714   6712   6724  12229     1  0.0000000  1.0460000  1
   6714   6712   6724  12229     1  0.0000000  0.0000000  3
   6714   6712   6724   6725     1  0.0000000  0.6508444  3
   6714   6712   6724   6726     1  0.0000000  0.6508444  3
   6716   6715   6721  12206     1  0.0000000  1.0460000  1
   6716   6715   6721  12206     1  0.0000000  0.0000000  3
   6716   6715   6721   6722     1  0.0000000  0.6508444  3
   6716   6715   6721   6723     1  0.0000000  0.6508444  3
   6717   6715   6721  12206     1  0.0000000  1.0460000  1
   6717   6715   6721  12206     1  0.0000000  0.0000000  3
   6717   6715   6721   6722     1  0.0000000  0.6508444  3
   6717   6715   6721   6723     1  0.0000000  0.6508444  3
   6721  12206  12202  12205     1  0.0000000  1.6038667  3
   6722   6721  12206  12202     1  0.0000000  1.6038667  3
   6723   6721  12206  12202     1  0.0000000  1.6038667  3
   6724  12229  12225  12228     1  0.0000000  1.6038667  3
   6725   6724  12229  12225     1  0.0000000  1.6038667  3
   6726   6724  12229  12225     1  0.0000000  1.6038667  3
   6728   6729   6741   6742     1  0.0000000  0.6508444  3
   6728   6729   6741   6743     1  0.0000000  0.6508444  3
   6728   6732   6744   6745     1  0.0000000  0.6508444  3
   6728   6732   6744   6746     1  0.0000000  0.6508444  3
   6728   6735   6738   6739     1  0.0000000  0.6508444  3
   6728   6735   6738   6740     1  0.0000000  0.6508444  3
   6729   6728   6732   6733     1  0.0000000  1.2552000  3
   6729   6728   6732   6734     1  0.0000000  1.2552000  3
   6729   6728   6735   6736     1  0.0000000  1.2552000  3
   6729   6728   6735   6737     1  0.0000000  1.2552000  3
   6729   6741   6753   6754     1  0.0000000  0.6508444  3
   6729   6741   6753   6755     1  0.0000000  0.6508444  3
   6730   6729   6728   6732     1  0.0000000  1.2552000  3
   6730   6729   6728   6735     1  0.0000000  1.2552000  3
   6730   6729   6741   6753     1  0.0000000  0.6508444  3
   6730   6729   6741   6742     1  0.0000000  0.6508444  3
   6730   6729   6741   6743     1  0.0000000  0.6508444  3
   6731   6729   6728   6732     1  0.0000000  1.2552000  3
   6731   6729   6728   6735     1  0.0000000  1.2552000  3
   6731   6729   6741   6753     1  0.0000000  0.6508444  3
   6731   6729   6741   6742     1  0.0000000  0.6508444  3
   6731   6729   6741   6743     1  0.0000000  0.6508444  3
   6732   6728   6735   6736     1  0.0000000  1.2552000  3
   6732   6728   6735   6737     1  0.0000000  1.2552000  3
   6732   6744   6750   6751     1  0.0000000  0.6508444  3
   6732   6744   6750   6752     1  0.0000000  0.6508444  3
   6733   6732   6728   6735     1  0.0000000  1.2552000  3
   6733   6732   6744   6750     1  0.0000000  0.6508444  3
   6733   6732   6744   6745     1  0.0000000  0.6508444  3
   6733   6732   6744   6746     1  0.0000000  0.6508444  3
   6734   6732   6728   6735     1  0.0000000  1.2552000  3
   6734   6732   6744   6750     1  0.0000000  0.6508444  3
   6734   6732   6744   6745     1  0.0000000  0.6508444  3
   6734   6732   6744   6746     1  0.0000000  0.6508444  3
   6735   6738   6747   6748     1  0.0000000  0.6508444  3
   6735   6738   6747   6749     1  0.0000000  0.6508444  3
   6736   6735   6738   6747     1  0.0000000  0.6508444  3
   6736   6735   6738   6739     1  0.0000000  0.6508444  3
   6736   6735   6738   6740     1  0.0000000  0.6508444  3
   6737   6735   6738   6747     1  0.0000000  0.6508444  3
   6737   6735   6738   6739     1  0.0000000  0.6508444  3
   6737   6735   6738   6740     1  0.0000000  0.6508444  3
   6739   6738   6747   6756     1  0.0000000  1.0460000  1
   6739   6738   6747   6756     1  0.0000000  0.0000000  3
   6739   6738   6747   6748     1  0.0000000  0.6508444  3
   6739   6738   6747   6749     1  0.0000000  0.6508444  3
   6740   6738   6747   6756     1  0.0000000  1.0460000  1
   6740   6738   6747   6756     1  0.0000000  0.0000000  3
   6740   6738   6747   6748     1  0.0000000  0.6508444  3
   6740   6738   6747   6749     1  0.0000000  0.6508444  3
   6742   6741   6753  12275     1  0.0000000  1.0460000  1
   6742   6741   6753  12275     1  0.0000000  0.0000000  3
   6742   6741   6753   6754     1  0.0000000  0.6508444  3
   6742   6741   6753   6755     1  0.0000000  0.6508444  3
   6743   6741   6753  12275     1  0.0000000  1.0460000  1
   6743   6741   6753  12275     1  0.0000000  0.0000000  3
   6743   6741   6753   6754     1  0.0000000  0.6508444  3
   6743   6741   6753   6755     1  0.0000000  0.6508444  3
   6745   6744   6750  12252     1  0.0000000  1.0460000  1
   6745   6744   6750  12252     1  0.0000000  0.0000000  3
   6745   6744   6750   6751     1  0.0000000  0.6508444  3
   6745   6744   6750   6752     1  0.0000000  0.6508444  3
   6746   6744   6750  12252     1  0.0000000  1.0460000  1
   6746   6744   6750  12252     1  0.0000000  0.0000000  3
   6746   6744   6750   6751     1  0.0000000  0.6508444  3
   6746   6744   6750   6752     1  0.0000000  0.6508444  3
   6750  12252  12248  12251     1  0.0000000  1.6038667  3
   6751   6750  12252  12248     1  0.0000000  1.6038667  3
   6752   6750  12252  12248     1  0.0000000  1.6038667  3
   6753  12275  12271  12274     1  0.0000000  1.6038667  3
   6754   6753  12275  12271     1  0.0000000  1.6038667  3
   6755   6753  12275  12271     1  0.0000000  1.6038667  3
   6757   6758   6770   6771     1  0.0000000  0.6508444  3
   6757   6758   6770   6772     1  0.0000000  0.6508444  3
   6757   6761   6773   6774     1  0.0000000  0.6508444  3
   6757   6761   6773   6775     1  0.0000000  0.6508444  3
   6757   6764   6767   6768     1  0.0000000  0.6508444  3
   6757   6764   6767   6769     1  0.0000000  0.6508444  3
   6758   6757   6761   6762     1  0.0000000  1.2552000  3
   6758   6757   6761   6763     1  0.0000000  1.2552000  3
   6758   6757   6764   6765     1  0.0000000  1.2552000  3
   6758   6757   6764   6766     1  0.0000000  1.2552000  3
   6758   6770   6782   6783     1  0.0000000  0.6508444  3
   6758   6770   6782   6784     1  0.0000000  0.6508444  3
   6759   6758   6757   6761     1  0.0000000  1.2552000  3
   6759   6758   6757   6764     1  0.0000000  1.2552000  3
   6759   6758   6770   6782     1  0.0000000  0.6508444  3
   6759   6758   6770   6771     1  0.0000000  0.6508444  3
   6759   6758   6770   6772     1  0.0000000  0.6508444  3
   6760   6758   6757   6761     1  0.0000000  1.2552000  3
   6760   6758   6757   6764     1  0.0000000  1.2552000  3
   6760   6758   6770   6782     1  0.0000000  0.6508444  3
   6760   6758   6770   6771     1  0.0000000  0.6508444  3
   6760   6758   6770   6772     1  0.0000000  0.6508444  3
   6761   6757   6764   6765     1  0.0000000  1.2552000  3
   6761   6757   6764   6766     1  0.0000000  1.2552000  3
   6761   6773   6779   6780     1  0.0000000  0.6508444  3
   6761   6773   6779   6781     1  0.0000000  0.6508444  3
   6762   6761   6757   6764     1  0.0000000  1.2552000  3
   6762   6761   6773   6779     1  0.0000000  0.6508444  3
   6762   6761   6773   6774     1  0.0000000  0.6508444  3
   6762   6761   6773   6775     1  0.0000000  0.6508444  3
   6763   6761   6757   6764     1  0.0000000  1.2552000  3
   6763   6761   6773   6779     1  0.0000000  0.6508444  3
   6763   6761   6773   6774     1  0.0000000  0.6508444  3
   6763   6761   6773   6775     1  0.0000000  0.6508444  3
   6764   6767   6776   6777     1  0.0000000  0.6508444  3
   6764   6767   6776   6778     1  0.0000000  0.6508444  3
   6765   6764   6767   6776     1  0.0000000  0.6508444  3
   6765   6764   6767   6768     1  0.0000000  0.6508444  3
   6765   6764   6767   6769     1  0.0000000  0.6508444  3
   6766   6764   6767   6776     1  0.0000000  0.6508444  3
   6766   6764   6767   6768     1  0.0000000  0.6508444  3
   6766   6764   6767   6769     1  0.0000000  0.6508444  3
   6768   6767   6776   6785     1  0.0000000  1.0460000  1
   6768   6767   6776   6785     1  0.0000000  0.0000000  3
   6768   6767   6776   6777     1  0.0000000  0.6508444  3
   6768   6767   6776   6778     1  0.0000000  0.6508444  3
   6769   6767   6776   6785     1  0.0000000  1.0460000  1
   6769   6767   6776   6785     1  0.0000000  0.0000000  3
   6769   6767   6776   6777     1  0.0000000  0.6508444  3
   6769   6767   6776   6778     1  0.0000000  0.6508444  3
   6771   6770   6782  12321     1  0.0000000  1.0460000  1
   6771   6770   6782  12321     1  0.0000000  0.0000000  3
   6771   6770   6782   6783     1  0.0000000  0.6508444  3
   6771   6770   6782   6784     1  0.0000000  0.6508444  3
   6772   6770   6782  12321     1  0.0000000  1.0460000  1
   6772   6770   6782  12321     1  0.0000000  0.0000000  3
   6772   6770   6782   6783     1  0.0000000  0.6508444  3
   6772   6770   6782   6784     1  0.0000000  0.6508444  3
   6774   6773   6779  12298     1  0.0000000  1.0460000  1
   6774   6773   6779  12298     1  0.0000000  0.0000000  3
   6774   6773   6779   6780     1  0.0000000  0.6508444  3
   6774   6773   6779   6781     1  0.0000000  0.6508444  3
   6775   6773   6779  12298     1  0.0000000  1.0460000  1
   6775   6773   6779  12298     1  0.0000000  0.0000000  3
   6775   6773   6779   6780     1  0.0000000  0.6508444  3
   6775   6773   6779   6781     1  0.0000000  0.6508444  3
   6779  12298  12294  12297     1  0.0000000  1.6038667  3
   6780   6779  12298  12294     1  0.0000000  1.6038667  3
   6781   6779  12298  12294     1  0.0000000  1.6038667  3
   6782  12321  12317  12320     1  0.0000000  1.6038667  3
   6783   6782  12321  12317     1  0.0000000  1.6038667  3
   6784   6782  12321  12317     1  0.0000000  1.6038667  3
   6786   6787   6799   6800     1  0.0000000  0.6508444  3
   6786   6787   6799   6801     1  0.0000000  0.6508444  3
   6786   6790   6802   6803     1  0.0000000  0.6508444  3
   6786   6790   6802   6804     1  0.0000000  0.6508444  3
   6786   6793   6796   6797     1  0.0000000  0.6508444  3
   6786   6793   6796   6798     1  0.0000000  0.6508444  3
   6787   6786   6790   6791     1  0.0000000  1.2552000  3
   6787   6786   6790   6792     1  0.0000000  1.2552000  3
   6787   6786   6793   6794     1  0.0000000  1.2552000  3
   6787   6786   6793   6795     1  0.0000000  1.2552000  3
   6787   6799   6811   6812     1  0.0000000  0.6508444  3
   6787   6799   6811   6813     1  0.0000000  0.6508444  3
   6788   6787   6786   6790     1  0.0000000  1.2552000  3
   6788   6787   6786   6793     1  0.0000000  1.2552000  3
   6788   6787   6799   6811     1  0.0000000  0.6508444  3
   6788   6787   6799   6800     1  0.0000000  0.6508444  3
   6788   6787   6799   6801     1  0.0000000  0.6508444  3
   6789   6787   6786   6790     1  0.0000000  1.2552000  3
   6789   6787   6786   6793     1  0.0000000  1.2552000  3
   6789   6787   6799   6811     1  0.0000000  0.6508444  3
   6789   6787   6799   6800     1  0.0000000  0.6508444  3
   6789   6787   6799   6801     1  0.0000000  0.6508444  3
   6790   6786   6793   6794     1  0.0000000  1.2552000  3
   6790   6786   6793   6795     1  0.0000000  1.2552000  3
   6790   6802   6808   6809     1  0.0000000  0.6508444  3
   6790   6802   6808   6810     1  0.0000000  0.6508444  3
   6791   6790   6786   6793     1  0.0000000  1.2552000  3
   6791   6790   6802   6808     1  0.0000000  0.6508444  3
   6791   6790   6802   6803     1  0.0000000  0.6508444  3
   6791   6790   6802   6804     1  0.0000000  0.6508444  3
   6792   6790   6786   6793     1  0.0000000  1.2552000  3
   6792   6790   6802   6808     1  0.0000000  0.6508444  3
   6792   6790   6802   6803     1  0.0000000  0.6508444  3
   6792   6790   6802   6804     1  0.0000000  0.6508444  3
   6793   6796   6805   6806     1  0.0000000  0.6508444  3
   6793   6796   6805   6807     1  0.0000000  0.6508444  3
   6794   6793   6796   6805     1  0.0000000  0.6508444  3
   6794   6793   6796   6797     1  0.0000000  0.6508444  3
   6794   6793   6796   6798     1  0.0000000  0.6508444  3
   6795   6793   6796   6805     1  0.0000000  0.6508444  3
   6795   6793   6796   6797     1  0.0000000  0.6508444  3
   6795   6793   6796   6798     1  0.0000000  0.6508444  3
   6797   6796   6805   6814     1  0.0000000  1.0460000  1
   6797   6796   6805   6814     1  0.0000000  0.0000000  3
   6797   6796   6805   6806     1  0.0000000  0.6508444  3
   6797   6796   6805   6807     1  0.0000000  0.6508444  3
   6798   6796   6805   6814     1  0.0000000  1.0460000  1
   6798   6796   6805   6814     1  0.0000000  0.0000000  3
   6798   6796   6805   6806     1  0.0000000  0.6508444  3
   6798   6796   6805   6807     1  0.0000000  0.6508444  3
   6800   6799   6811  12367     1  0.0000000  1.0460000  1
   6800   6799   6811  12367     1  0.0000000  0.0000000  3
   6800   6799   6811   6812     1  0.0000000  0.6508444  3
   6800   6799   6811   6813     1  0.0000000  0.6508444  3
   6801   6799   6811  12367     1  0.0000000  1.0460000  1
   6801   6799   6811  12367     1  0.0000000  0.0000000  3
   6801   6799   6811   6812     1  0.0000000  0.6508444  3
   6801   6799   6811   6813     1  0.0000000  0.6508444  3
   6803   6802   6808  12344     1  0.0000000  1.0460000  1
   6803   6802   6808  12344     1  0.0000000  0.0000000  3
   6803   6802   6808   6809     1  0.0000000  0.6508444  3
   6803   6802   6808   6810     1  0.0000000  0.6508444  3
   6804   6802   6808  12344     1  0.0000000  1.0460000  1
   6804   6802   6808  12344     1  0.0000000  0.0000000  3
   6804   6802   6808   6809     1  0.0000000  0.6508444  3
   6804   6802   6808   6810     1  0.0000000  0.6508444  3
   6808  12344  12340  12343     1  0.0000000  1.6038667  3
   6809   6808  12344  12340     1  0.0000000  1.6038667  3
   6810   6808  12344  12340     1  0.0000000  1.6038667  3
   6811  12367  12363  12366     1  0.0000000  1.6038667  3
   6812   6811  12367  12363     1  0.0000000  1.6038667  3
   6813   6811  12367  12363     1  0.0000000  1.6038667  3
   6815   6816   6828   6829     1  0.0000000  0.6508444  3
   6815   6816   6828   6830     1  0.0000000  0.6508444  3
   6815   6819   6831   6832     1  0.0000000  0.6508444  3
   6815   6819   6831   6833     1  0.0000000  0.6508444  3
   6815   6822   6825   6826     1  0.0000000  0.6508444  3
   6815   6822   6825   6827     1  0.0000000  0.6508444  3
   6816   6815   6819   6820     1  0.0000000  1.2552000  3
   6816   6815   6819   6821     1  0.0000000  1.2552000  3
   6816   6815   6822   6823     1  0.0000000  1.2552000  3
   6816   6815   6822   6824     1  0.0000000  1.2552000  3
   6816   6828   6840   6841     1  0.0000000  0.6508444  3
   6816   6828   6840   6842     1  0.0000000  0.6508444  3
   6817   6816   6815   6819     1  0.0000000  1.2552000  3
   6817   6816   6815   6822     1  0.0000000  1.2552000  3
   6817   6816   6828   6840     1  0.0000000  0.6508444  3
   6817   6816   6828   6829     1  0.0000000  0.6508444  3
   6817   6816   6828   6830     1  0.0000000  0.6508444  3
   6818   6816   6815   6819     1  0.0000000  1.2552000  3
   6818   6816   6815   6822     1  0.0000000  1.2552000  3
   6818   6816   6828   6840     1  0.0000000  0.6508444  3
   6818   6816   6828   6829     1  0.0000000  0.6508444  3
   6818   6816   6828   6830     1  0.0000000  0.6508444  3
   6819   6815   6822   6823     1  0.0000000  1.2552000  3
   6819   6815   6822   6824     1  0.0000000  1.2552000  3
   6819   6831   6837   6838     1  0.0000000  0.6508444  3
   6819   6831   6837   6839     1  0.0000000  0.6508444  3
   6820   6819   6815   6822     1  0.0000000  1.2552000  3
   6820   6819   6831   6837     1  0.0000000  0.6508444  3
   6820   6819   6831   6832     1  0.0000000  0.6508444  3
   6820   6819   6831   6833     1  0.0000000  0.6508444  3
   6821   6819   6815   6822     1  0.0000000  1.2552000  3
   6821   6819   6831   6837     1  0.0000000  0.6508444  3
   6821   6819   6831   6832     1  0.0000000  0.6508444  3
   6821   6819   6831   6833     1  0.0000000  0.6508444  3
   6822   6825   6834   6835     1  0.0000000  0.6508444  3
   6822   6825   6834   6836     1  0.0000000  0.6508444  3
   6823   6822   6825   6834     1  0.0000000  0.6508444  3
   6823   6822   6825   6826     1  0.0000000  0.6508444  3
   6823   6822   6825   6827     1  0.0000000  0.6508444  3
   6824   6822   6825   6834     1  0.0000000  0.6508444  3
   6824   6822   6825   6826     1  0.0000000  0.6508444  3
   6824   6822   6825   6827     1  0.0000000  0.6508444  3
   6826   6825   6834   6843     1  0.0000000  1.0460000  1
   6826   6825   6834   6843     1  0.0000000  0.0000000  3
   6826   6825   6834   6835     1  0.0000000  0.6508444  3
   6826   6825   6834   6836     1  0.0000000  0.6508444  3
   6827   6825   6834   6843     1  0.0000000  1.0460000  1
   6827   6825   6834   6843     1  0.0000000  0.0000000  3
   6827   6825   6834   6835     1  0.0000000  0.6508444  3
   6827   6825   6834   6836     1  0.0000000  0.6508444  3
   6829   6828   6840  12413     1  0.0000000  1.0460000  1
   6829   6828   6840  12413     1  0.0000000  0.0000000  3
   6829   6828   6840   6841     1  0.0000000  0.6508444  3
   6829   6828   6840   6842     1  0.0000000  0.6508444  3
   6830   6828   6840  12413     1  0.0000000  1.0460000  1
   6830   6828   6840  12413     1  0.0000000  0.0000000  3
   6830   6828   6840   6841     1  0.0000000  0.6508444  3
   6830   6828   6840   6842     1  0.0000000  0.6508444  3
   6832   6831   6837  12390     1  0.0000000  1.0460000  1
   6832   6831   6837  12390     1  0.0000000  0.0000000  3
   6832   6831   6837   6838     1  0.0000000  0.6508444  3
   6832   6831   6837   6839     1  0.0000000  0.6508444  3
   6833   6831   6837  12390     1  0.0000000  1.0460000  1
   6833   6831   6837  12390     1  0.0000000  0.0000000  3
   6833   6831   6837   6838     1  0.0000000  0.6508444  3
   6833   6831   6837   6839     1  0.0000000  0.6508444  3
   6837  12390  12386  12389     1  0.0000000  1.6038667  3
   6838   6837  12390  12386     1  0.0000000  1.6038667  3
   6839   6837  12390  12386     1  0.0000000  1.6038667  3
   6840  12413  12409  12412     1  0.0000000  1.6038667  3
   6841   6840  12413  12409     1  0.0000000  1.6038667  3
   6842   6840  12413  12409     1  0.0000000  1.6038667  3
   6844   6845   6857   6858     1  0.0000000  0.6508444  3
   6844   6845   6857   6859     1  0.0000000  0.6508444  3
   6844   6848   6860   6861     1  0.0000000  0.6508444  3
   6844   6848   6860   6862     1  0.0000000  0.6508444  3
   6844   6851   6854   6855     1  0.0000000  0.6508444  3
   6844   6851   6854   6856     1  0.0000000  0.6508444  3
   6845   6844   6848   6849     1  0.0000000  1.2552000  3
   6845   6844   6848   6850     1  0.0000000  1.2552000  3
   6845   6844   6851   6852     1  0.0000000  1.2552000  3
   6845   6844   6851   6853     1  0.0000000  1.2552000  3
   6845   6857   6869   6870     1  0.0000000  0.6508444  3
   6845   6857   6869   6871     1  0.0000000  0.6508444  3
   6846   6845   6844   6848     1  0.0000000  1.2552000  3
   6846   6845   6844   6851     1  0.0000000  1.2552000  3
   6846   6845   6857   6869     1  0.0000000  0.6508444  3
   6846   6845   6857   6858     1  0.0000000  0.6508444  3
   6846   6845   6857   6859     1  0.0000000  0.6508444  3
   6847   6845   6844   6848     1  0.0000000  1.2552000  3
   6847   6845   6844   6851     1  0.0000000  1.2552000  3
   6847   6845   6857   6869     1  0.0000000  0.6508444  3
   6847   6845   6857   6858     1  0.0000000  0.6508444  3
   6847   6845   6857   6859     1  0.0000000  0.6508444  3
   6848   6844   6851   6852     1  0.0000000  1.2552000  3
   6848   6844   6851   6853     1  0.0000000  1.2552000  3
   6848   6860   6866   6867     1  0.0000000  0.6508444  3
   6848   6860   6866   6868     1  0.0000000  0.6508444  3
   6849   6848   6844   6851     1  0.0000000  1.2552000  3
   6849   6848   6860   6866     1  0.0000000  0.6508444  3
   6849   6848   6860   6861     1  0.0000000  0.6508444  3
   6849   6848   6860   6862     1  0.0000000  0.6508444  3
   6850   6848   6844   6851     1  0.0000000  1.2552000  3
   6850   6848   6860   6866     1  0.0000000  0.6508444  3
   6850   6848   6860   6861     1  0.0000000  0.6508444  3
   6850   6848   6860   6862     1  0.0000000  0.6508444  3
   6851   6854   6863   6864     1  0.0000000  0.6508444  3
   6851   6854   6863   6865     1  0.0000000  0.6508444  3
   6852   6851   6854   6863     1  0.0000000  0.6508444  3
   6852   6851   6854   6855     1  0.0000000  0.6508444  3
   6852   6851   6854   6856     1  0.0000000  0.6508444  3
   6853   6851   6854   6863     1  0.0000000  0.6508444  3
   6853   6851   6854   6855     1  0.0000000  0.6508444  3
   6853   6851   6854   6856     1  0.0000000  0.6508444  3
   6855   6854   6863   6872     1  0.0000000  1.0460000  1
   6855   6854   6863   6872     1  0.0000000  0.0000000  3
   6855   6854   6863   6864     1  0.0000000  0.6508444  3
   6855   6854   6863   6865     1  0.0000000  0.6508444  3
   6856   6854   6863   6872     1  0.0000000  1.0460000  1
   6856   6854   6863   6872     1  0.0000000  0.0000000  3
   6856   6854   6863   6864     1  0.0000000  0.6508444  3
   6856   6854   6863   6865     1  0.0000000  0.6508444  3
   6858   6857   6869  12459     1  0.0000000  1.0460000  1
   6858   6857   6869  12459     1  0.0000000  0.0000000  3
   6858   6857   6869   6870     1  0.0000000  0.6508444  3
   6858   6857   6869   6871     1  0.0000000  0.6508444  3
   6859   6857   6869  12459     1  0.0000000  1.0460000  1
   6859   6857   6869  12459     1  0.0000000  0.0000000  3
   6859   6857   6869   6870     1  0.0000000  0.6508444  3
   6859   6857   6869   6871     1  0.0000000  0.6508444  3
   6861   6860   6866  12436     1  0.0000000  1.0460000  1
   6861   6860   6866  12436     1  0.0000000  0.0000000  3
   6861   6860   6866   6867     1  0.0000000  0.6508444  3
   6861   6860   6866   6868     1  0.0000000  0.6508444  3
   6862   6860   6866  12436     1  0.0000000  1.0460000  1
   6862   6860   6866  12436     1  0.0000000  0.0000000  3
   6862   6860   6866   6867     1  0.0000000  0.6508444  3
   6862   6860   6866   6868     1  0.0000000  0.6508444  3
   6866  12436  12432  12435     1  0.0000000  1.6038667  3
   6867   6866  12436  12432     1  0.0000000  1.6038667  3
   6868   6866  12436  12432     1  0.0000000  1.6038667  3
   6869  12459  12455  12458     1  0.0000000  1.6038667  3
   6870   6869  12459  12455     1  0.0000000  1.6038667  3
   6871   6869  12459  12455     1  0.0000000  1.6038667  3
   6873   6874   6886   6887     1  0.0000000  0.6508444  3
   6873   6874   6886   6888     1  0.0000000  0.6508444  3
   6873   6877   6889   6890     1  0.0000000  0.6508444  3
   6873   6877   6889   6891     1  0.0000000  0.6508444  3
   6873   6880   6883   6884     1  0.0000000  0.6508444  3
   6873   6880   6883   6885     1  0.0000000  0.6508444  3
   6874   6873   6877   6878     1  0.0000000  1.2552000  3
   6874   6873   6877   6879     1  0.0000000  1.2552000  3
   6874   6873   6880   6881     1  0.0000000  1.2552000  3
   6874   6873   6880   6882     1  0.0000000  1.2552000  3
   6874   6886   6898   6899     1  0.0000000  0.6508444  3
   6874   6886   6898   6900     1  0.0000000  0.6508444  3
   6875   6874   6873   6877     1  0.0000000  1.2552000  3
   6875   6874   6873   6880     1  0.0000000  1.2552000  3
   6875   6874   6886   6898     1  0.0000000  0.6508444  3
   6875   6874   6886   6887     1  0.0000000  0.6508444  3
   6875   6874   6886   6888     1  0.0000000  0.6508444  3
   6876   6874   6873   6877     1  0.0000000  1.2552000  3
   6876   6874   6873   6880     1  0.0000000  1.2552000  3
   6876   6874   6886   6898     1  0.0000000  0.6508444  3
   6876   6874   6886   6887     1  0.0000000  0.6508444  3
   6876   6874   6886   6888     1  0.0000000  0.6508444  3
   6877   6873   6880   6881     1  0.0000000  1.2552000  3
   6877   6873   6880   6882     1  0.0000000  1.2552000  3
   6877   6889   6895   6896     1  0.0000000  0.6508444  3
   6877   6889   6895   6897     1  0.0000000  0.6508444  3
   6878   6877   6873   6880     1  0.0000000  1.2552000  3
   6878   6877   6889   6895     1  0.0000000  0.6508444  3
   6878   6877   6889   6890     1  0.0000000  0.6508444  3
   6878   6877   6889   6891     1  0.0000000  0.6508444  3
   6879   6877   6873   6880     1  0.0000000  1.2552000  3
   6879   6877   6889   6895     1  0.0000000  0.6508444  3
   6879   6877   6889   6890     1  0.0000000  0.6508444  3
   6879   6877   6889   6891     1  0.0000000  0.6508444  3
   6880   6883   6892   6893     1  0.0000000  0.6508444  3
   6880   6883   6892   6894     1  0.0000000  0.6508444  3
   6881   6880   6883   6892     1  0.0000000  0.6508444  3
   6881   6880   6883   6884     1  0.0000000  0.6508444  3
   6881   6880   6883   6885     1  0.0000000  0.6508444  3
   6882   6880   6883   6892     1  0.0000000  0.6508444  3
   6882   6880   6883   6884     1  0.0000000  0.6508444  3
   6882   6880   6883   6885     1  0.0000000  0.6508444  3
   6884   6883   6892   6901     1  0.0000000  1.0460000  1
   6884   6883   6892   6901     1  0.0000000  0.0000000  3
   6884   6883   6892   6893     1  0.0000000  0.6508444  3
   6884   6883   6892   6894     1  0.0000000  0.6508444  3
   6885   6883   6892   6901     1  0.0000000  1.0460000  1
   6885   6883   6892   6901     1  0.0000000  0.0000000  3
   6885   6883   6892   6893     1  0.0000000  0.6508444  3
   6885   6883   6892   6894     1  0.0000000  0.6508444  3
   6887   6886   6898  12505     1  0.0000000  1.0460000  1
   6887   6886   6898  12505     1  0.0000000  0.0000000  3
   6887   6886   6898   6899     1  0.0000000  0.6508444  3
   6887   6886   6898   6900     1  0.0000000  0.6508444  3
   6888   6886   6898  12505     1  0.0000000  1.0460000  1
   6888   6886   6898  12505     1  0.0000000  0.0000000  3
   6888   6886   6898   6899     1  0.0000000  0.6508444  3
   6888   6886   6898   6900     1  0.0000000  0.6508444  3
   6890   6889   6895  12482     1  0.0000000  1.0460000  1
   6890   6889   6895  12482     1  0.0000000  0.0000000  3
   6890   6889   6895   6896     1  0.0000000  0.6508444  3
   6890   6889   6895   6897     1  0.0000000  0.6508444  3
   6891   6889   6895  12482     1  0.0000000  1.0460000  1
   6891   6889   6895  12482     1  0.0000000  0.0000000  3
   6891   6889   6895   6896     1  0.0000000  0.6508444  3
   6891   6889   6895   6897     1  0.0000000  0.6508444  3
   6895  12482  12478  12481     1  0.0000000  1.6038667  3
   6896   6895  12482  12478     1  0.0000000  1.6038667  3
   6897   6895  12482  12478     1  0.0000000  1.6038667  3
   6898  12505  12501  12504     1  0.0000000  1.6038667  3
   6899   6898  12505  12501     1  0.0000000  1.6038667  3
   6900   6898  12505  12501     1  0.0000000  1.6038667  3
   6902   6903   6915   6916     1  0.0000000  0.6508444  3
   6902   6903   6915   6917     1  0.0000000  0.6508444  3
   6902   6906   6918   6919     1  0.0000000  0.6508444  3
   6902   6906   6918   6920     1  0.0000000  0.6508444  3
   6902   6909   6912   6913     1  0.0000000  0.6508444  3
   6902   6909   6912   6914     1  0.0000000  0.6508444  3
   6903   6902   6906   6907     1  0.0000000  1.2552000  3
   6903   6902   6906   6908     1  0.0000000  1.2552000  3
   6903   6902   6909   6910     1  0.0000000  1.2552000  3
   6903   6902   6909   6911     1  0.0000000  1.2552000  3
   6903   6915   6927   6928     1  0.0000000  0.6508444  3
   6903   6915   6927   6929     1  0.0000000  0.6508444  3
   6904   6903   6902   6906     1  0.0000000  1.2552000  3
   6904   6903   6902   6909     1  0.0000000  1.2552000  3
   6904   6903   6915   6927     1  0.0000000  0.6508444  3
   6904   6903   6915   6916     1  0.0000000  0.6508444  3
   6904   6903   6915   6917     1  0.0000000  0.6508444  3
   6905   6903   6902   6906     1  0.0000000  1.2552000  3
   6905   6903   6902   6909     1  0.0000000  1.2552000  3
   6905   6903   6915   6927     1  0.0000000  0.6508444  3
   6905   6903   6915   6916     1  0.0000000  0.6508444  3
   6905   6903   6915   6917     1  0.0000000  0.6508444  3
   6906   6902   6909   6910     1  0.0000000  1.2552000  3
   6906   6902   6909   6911     1  0.0000000  1.2552000  3
   6906   6918   6924   6925     1  0.0000000  0.6508444  3
   6906   6918   6924   6926     1  0.0000000  0.6508444  3
   6907   6906   6902   6909     1  0.0000000  1.2552000  3
   6907   6906   6918   6924     1  0.0000000  0.6508444  3
   6907   6906   6918   6919     1  0.0000000  0.6508444  3
   6907   6906   6918   6920     1  0.0000000  0.6508444  3
   6908   6906   6902   6909     1  0.0000000  1.2552000  3
   6908   6906   6918   6924     1  0.0000000  0.6508444  3
   6908   6906   6918   6919     1  0.0000000  0.6508444  3
   6908   6906   6918   6920     1  0.0000000  0.6508444  3
   6909   6912   6921   6922     1  0.0000000  0.6508444  3
   6909   6912   6921   6923     1  0.0000000  0.6508444  3
   6910   6909   6912   6921     1  0.0000000  0.6508444  3
   6910   6909   6912   6913     1  0.0000000  0.6508444  3
   6910   6909   6912   6914     1  0.0000000  0.6508444  3
   6911   6909   6912   6921     1  0.0000000  0.6508444  3
   6911   6909   6912   6913     1  0.0000000  0.6508444  3
   6911   6909   6912   6914     1  0.0000000  0.6508444  3
   6913   6912   6921   6930     1  0.0000000  1.0460000  1
   6913   6912   6921   6930     1  0.0000000  0.0000000  3
   6913   6912   6921   6922     1  0.0000000  0.6508444  3
   6913   6912   6921   6923     1  0.0000000  0.6508444  3
   6914   6912   6921   6930     1  0.0000000  1.0460000  1
   6914   6912   6921   6930     1  0.0000000  0.0000000  3
   6914   6912   6921   6922     1  0.0000000  0.6508444  3
   6914   6912   6921   6923     1  0.0000000  0.6508444  3
   6916   6915   6927  12551     1  0.0000000  1.0460000  1
   6916   6915   6927  12551     1  0.0000000  0.0000000  3
   6916   6915   6927   6928     1  0.0000000  0.6508444  3
   6916   6915   6927   6929     1  0.0000000  0.6508444  3
   6917   6915   6927  12551     1  0.0000000  1.0460000  1
   6917   6915   6927  12551     1  0.0000000  0.0000000  3
   6917   6915   6927   6928     1  0.0000000  0.6508444  3
   6917   6915   6927   6929     1  0.0000000  0.6508444  3
   6919   6918   6924  12528     1  0.0000000  1.0460000  1
   6919   6918   6924  12528     1  0.0000000  0.0000000  3
   6919   6918   6924   6925     1  0.0000000  0.6508444  3
   6919   6918   6924   6926     1  0.0000000  0.6508444  3
   6920   6918   6924  12528     1  0.0000000  1.0460000  1
   6920   6918   6924  12528     1  0.0000000  0.0000000  3
   6920   6918   6924   6925     1  0.0000000  0.6508444  3
   6920   6918   6924   6926     1  0.0000000  0.6508444  3
   6924  12528  12524  12527     1  0.0000000  1.6038667  3
   6925   6924  12528  12524     1  0.0000000  1.6038667  3
   6926   6924  12528  12524     1  0.0000000  1.6038667  3
   6927  12551  12547  12550     1  0.0000000  1.6038667  3
   6928   6927  12551  12547     1  0.0000000  1.6038667  3
   6929   6927  12551  12547     1  0.0000000  1.6038667  3
   6931   6932   6944   6945     1  0.0000000  0.6508444  3
   6931   6932   6944   6946     1  0.0000000  0.6508444  3
   6931   6935   6947   6948     1  0.0000000  0.6508444  3
   6931   6935   6947   6949     1  0.0000000  0.6508444  3
   6931   6938   6941   6942     1  0.0000000  0.6508444  3
   6931   6938   6941   6943     1  0.0000000  0.6508444  3
   6932   6931   6935   6936     1  0.0000000  1.2552000  3
   6932   6931   6935   6937     1  0.0000000  1.2552000  3
   6932   6931   6938   6939     1  0.0000000  1.2552000  3
   6932   6931   6938   6940     1  0.0000000  1.2552000  3
   6932   6944   6956   6957     1  0.0000000  0.6508444  3
   6932   6944   6956   6958     1  0.0000000  0.6508444  3
   6933   6932   6931   6935     1  0.0000000  1.2552000  3
   6933   6932   6931   6938     1  0.0000000  1.2552000  3
   6933   6932   6944   6956     1  0.0000000  0.6508444  3
   6933   6932   6944   6945     1  0.0000000  0.6508444  3
   6933   6932   6944   6946     1  0.0000000  0.6508444  3
   6934   6932   6931   6935     1  0.0000000  1.2552000  3
   6934   6932   6931   6938     1  0.0000000  1.2552000  3
   6934   6932   6944   6956     1  0.0000000  0.6508444  3
   6934   6932   6944   6945     1  0.0000000  0.6508444  3
   6934   6932   6944   6946     1  0.0000000  0.6508444  3
   6935   6931   6938   6939     1  0.0000000  1.2552000  3
   6935   6931   6938   6940     1  0.0000000  1.2552000  3
   6935   6947   6953   6954     1  0.0000000  0.6508444  3
   6935   6947   6953   6955     1  0.0000000  0.6508444  3
   6936   6935   6931   6938     1  0.0000000  1.2552000  3
   6936   6935   6947   6953     1  0.0000000  0.6508444  3
   6936   6935   6947   6948     1  0.0000000  0.6508444  3
   6936   6935   6947   6949     1  0.0000000  0.6508444  3
   6937   6935   6931   6938     1  0.0000000  1.2552000  3
   6937   6935   6947   6953     1  0.0000000  0.6508444  3
   6937   6935   6947   6948     1  0.0000000  0.6508444  3
   6937   6935   6947   6949     1  0.0000000  0.6508444  3
   6938   6941   6950   6951     1  0.0000000  0.6508444  3
   6938   6941   6950   6952     1  0.0000000  0.6508444  3
   6939   6938   6941   6950     1  0.0000000  0.6508444  3
   6939   6938   6941   6942     1  0.0000000  0.6508444  3
   6939   6938   6941   6943     1  0.0000000  0.6508444  3
   6940   6938   6941   6950     1  0.0000000  0.6508444  3
   6940   6938   6941   6942     1  0.0000000  0.6508444  3
   6940   6938   6941   6943     1  0.0000000  0.6508444  3
   6942   6941   6950   6959     1  0.0000000  1.0460000  1
   6942   6941   6950   6959     1  0.0000000  0.0000000  3
   6942   6941   6950   6951     1  0.0000000  0.6508444  3
   6942   6941   6950   6952     1  0.0000000  0.6508444  3
   6943   6941   6950   6959     1  0.0000000  1.0460000  1
   6943   6941   6950   6959     1  0.0000000  0.0000000  3
   6943   6941   6950   6951     1  0.0000000  0.6508444  3
   6943   6941   6950   6952     1  0.0000000  0.6508444  3
   6945   6944   6956  12597     1  0.0000000  1.0460000  1
   6945   6944   6956  12597     1  0.0000000  0.0000000  3
   6945   6944   6956   6957     1  0.0000000  0.6508444  3
   6945   6944   6956   6958     1  0.0000000  0.6508444  3
   6946   6944   6956  12597     1  0.0000000  1.0460000  1
   6946   6944   6956  12597     1  0.0000000  0.0000000  3
   6946   6944   6956   6957     1  0.0000000  0.6508444  3
   6946   6944   6956   6958     1  0.0000000  0.6508444  3
   6948   6947   6953  12574     1  0.0000000  1.0460000  1
   6948   6947   6953  12574     1  0.0000000  0.0000000  3
   6948   6947   6953   6954     1  0.0000000  0.6508444  3
   6948   6947   6953   6955     1  0.0000000  0.6508444  3
   6949   6947   6953  12574     1  0.0000000  1.0460000  1
   6949   6947   6953  12574     1  0.0000000  0.0000000  3
   6949   6947   6953   6954     1  0.0000000  0.6508444  3
   6949   6947   6953   6955     1  0.0000000  0.6508444  3
   6953  12574  12570  12573     1  0.0000000  1.6038667  3
   6954   6953  12574  12570     1  0.0000000  1.6038667  3
   6955   6953  12574  12570     1  0.0000000  1.6038667  3
   6956  12597  12593  12596     1  0.0000000  1.6038667  3
   6957   6956  12597  12593     1  0.0000000  1.6038667  3
   6958   6956  12597  12593     1  0.0000000  1.6038667  3
   6960   6961   6973   6974     1  0.0000000  0.6508444  3
   6960   6961   6973   6975     1  0.0000000  0.6508444  3
   6960   6964   6976   6977     1  0.0000000  0.6508444  3
   6960   6964   6976   6978     1  0.0000000  0.6508444  3
   6960   6967   6970   6971     1  0.0000000  0.6508444  3
   6960   6967   6970   6972     1  0.0000000  0.6508444  3
   6961   6960   6964   6965     1  0.0000000  1.2552000  3
   6961   6960   6964   6966     1  0.0000000  1.2552000  3
   6961   6960   6967   6968     1  0.0000000  1.2552000  3
   6961   6960   6967   6969     1  0.0000000  1.2552000  3
   6961   6973   6985   6986     1  0.0000000  0.6508444  3
   6961   6973   6985   6987     1  0.0000000  0.6508444  3
   6962   6961   6960   6964     1  0.0000000  1.2552000  3
   6962   6961   6960   6967     1  0.0000000  1.2552000  3
   6962   6961   6973   6985     1  0.0000000  0.6508444  3
   6962   6961   6973   6974     1  0.0000000  0.6508444  3
   6962   6961   6973   6975     1  0.0000000  0.6508444  3
   6963   6961   6960   6964     1  0.0000000  1.2552000  3
   6963   6961   6960   6967     1  0.0000000  1.2552000  3
   6963   6961   6973   6985     1  0.0000000  0.6508444  3
   6963   6961   6973   6974     1  0.0000000  0.6508444  3
   6963   6961   6973   6975     1  0.0000000  0.6508444  3
   6964   6960   6967   6968     1  0.0000000  1.2552000  3
   6964   6960   6967   6969     1  0.0000000  1.2552000  3
   6964   6976   6982   6983     1  0.0000000  0.6508444  3
   6964   6976   6982   6984     1  0.0000000  0.6508444  3
   6965   6964   6960   6967     1  0.0000000  1.2552000  3
   6965   6964   6976   6982     1  0.0000000  0.6508444  3
   6965   6964   6976   6977     1  0.0000000  0.6508444  3
   6965   6964   6976   6978     1  0.0000000  0.6508444  3
   6966   6964   6960   6967     1  0.0000000  1.2552000  3
   6966   6964   6976   6982     1  0.0000000  0.6508444  3
   6966   6964   6976   6977     1  0.0000000  0.6508444  3
   6966   6964   6976   6978     1  0.0000000  0.6508444  3
   6967   6970   6979   6980     1  0.0000000  0.6508444  3
   6967   6970   6979   6981     1  0.0000000  0.6508444  3
   6968   6967   6970   6979     1  0.0000000  0.6508444  3
   6968   6967   6970   6971     1  0.0000000  0.6508444  3
   6968   6967   6970   6972     1  0.0000000  0.6508444  3
   6969   6967   6970   6979     1  0.0000000  0.6508444  3
   6969   6967   6970   6971     1  0.0000000  0.6508444  3
   6969   6967   6970   6972     1  0.0000000  0.6508444  3
   6971   6970   6979   6988     1  0.0000000  1.0460000  1
   6971   6970   6979   6988     1  0.0000000  0.0000000  3
   6971   6970   6979   6980     1  0.0000000  0.6508444  3
   6971   6970   6979   6981     1  0.0000000  0.6508444  3
   6972   6970   6979   6988     1  0.0000000  1.0460000  1
   6972   6970   6979   6988     1  0.0000000  0.0000000  3
   6972   6970   6979   6980     1  0.0000000  0.6508444  3
   6972   6970   6979   6981     1  0.0000000  0.6508444  3
   6974   6973   6985  12643     1  0.0000000  1.0460000  1
   6974   6973   6985  12643     1  0.0000000  0.0000000  3
   6974   6973   6985   6986     1  0.0000000  0.6508444  3
   6974   6973   6985   6987     1  0.0000000  0.6508444  3
   6975   6973   6985  12643     1  0.0000000  1.0460000  1
   6975   6973   6985  12643     1  0.0000000  0.0000000  3
   6975   6973   6985   6986     1  0.0000000  0.6508444  3
   6975   6973   6985   6987     1  0.0000000  0.6508444  3
   6977   6976   6982  12620     1  0.0000000  1.0460000  1
   6977   6976   6982  12620     1  0.0000000  0.0000000  3
   6977   6976   6982   6983     1  0.0000000  0.6508444  3
   6977   6976   6982   6984     1  0.0000000  0.6508444  3
   6978   6976   6982  12620     1  0.0000000  1.0460000  1
   6978   6976   6982  12620     1  0.0000000  0.0000000  3
   6978   6976   6982   6983     1  0.0000000  0.6508444  3
   6978   6976   6982   6984     1  0.0000000  0.6508444  3
   6982  12620  12616  12619     1  0.0000000  1.6038667  3
   6983   6982  12620  12616     1  0.0000000  1.6038667  3
   6984   6982  12620  12616     1  0.0000000  1.6038667  3
   6985  12643  12639  12642     1  0.0000000  1.6038667  3
   6986   6985  12643  12639     1  0.0000000  1.6038667  3
   6987   6985  12643  12639     1  0.0000000  1.6038667  3
   6989   6990   7002   7003     1  0.0000000  0.6508444  3
   6989   6990   7002   7004     1  0.0000000  0.6508444  3
   6989   6993   7005   7006     1  0.0000000  0.6508444  3
   6989   6993   7005   7007     1  0.0000000  0.6508444  3
   6989   6996   6999   7000     1  0.0000000  0.6508444  3
   6989   6996   6999   7001     1  0.0000000  0.6508444  3
   6990   6989   6993   6994     1  0.0000000  1.2552000  3
   6990   6989   6993   6995     1  0.0000000  1.2552000  3
   6990   6989   6996   6997     1  0.0000000  1.2552000  3
   6990   6989   6996   6998     1  0.0000000  1.2552000  3
   6990   7002   7014   7015     1  0.0000000  0.6508444  3
   6990   7002   7014   7016     1  0.0000000  0.6508444  3
   6991   6990   6989   6993     1  0.0000000  1.2552000  3
   6991   6990   6989   6996     1  0.0000000  1.2552000  3
   6991   6990   7002   7014     1  0.0000000  0.6508444  3
   6991   6990   7002   7003     1  0.0000000  0.6508444  3
   6991   6990   7002   7004     1  0.0000000  0.6508444  3
   6992   6990   6989   6993     1  0.0000000  1.2552000  3
   6992   6990   6989   6996     1  0.0000000  1.2552000  3
   6992   6990   7002   7014     1  0.0000000  0.6508444  3
   6992   6990   7002   7003     1  0.0000000  0.6508444  3
   6992   6990   7002   7004     1  0.0000000  0.6508444  3
   6993   6989   6996   6997     1  0.0000000  1.2552000  3
   6993   6989   6996   6998     1  0.0000000  1.2552000  3
   6993   7005   7011   7012     1  0.0000000  0.6508444  3
   6993   7005   7011   7013     1  0.0000000  0.6508444  3
   6994   6993   6989   6996     1  0.0000000  1.2552000  3
   6994   6993   7005   7011     1  0.0000000  0.6508444  3
   6994   6993   7005   7006     1  0.0000000  0.6508444  3
   6994   6993   7005   7007     1  0.0000000  0.6508444  3
   6995   6993   6989   6996     1  0.0000000  1.2552000  3
   6995   6993   7005   7011     1  0.0000000  0.6508444  3
   6995   6993   7005   7006     1  0.0000000  0.6508444  3
   6995   6993   7005   7007     1  0.0000000  0.6508444  3
   6996   6999   7008   7009     1  0.0000000  0.6508444  3
   6996   6999   7008   7010     1  0.0000000  0.6508444  3
   6997   6996   6999   7008     1  0.0000000  0.6508444  3
   6997   6996   6999   7000     1  0.0000000  0.6508444  3
   6997   6996   6999   7001     1  0.0000000  0.6508444  3
   6998   6996   6999   7008     1  0.0000000  0.6508444  3
   6998   6996   6999   7000     1  0.0000000  0.6508444  3
   6998   6996   6999   7001     1  0.0000000  0.6508444  3
   7000   6999   7008   7017     1  0.0000000  1.0460000  1
   7000   6999   7008   7017     1  0.0000000  0.0000000  3
   7000   6999   7008   7009     1  0.0000000  0.6508444  3
   7000   6999   7008   7010     1  0.0000000  0.6508444  3
   7001   6999   7008   7017     1  0.0000000  1.0460000  1
   7001   6999   7008   7017     1  0.0000000  0.0000000  3
   7001   6999   7008   7009     1  0.0000000  0.6508444  3
   7001   6999   7008   7010     1  0.0000000  0.6508444  3
   7003   7002   7014  12689     1  0.0000000  1.0460000  1
   7003   7002   7014  12689     1  0.0000000  0.0000000  3
   7003   7002   7014   7015     1  0.0000000  0.6508444  3
   7003   7002   7014   7016     1  0.0000000  0.6508444  3
   7004   7002   7014  12689     1  0.0000000  1.0460000  1
   7004   7002   7014  12689     1  0.0000000  0.0000000  3
   7004   7002   7014   7015     1  0.0000000  0.6508444  3
   7004   7002   7014   7016     1  0.0000000  0.6508444  3
   7006   7005   7011  12666     1  0.0000000  1.0460000  1
   7006   7005   7011  12666     1  0.0000000  0.0000000  3
   7006   7005   7011   7012     1  0.0000000  0.6508444  3
   7006   7005   7011   7013     1  0.0000000  0.6508444  3
   7007   7005   7011  12666     1  0.0000000  1.0460000  1
   7007   7005   7011  12666     1  0.0000000  0.0000000  3
   7007   7005   7011   7012     1  0.0000000  0.6508444  3
   7007   7005   7011   7013     1  0.0000000  0.6508444  3
   7011  12666  12662  12665     1  0.0000000  1.6038667  3
   7012   7011  12666  12662     1  0.0000000  1.6038667  3
   7013   7011  12666  12662     1  0.0000000  1.6038667  3
   7014  12689  12685  12688     1  0.0000000  1.6038667  3
   7015   7014  12689  12685     1  0.0000000  1.6038667  3
   7016   7014  12689  12685     1  0.0000000  1.6038667  3
   7018   7019   7031   7032     1  0.0000000  0.6508444  3
   7018   7019   7031   7033     1  0.0000000  0.6508444  3
   7018   7022   7034   7035     1  0.0000000  0.6508444  3
   7018   7022   7034   7036     1  0.0000000  0.6508444  3
   7018   7025   7028   7029     1  0.0000000  0.6508444  3
   7018   7025   7028   7030     1  0.0000000  0.6508444  3
   7019   7018   7022   7023     1  0.0000000  1.2552000  3
   7019   7018   7022   7024     1  0.0000000  1.2552000  3
   7019   7018   7025   7026     1  0.0000000  1.2552000  3
   7019   7018   7025   7027     1  0.0000000  1.2552000  3
   7019   7031   7043   7044     1  0.0000000  0.6508444  3
   7019   7031   7043   7045     1  0.0000000  0.6508444  3
   7020   7019   7018   7022     1  0.0000000  1.2552000  3
   7020   7019   7018   7025     1  0.0000000  1.2552000  3
   7020   7019   7031   7043     1  0.0000000  0.6508444  3
   7020   7019   7031   7032     1  0.0000000  0.6508444  3
   7020   7019   7031   7033     1  0.0000000  0.6508444  3
   7021   7019   7018   7022     1  0.0000000  1.2552000  3
   7021   7019   7018   7025     1  0.0000000  1.2552000  3
   7021   7019   7031   7043     1  0.0000000  0.6508444  3
   7021   7019   7031   7032     1  0.0000000  0.6508444  3
   7021   7019   7031   7033     1  0.0000000  0.6508444  3
   7022   7018   7025   7026     1  0.0000000  1.2552000  3
   7022   7018   7025   7027     1  0.0000000  1.2552000  3
   7022   7034   7040   7041     1  0.0000000  0.6508444  3
   7022   7034   7040   7042     1  0.0000000  0.6508444  3
   7023   7022   7018   7025     1  0.0000000  1.2552000  3
   7023   7022   7034   7040     1  0.0000000  0.6508444  3
   7023   7022   7034   7035     1  0.0000000  0.6508444  3
   7023   7022   7034   7036     1  0.0000000  0.6508444  3
   7024   7022   7018   7025     1  0.0000000  1.2552000  3
   7024   7022   7034   7040     1  0.0000000  0.6508444  3
   7024   7022   7034   7035     1  0.0000000  0.6508444  3
   7024   7022   7034   7036     1  0.0000000  0.6508444  3
   7025   7028   7037   7038     1  0.0000000  0.6508444  3
   7025   7028   7037   7039     1  0.0000000  0.6508444  3
   7026   7025   7028   7037     1  0.0000000  0.6508444  3
   7026   7025   7028   7029     1  0.0000000  0.6508444  3
   7026   7025   7028   7030     1  0.0000000  0.6508444  3
   7027   7025   7028   7037     1  0.0000000  0.6508444  3
   7027   7025   7028   7029     1  0.0000000  0.6508444  3
   7027   7025   7028   7030     1  0.0000000  0.6508444  3
   7029   7028   7037   7046     1  0.0000000  1.0460000  1
   7029   7028   7037   7046     1  0.0000000  0.0000000  3
   7029   7028   7037   7038     1  0.0000000  0.6508444  3
   7029   7028   7037   7039     1  0.0000000  0.6508444  3
   7030   7028   7037   7046     1  0.0000000  1.0460000  1
   7030   7028   7037   7046     1  0.0000000  0.0000000  3
   7030   7028   7037   7038     1  0.0000000  0.6508444  3
   7030   7028   7037   7039     1  0.0000000  0.6508444  3
   7032   7031   7043  12735     1  0.0000000  1.0460000  1
   7032   7031   7043  12735     1  0.0000000  0.0000000  3
   7032   7031   7043   7044     1  0.0000000  0.6508444  3
   7032   7031   7043   7045     1  0.0000000  0.6508444  3
   7033   7031   7043  12735     1  0.0000000  1.0460000  1
   7033   7031   7043  12735     1  0.0000000  0.0000000  3
   7033   7031   7043   7044     1  0.0000000  0.6508444  3
   7033   7031   7043   7045     1  0.0000000  0.6508444  3
   7035   7034   7040  12712     1  0.0000000  1.0460000  1
   7035   7034   7040  12712     1  0.0000000  0.0000000  3
   7035   7034   7040   7041     1  0.0000000  0.6508444  3
   7035   7034   7040   7042     1  0.0000000  0.6508444  3
   7036   7034   7040  12712     1  0.0000000  1.0460000  1
   7036   7034   7040  12712     1  0.0000000  0.0000000  3
   7036   7034   7040   7041     1  0.0000000  0.6508444  3
   7036   7034   7040   7042     1  0.0000000  0.6508444  3
   7040  12712  12708  12711     1  0.0000000  1.6038667  3
   7041   7040  12712  12708     1  0.0000000  1.6038667  3
   7042   7040  12712  12708     1  0.0000000  1.6038667  3
   7043  12735  12731  12734     1  0.0000000  1.6038667  3
   7044   7043  12735  12731     1  0.0000000  1.6038667  3
   7045   7043  12735  12731     1  0.0000000  1.6038667  3
   7047   7048   7060   7061     1  0.0000000  0.6508444  3
   7047   7048   7060   7062     1  0.0000000  0.6508444  3
   7047   7051   7063   7064     1  0.0000000  0.6508444  3
   7047   7051   7063   7065     1  0.0000000  0.6508444  3
   7047   7054   7057   7058     1  0.0000000  0.6508444  3
   7047   7054   7057   7059     1  0.0000000  0.6508444  3
   7048   7047   7051   7052     1  0.0000000  1.2552000  3
   7048   7047   7051   7053     1  0.0000000  1.2552000  3
   7048   7047   7054   7055     1  0.0000000  1.2552000  3
   7048   7047   7054   7056     1  0.0000000  1.2552000  3
   7048   7060   7072   7073     1  0.0000000  0.6508444  3
   7048   7060   7072   7074     1  0.0000000  0.6508444  3
   7049   7048   7047   7051     1  0.0000000  1.2552000  3
   7049   7048   7047   7054     1  0.0000000  1.2552000  3
   7049   7048   7060   7072     1  0.0000000  0.6508444  3
   7049   7048   7060   7061     1  0.0000000  0.6508444  3
   7049   7048   7060   7062     1  0.0000000  0.6508444  3
   7050   7048   7047   7051     1  0.0000000  1.2552000  3
   7050   7048   7047   7054     1  0.0000000  1.2552000  3
   7050   7048   7060   7072     1  0.0000000  0.6508444  3
   7050   7048   7060   7061     1  0.0000000  0.6508444  3
   7050   7048   7060   7062     1  0.0000000  0.6508444  3
   7051   7047   7054   7055     1  0.0000000  1.2552000  3
   7051   7047   7054   7056     1  0.0000000  1.2552000  3
   7051   7063   7069   7070     1  0.0000000  0.6508444  3
   7051   7063   7069   7071     1  0.0000000  0.6508444  3
   7052   7051   7047   7054     1  0.0000000  1.2552000  3
   7052   7051   7063   7069     1  0.0000000  0.6508444  3
   7052   7051   7063   7064     1  0.0000000  0.6508444  3
   7052   7051   7063   7065     1  0.0000000  0.6508444  3
   7053   7051   7047   7054     1  0.0000000  1.2552000  3
   7053   7051   7063   7069     1  0.0000000  0.6508444  3
   7053   7051   7063   7064     1  0.0000000  0.6508444  3
   7053   7051   7063   7065     1  0.0000000  0.6508444  3
   7054   7057   7066   7067     1  0.0000000  0.6508444  3
   7054   7057   7066   7068     1  0.0000000  0.6508444  3
   7055   7054   7057   7066     1  0.0000000  0.6508444  3
   7055   7054   7057   7058     1  0.0000000  0.6508444  3
   7055   7054   7057   7059     1  0.0000000  0.6508444  3
   7056   7054   7057   7066     1  0.0000000  0.6508444  3
   7056   7054   7057   7058     1  0.0000000  0.6508444  3
   7056   7054   7057   7059     1  0.0000000  0.6508444  3
   7058   7057   7066   7075     1  0.0000000  1.0460000  1
   7058   7057   7066   7075     1  0.0000000  0.0000000  3
   7058   7057   7066   7067     1  0.0000000  0.6508444  3
   7058   7057   7066   7068     1  0.0000000  0.6508444  3
   7059   7057   7066   7075     1  0.0000000  1.0460000  1
   7059   7057   7066   7075     1  0.0000000  0.0000000  3
   7059   7057   7066   7067     1  0.0000000  0.6508444  3
   7059   7057   7066   7068     1  0.0000000  0.6508444  3
   7061   7060   7072  12781     1  0.0000000  1.0460000  1
   7061   7060   7072  12781     1  0.0000000  0.0000000  3
   7061   7060   7072   7073     1  0.0000000  0.6508444  3
   7061   7060   7072   7074     1  0.0000000  0.6508444  3
   7062   7060   7072  12781     1  0.0000000  1.0460000  1
   7062   7060   7072  12781     1  0.0000000  0.0000000  3
   7062   7060   7072   7073     1  0.0000000  0.6508444  3
   7062   7060   7072   7074     1  0.0000000  0.6508444  3
   7064   7063   7069  12758     1  0.0000000  1.0460000  1
   7064   7063   7069  12758     1  0.0000000  0.0000000  3
   7064   7063   7069   7070     1  0.0000000  0.6508444  3
   7064   7063   7069   7071     1  0.0000000  0.6508444  3
   7065   7063   7069  12758     1  0.0000000  1.0460000  1
   7065   7063   7069  12758     1  0.0000000  0.0000000  3
   7065   7063   7069   7070     1  0.0000000  0.6508444  3
   7065   7063   7069   7071     1  0.0000000  0.6508444  3
   7069  12758  12754  12757     1  0.0000000  1.6038667  3
   7070   7069  12758  12754     1  0.0000000  1.6038667  3
   7071   7069  12758  12754     1  0.0000000  1.6038667  3
   7072  12781  12777  12780     1  0.0000000  1.6038667  3
   7073   7072  12781  12777     1  0.0000000  1.6038667  3
   7074   7072  12781  12777     1  0.0000000  1.6038667  3
   7076   7077   7089   7090     1  0.0000000  0.6508444  3
   7076   7077   7089   7091     1  0.0000000  0.6508444  3
   7076   7080   7092   7093     1  0.0000000  0.6508444  3
   7076   7080   7092   7094     1  0.0000000  0.6508444  3
   7076   7083   7086   7087     1  0.0000000  0.6508444  3
   7076   7083   7086   7088     1  0.0000000  0.6508444  3
   7077   7076   7080   7081     1  0.0000000  1.2552000  3
   7077   7076   7080   7082     1  0.0000000  1.2552000  3
   7077   7076   7083   7084     1  0.0000000  1.2552000  3
   7077   7076   7083   7085     1  0.0000000  1.2552000  3
   7077   7089   7101   7102     1  0.0000000  0.6508444  3
   7077   7089   7101   7103     1  0.0000000  0.6508444  3
   7078   7077   7076   7080     1  0.0000000  1.2552000  3
   7078   7077   7076   7083     1  0.0000000  1.2552000  3
   7078   7077   7089   7101     1  0.0000000  0.6508444  3
   7078   7077   7089   7090     1  0.0000000  0.6508444  3
   7078   7077   7089   7091     1  0.0000000  0.6508444  3
   7079   7077   7076   7080     1  0.0000000  1.2552000  3
   7079   7077   7076   7083     1  0.0000000  1.2552000  3
   7079   7077   7089   7101     1  0.0000000  0.6508444  3
   7079   7077   7089   7090     1  0.0000000  0.6508444  3
   7079   7077   7089   7091     1  0.0000000  0.6508444  3
   7080   7076   7083   7084     1  0.0000000  1.2552000  3
   7080   7076   7083   7085     1  0.0000000  1.2552000  3
   7080   7092   7098   7099     1  0.0000000  0.6508444  3
   7080   7092   7098   7100     1  0.0000000  0.6508444  3
   7081   7080   7076   7083     1  0.0000000  1.2552000  3
   7081   7080   7092   7098     1  0.0000000  0.6508444  3
   7081   7080   7092   7093     1  0.0000000  0.6508444  3
   7081   7080   7092   7094     1  0.0000000  0.6508444  3
   7082   7080   7076   7083     1  0.0000000  1.2552000  3
   7082   7080   7092   7098     1  0.0000000  0.6508444  3
   7082   7080   7092   7093     1  0.0000000  0.6508444  3
   7082   7080   7092   7094     1  0.0000000  0.6508444  3
   7083   7086   7095   7096     1  0.0000000  0.6508444  3
   7083   7086   7095   7097     1  0.0000000  0.6508444  3
   7084   7083   7086   7095     1  0.0000000  0.6508444  3
   7084   7083   7086   7087     1  0.0000000  0.6508444  3
   7084   7083   7086   7088     1  0.0000000  0.6508444  3
   7085   7083   7086   7095     1  0.0000000  0.6508444  3
   7085   7083   7086   7087     1  0.0000000  0.6508444  3
   7085   7083   7086   7088     1  0.0000000  0.6508444  3
   7087   7086   7095   7104     1  0.0000000  1.0460000  1
   7087   7086   7095   7104     1  0.0000000  0.0000000  3
   7087   7086   7095   7096     1  0.0000000  0.6508444  3
   7087   7086   7095   7097     1  0.0000000  0.6508444  3
   7088   7086   7095   7104     1  0.0000000  1.0460000  1
   7088   7086   7095   7104     1  0.0000000  0.0000000  3
   7088   7086   7095   7096     1  0.0000000  0.6508444  3
   7088   7086   7095   7097     1  0.0000000  0.6508444  3
   7090   7089   7101  12827     1  0.0000000  1.0460000  1
   7090   7089   7101  12827     1  0.0000000  0.0000000  3
   7090   7089   7101   7102     1  0.0000000  0.6508444  3
   7090   7089   7101   7103     1  0.0000000  0.6508444  3
   7091   7089   7101  12827     1  0.0000000  1.0460000  1
   7091   7089   7101  12827     1  0.0000000  0.0000000  3
   7091   7089   7101   7102     1  0.0000000  0.6508444  3
   7091   7089   7101   7103     1  0.0000000  0.6508444  3
   7093   7092   7098  12804     1  0.0000000  1.0460000  1
   7093   7092   7098  12804     1  0.0000000  0.0000000  3
   7093   7092   7098   7099     1  0.0000000  0.6508444  3
   7093   7092   7098   7100     1  0.0000000  0.6508444  3
   7094   7092   7098  12804     1  0.0000000  1.0460000  1
   7094   7092   7098  12804     1  0.0000000  0.0000000  3
   7094   7092   7098   7099     1  0.0000000  0.6508444  3
   7094   7092   7098   7100     1  0.0000000  0.6508444  3
   7098  12804  12800  12803     1  0.0000000  1.6038667  3
   7099   7098  12804  12800     1  0.0000000  1.6038667  3
   7100   7098  12804  12800     1  0.0000000  1.6038667  3
   7101  12827  12823  12826     1  0.0000000  1.6038667  3
   7102   7101  12827  12823     1  0.0000000  1.6038667  3
   7103   7101  12827  12823     1  0.0000000  1.6038667  3
   7105   7106   7118   7119     1  0.0000000  0.6508444  3
   7105   7106   7118   7120     1  0.0000000  0.6508444  3
   7105   7109   7121   7122     1  0.0000000  0.6508444  3
   7105   7109   7121   7123     1  0.0000000  0.6508444  3
   7105   7112   7115   7116     1  0.0000000  0.6508444  3
   7105   7112   7115   7117     1  0.0000000  0.6508444  3
   7106   7105   7109   7110     1  0.0000000  1.2552000  3
   7106   7105   7109   7111     1  0.0000000  1.2552000  3
   7106   7105   7112   7113     1  0.0000000  1.2552000  3
   7106   7105   7112   7114     1  0.0000000  1.2552000  3
   7106   7118   7130   7131     1  0.0000000  0.6508444  3
   7106   7118   7130   7132     1  0.0000000  0.6508444  3
   7107   7106   7105   7109     1  0.0000000  1.2552000  3
   7107   7106   7105   7112     1  0.0000000  1.2552000  3
   7107   7106   7118   7130     1  0.0000000  0.6508444  3
   7107   7106   7118   7119     1  0.0000000  0.6508444  3
   7107   7106   7118   7120     1  0.0000000  0.6508444  3
   7108   7106   7105   7109     1  0.0000000  1.2552000  3
   7108   7106   7105   7112     1  0.0000000  1.2552000  3
   7108   7106   7118   7130     1  0.0000000  0.6508444  3
   7108   7106   7118   7119     1  0.0000000  0.6508444  3
   7108   7106   7118   7120     1  0.0000000  0.6508444  3
   7109   7105   7112   7113     1  0.0000000  1.2552000  3
   7109   7105   7112   7114     1  0.0000000  1.2552000  3
   7109   7121   7127   7128     1  0.0000000  0.6508444  3
   7109   7121   7127   7129     1  0.0000000  0.6508444  3
   7110   7109   7105   7112     1  0.0000000  1.2552000  3
   7110   7109   7121   7127     1  0.0000000  0.6508444  3
   7110   7109   7121   7122     1  0.0000000  0.6508444  3
   7110   7109   7121   7123     1  0.0000000  0.6508444  3
   7111   7109   7105   7112     1  0.0000000  1.2552000  3
   7111   7109   7121   7127     1  0.0000000  0.6508444  3
   7111   7109   7121   7122     1  0.0000000  0.6508444  3
   7111   7109   7121   7123     1  0.0000000  0.6508444  3
   7112   7115   7124   7125     1  0.0000000  0.6508444  3
   7112   7115   7124   7126     1  0.0000000  0.6508444  3
   7113   7112   7115   7124     1  0.0000000  0.6508444  3
   7113   7112   7115   7116     1  0.0000000  0.6508444  3
   7113   7112   7115   7117     1  0.0000000  0.6508444  3
   7114   7112   7115   7124     1  0.0000000  0.6508444  3
   7114   7112   7115   7116     1  0.0000000  0.6508444  3
   7114   7112   7115   7117     1  0.0000000  0.6508444  3
   7116   7115   7124   7133     1  0.0000000  1.0460000  1
   7116   7115   7124   7133     1  0.0000000  0.0000000  3
   7116   7115   7124   7125     1  0.0000000  0.6508444  3
   7116   7115   7124   7126     1  0.0000000  0.6508444  3
   7117   7115   7124   7133     1  0.0000000  1.0460000  1
   7117   7115   7124   7133     1  0.0000000  0.0000000  3
   7117   7115   7124   7125     1  0.0000000  0.6508444  3
   7117   7115   7124   7126     1  0.0000000  0.6508444  3
   7119   7118   7130  12873     1  0.0000000  1.0460000  1
   7119   7118   7130  12873     1  0.0000000  0.0000000  3
   7119   7118   7130   7131     1  0.0000000  0.6508444  3
   7119   7118   7130   7132     1  0.0000000  0.6508444  3
   7120   7118   7130  12873     1  0.0000000  1.0460000  1
   7120   7118   7130  12873     1  0.0000000  0.0000000  3
   7120   7118   7130   7131     1  0.0000000  0.6508444  3
   7120   7118   7130   7132     1  0.0000000  0.6508444  3
   7122   7121   7127  12850     1  0.0000000  1.0460000  1
   7122   7121   7127  12850     1  0.0000000  0.0000000  3
   7122   7121   7127   7128     1  0.0000000  0.6508444  3
   7122   7121   7127   7129     1  0.0000000  0.6508444  3
   7123   7121   7127  12850     1  0.0000000  1.0460000  1
   7123   7121   7127  12850     1  0.0000000  0.0000000  3
   7123   7121   7127   7128     1  0.0000000  0.6508444  3
   7123   7121   7127   7129     1  0.0000000  0.6508444  3
   7127  12850  12846  12849     1  0.0000000  1.6038667  3
   7128   7127  12850  12846     1  0.0000000  1.6038667  3
   7129   7127  12850  12846     1  0.0000000  1.6038667  3
   7130  12873  12869  12872     1  0.0000000  1.6038667  3
   7131   7130  12873  12869     1  0.0000000  1.6038667  3
   7132   7130  12873  12869     1  0.0000000  1.6038667  3
   7134   7135   7147   7148     1  0.0000000  0.6508444  3
   7134   7135   7147   7149     1  0.0000000  0.6508444  3
   7134   7138   7150   7151     1  0.0000000  0.6508444  3
   7134   7138   7150   7152     1  0.0000000  0.6508444  3
   7134   7141   7144   7145     1  0.0000000  0.6508444  3
   7134   7141   7144   7146     1  0.0000000  0.6508444  3
   7135   7134   7138   7139     1  0.0000000  1.2552000  3
   7135   7134   7138   7140     1  0.0000000  1.2552000  3
   7135   7134   7141   7142     1  0.0000000  1.2552000  3
   7135   7134   7141   7143     1  0.0000000  1.2552000  3
   7135   7147   7159   7160     1  0.0000000  0.6508444  3
   7135   7147   7159   7161     1  0.0000000  0.6508444  3
   7136   7135   7134   7138     1  0.0000000  1.2552000  3
   7136   7135   7134   7141     1  0.0000000  1.2552000  3
   7136   7135   7147   7159     1  0.0000000  0.6508444  3
   7136   7135   7147   7148     1  0.0000000  0.6508444  3
   7136   7135   7147   7149     1  0.0000000  0.6508444  3
   7137   7135   7134   7138     1  0.0000000  1.2552000  3
   7137   7135   7134   7141     1  0.0000000  1.2552000  3
   7137   7135   7147   7159     1  0.0000000  0.6508444  3
   7137   7135   7147   7148     1  0.0000000  0.6508444  3
   7137   7135   7147   7149     1  0.0000000  0.6508444  3
   7138   7134   7141   7142     1  0.0000000  1.2552000  3
   7138   7134   7141   7143     1  0.0000000  1.2552000  3
   7138   7150   7156   7157     1  0.0000000  0.6508444  3
   7138   7150   7156   7158     1  0.0000000  0.6508444  3
   7139   7138   7134   7141     1  0.0000000  1.2552000  3
   7139   7138   7150   7156     1  0.0000000  0.6508444  3
   7139   7138   7150   7151     1  0.0000000  0.6508444  3
   7139   7138   7150   7152     1  0.0000000  0.6508444  3
   7140   7138   7134   7141     1  0.0000000  1.2552000  3
   7140   7138   7150   7156     1  0.0000000  0.6508444  3
   7140   7138   7150   7151     1  0.0000000  0.6508444  3
   7140   7138   7150   7152     1  0.0000000  0.6508444  3
   7141   7144   7153   7154     1  0.0000000  0.6508444  3
   7141   7144   7153   7155     1  0.0000000  0.6508444  3
   7142   7141   7144   7153     1  0.0000000  0.6508444  3
   7142   7141   7144   7145     1  0.0000000  0.6508444  3
   7142   7141   7144   7146     1  0.0000000  0.6508444  3
   7143   7141   7144   7153     1  0.0000000  0.6508444  3
   7143   7141   7144   7145     1  0.0000000  0.6508444  3
   7143   7141   7144   7146     1  0.0000000  0.6508444  3
   7145   7144   7153   7162     1  0.0000000  1.0460000  1
   7145   7144   7153   7162     1  0.0000000  0.0000000  3
   7145   7144   7153   7154     1  0.0000000  0.6508444  3
   7145   7144   7153   7155     1  0.0000000  0.6508444  3
   7146   7144   7153   7162     1  0.0000000  1.0460000  1
   7146   7144   7153   7162     1  0.0000000  0.0000000  3
   7146   7144   7153   7154     1  0.0000000  0.6508444  3
   7146   7144   7153   7155     1  0.0000000  0.6508444  3
   7148   7147   7159  12919     1  0.0000000  1.0460000  1
   7148   7147   7159  12919     1  0.0000000  0.0000000  3
   7148   7147   7159   7160     1  0.0000000  0.6508444  3
   7148   7147   7159   7161     1  0.0000000  0.6508444  3
   7149   7147   7159  12919     1  0.0000000  1.0460000  1
   7149   7147   7159  12919     1  0.0000000  0.0000000  3
   7149   7147   7159   7160     1  0.0000000  0.6508444  3
   7149   7147   7159   7161     1  0.0000000  0.6508444  3
   7151   7150   7156  12896     1  0.0000000  1.0460000  1
   7151   7150   7156  12896     1  0.0000000  0.0000000  3
   7151   7150   7156   7157     1  0.0000000  0.6508444  3
   7151   7150   7156   7158     1  0.0000000  0.6508444  3
   7152   7150   7156  12896     1  0.0000000  1.0460000  1
   7152   7150   7156  12896     1  0.0000000  0.0000000  3
   7152   7150   7156   7157     1  0.0000000  0.6508444  3
   7152   7150   7156   7158     1  0.0000000  0.6508444  3
   7156  12896  12892  12895     1  0.0000000  1.6038667  3
   7157   7156  12896  12892     1  0.0000000  1.6038667  3
   7158   7156  12896  12892     1  0.0000000  1.6038667  3
   7159  12919  12915  12918     1  0.0000000  1.6038667  3
   7160   7159  12919  12915     1  0.0000000  1.6038667  3
   7161   7159  12919  12915     1  0.0000000  1.6038667  3
   7163   7164   7176   7177     1  0.0000000  0.6508444  3
   7163   7164   7176   7178     1  0.0000000  0.6508444  3
   7163   7167   7179   7180     1  0.0000000  0.6508444  3
   7163   7167   7179   7181     1  0.0000000  0.6508444  3
   7163   7170   7173   7174     1  0.0000000  0.6508444  3
   7163   7170   7173   7175     1  0.0000000  0.6508444  3
   7164   7163   7167   7168     1  0.0000000  1.2552000  3
   7164   7163   7167   7169     1  0.0000000  1.2552000  3
   7164   7163   7170   7171     1  0.0000000  1.2552000  3
   7164   7163   7170   7172     1  0.0000000  1.2552000  3
   7164   7176   7188   7189     1  0.0000000  0.6508444  3
   7164   7176   7188   7190     1  0.0000000  0.6508444  3
   7165   7164   7163   7167     1  0.0000000  1.2552000  3
   7165   7164   7163   7170     1  0.0000000  1.2552000  3
   7165   7164   7176   7188     1  0.0000000  0.6508444  3
   7165   7164   7176   7177     1  0.0000000  0.6508444  3
   7165   7164   7176   7178     1  0.0000000  0.6508444  3
   7166   7164   7163   7167     1  0.0000000  1.2552000  3
   7166   7164   7163   7170     1  0.0000000  1.2552000  3
   7166   7164   7176   7188     1  0.0000000  0.6508444  3
   7166   7164   7176   7177     1  0.0000000  0.6508444  3
   7166   7164   7176   7178     1  0.0000000  0.6508444  3
   7167   7163   7170   7171     1  0.0000000  1.2552000  3
   7167   7163   7170   7172     1  0.0000000  1.2552000  3
   7167   7179   7185   7186     1  0.0000000  0.6508444  3
   7167   7179   7185   7187     1  0.0000000  0.6508444  3
   7168   7167   7163   7170     1  0.0000000  1.2552000  3
   7168   7167   7179   7185     1  0.0000000  0.6508444  3
   7168   7167   7179   7180     1  0.0000000  0.6508444  3
   7168   7167   7179   7181     1  0.0000000  0.6508444  3
   7169   7167   7163   7170     1  0.0000000  1.2552000  3
   7169   7167   7179   7185     1  0.0000000  0.6508444  3
   7169   7167   7179   7180     1  0.0000000  0.6508444  3
   7169   7167   7179   7181     1  0.0000000  0.6508444  3
   7170   7173   7182   7183     1  0.0000000  0.6508444  3
   7170   7173   7182   7184     1  0.0000000  0.6508444  3
   7171   7170   7173   7182     1  0.0000000  0.6508444  3
   7171   7170   7173   7174     1  0.0000000  0.6508444  3
   7171   7170   7173   7175     1  0.0000000  0.6508444  3
   7172   7170   7173   7182     1  0.0000000  0.6508444  3
   7172   7170   7173   7174     1  0.0000000  0.6508444  3
   7172   7170   7173   7175     1  0.0000000  0.6508444  3
   7174   7173   7182   7191     1  0.0000000  1.0460000  1
   7174   7173   7182   7191     1  0.0000000  0.0000000  3
   7174   7173   7182   7183     1  0.0000000  0.6508444  3
   7174   7173   7182   7184     1  0.0000000  0.6508444  3
   7175   7173   7182   7191     1  0.0000000  1.0460000  1
   7175   7173   7182   7191     1  0.0000000  0.0000000  3
   7175   7173   7182   7183     1  0.0000000  0.6508444  3
   7175   7173   7182   7184     1  0.0000000  0.6508444  3
   7177   7176   7188  12965     1  0.0000000  1.0460000  1
   7177   7176   7188  12965     1  0.0000000  0.0000000  3
   7177   7176   7188   7189     1  0.0000000  0.6508444  3
   7177   7176   7188   7190     1  0.0000000  0.6508444  3
   7178   7176   7188  12965     1  0.0000000  1.0460000  1
   7178   7176   7188  12965     1  0.0000000  0.0000000  3
   7178   7176   7188   7189     1  0.0000000  0.6508444  3
   7178   7176   7188   7190     1  0.0000000  0.6508444  3
   7180   7179   7185  12942     1  0.0000000  1.0460000  1
   7180   7179   7185  12942     1  0.0000000  0.0000000  3
   7180   7179   7185   7186     1  0.0000000  0.6508444  3
   7180   7179   7185   7187     1  0.0000000  0.6508444  3
   7181   7179   7185  12942     1  0.0000000  1.0460000  1
   7181   7179   7185  12942     1  0.0000000  0.0000000  3
   7181   7179   7185   7186     1  0.0000000  0.6508444  3
   7181   7179   7185   7187     1  0.0000000  0.6508444  3
   7185  12942  12938  12941     1  0.0000000  1.6038667  3
   7186   7185  12942  12938     1  0.0000000  1.6038667  3
   7187   7185  12942  12938     1  0.0000000  1.6038667  3
   7188  12965  12961  12964     1  0.0000000  1.6038667  3
   7189   7188  12965  12961     1  0.0000000  1.6038667  3
   7190   7188  12965  12961     1  0.0000000  1.6038667  3
   7192   7193   7205   7206     1  0.0000000  0.6508444  3
   7192   7193   7205   7207     1  0.0000000  0.6508444  3
   7192   7196   7208   7209     1  0.0000000  0.6508444  3
   7192   7196   7208   7210     1  0.0000000  0.6508444  3
   7192   7199   7202   7203     1  0.0000000  0.6508444  3
   7192   7199   7202   7204     1  0.0000000  0.6508444  3
   7193   7192   7196   7197     1  0.0000000  1.2552000  3
   7193   7192   7196   7198     1  0.0000000  1.2552000  3
   7193   7192   7199   7200     1  0.0000000  1.2552000  3
   7193   7192   7199   7201     1  0.0000000  1.2552000  3
   7193   7205   7217   7218     1  0.0000000  0.6508444  3
   7193   7205   7217   7219     1  0.0000000  0.6508444  3
   7194   7193   7192   7196     1  0.0000000  1.2552000  3
   7194   7193   7192   7199     1  0.0000000  1.2552000  3
   7194   7193   7205   7217     1  0.0000000  0.6508444  3
   7194   7193   7205   7206     1  0.0000000  0.6508444  3
   7194   7193   7205   7207     1  0.0000000  0.6508444  3
   7195   7193   7192   7196     1  0.0000000  1.2552000  3
   7195   7193   7192   7199     1  0.0000000  1.2552000  3
   7195   7193   7205   7217     1  0.0000000  0.6508444  3
   7195   7193   7205   7206     1  0.0000000  0.6508444  3
   7195   7193   7205   7207     1  0.0000000  0.6508444  3
   7196   7192   7199   7200     1  0.0000000  1.2552000  3
   7196   7192   7199   7201     1  0.0000000  1.2552000  3
   7196   7208   7214   7215     1  0.0000000  0.6508444  3
   7196   7208   7214   7216     1  0.0000000  0.6508444  3
   7197   7196   7192   7199     1  0.0000000  1.2552000  3
   7197   7196   7208   7214     1  0.0000000  0.6508444  3
   7197   7196   7208   7209     1  0.0000000  0.6508444  3
   7197   7196   7208   7210     1  0.0000000  0.6508444  3
   7198   7196   7192   7199     1  0.0000000  1.2552000  3
   7198   7196   7208   7214     1  0.0000000  0.6508444  3
   7198   7196   7208   7209     1  0.0000000  0.6508444  3
   7198   7196   7208   7210     1  0.0000000  0.6508444  3
   7199   7202   7211   7212     1  0.0000000  0.6508444  3
   7199   7202   7211   7213     1  0.0000000  0.6508444  3
   7200   7199   7202   7211     1  0.0000000  0.6508444  3
   7200   7199   7202   7203     1  0.0000000  0.6508444  3
   7200   7199   7202   7204     1  0.0000000  0.6508444  3
   7201   7199   7202   7211     1  0.0000000  0.6508444  3
   7201   7199   7202   7203     1  0.0000000  0.6508444  3
   7201   7199   7202   7204     1  0.0000000  0.6508444  3
   7203   7202   7211   7220     1  0.0000000  1.0460000  1
   7203   7202   7211   7220     1  0.0000000  0.0000000  3
   7203   7202   7211   7212     1  0.0000000  0.6508444  3
   7203   7202   7211   7213     1  0.0000000  0.6508444  3
   7204   7202   7211   7220     1  0.0000000  1.0460000  1
   7204   7202   7211   7220     1  0.0000000  0.0000000  3
   7204   7202   7211   7212     1  0.0000000  0.6508444  3
   7204   7202   7211   7213     1  0.0000000  0.6508444  3
   7206   7205   7217  13011     1  0.0000000  1.0460000  1
   7206   7205   7217  13011     1  0.0000000  0.0000000  3
   7206   7205   7217   7218     1  0.0000000  0.6508444  3
   7206   7205   7217   7219     1  0.0000000  0.6508444  3
   7207   7205   7217  13011     1  0.0000000  1.0460000  1
   7207   7205   7217  13011     1  0.0000000  0.0000000  3
   7207   7205   7217   7218     1  0.0000000  0.6508444  3
   7207   7205   7217   7219     1  0.0000000  0.6508444  3
   7209   7208   7214  12988     1  0.0000000  1.0460000  1
   7209   7208   7214  12988     1  0.0000000  0.0000000  3
   7209   7208   7214   7215     1  0.0000000  0.6508444  3
   7209   7208   7214   7216     1  0.0000000  0.6508444  3
   7210   7208   7214  12988     1  0.0000000  1.0460000  1
   7210   7208   7214  12988     1  0.0000000  0.0000000  3
   7210   7208   7214   7215     1  0.0000000  0.6508444  3
   7210   7208   7214   7216     1  0.0000000  0.6508444  3
   7214  12988  12984  12987     1  0.0000000  1.6038667  3
   7215   7214  12988  12984     1  0.0000000  1.6038667  3
   7216   7214  12988  12984     1  0.0000000  1.6038667  3
   7217  13011  13007  13010     1  0.0000000  1.6038667  3
   7218   7217  13011  13007     1  0.0000000  1.6038667  3
   7219   7217  13011  13007     1  0.0000000  1.6038667  3
   7221   7222   7234   7235     1  0.0000000  0.6508444  3
   7221   7222   7234   7236     1  0.0000000  0.6508444  3
   7221   7225   7237   7238     1  0.0000000  0.6508444  3
   7221   7225   7237   7239     1  0.0000000  0.6508444  3
   7221   7228   7231   7232     1  0.0000000  0.6508444  3
   7221   7228   7231   7233     1  0.0000000  0.6508444  3
   7222   7221   7225   7226     1  0.0000000  1.2552000  3
   7222   7221   7225   7227     1  0.0000000  1.2552000  3
   7222   7221   7228   7229     1  0.0000000  1.2552000  3
   7222   7221   7228   7230     1  0.0000000  1.2552000  3
   7222   7234   7246   7247     1  0.0000000  0.6508444  3
   7222   7234   7246   7248     1  0.0000000  0.6508444  3
   7223   7222   7221   7225     1  0.0000000  1.2552000  3
   7223   7222   7221   7228     1  0.0000000  1.2552000  3
   7223   7222   7234   7246     1  0.0000000  0.6508444  3
   7223   7222   7234   7235     1  0.0000000  0.6508444  3
   7223   7222   7234   7236     1  0.0000000  0.6508444  3
   7224   7222   7221   7225     1  0.0000000  1.2552000  3
   7224   7222   7221   7228     1  0.0000000  1.2552000  3
   7224   7222   7234   7246     1  0.0000000  0.6508444  3
   7224   7222   7234   7235     1  0.0000000  0.6508444  3
   7224   7222   7234   7236     1  0.0000000  0.6508444  3
   7225   7221   7228   7229     1  0.0000000  1.2552000  3
   7225   7221   7228   7230     1  0.0000000  1.2552000  3
   7225   7237   7243   7244     1  0.0000000  0.6508444  3
   7225   7237   7243   7245     1  0.0000000  0.6508444  3
   7226   7225   7221   7228     1  0.0000000  1.2552000  3
   7226   7225   7237   7243     1  0.0000000  0.6508444  3
   7226   7225   7237   7238     1  0.0000000  0.6508444  3
   7226   7225   7237   7239     1  0.0000000  0.6508444  3
   7227   7225   7221   7228     1  0.0000000  1.2552000  3
   7227   7225   7237   7243     1  0.0000000  0.6508444  3
   7227   7225   7237   7238     1  0.0000000  0.6508444  3
   7227   7225   7237   7239     1  0.0000000  0.6508444  3
   7228   7231   7240   7241     1  0.0000000  0.6508444  3
   7228   7231   7240   7242     1  0.0000000  0.6508444  3
   7229   7228   7231   7240     1  0.0000000  0.6508444  3
   7229   7228   7231   7232     1  0.0000000  0.6508444  3
   7229   7228   7231   7233     1  0.0000000  0.6508444  3
   7230   7228   7231   7240     1  0.0000000  0.6508444  3
   7230   7228   7231   7232     1  0.0000000  0.6508444  3
   7230   7228   7231   7233     1  0.0000000  0.6508444  3
   7232   7231   7240   7249     1  0.0000000  1.0460000  1
   7232   7231   7240   7249     1  0.0000000  0.0000000  3
   7232   7231   7240   7241     1  0.0000000  0.6508444  3
   7232   7231   7240   7242     1  0.0000000  0.6508444  3
   7233   7231   7240   7249     1  0.0000000  1.0460000  1
   7233   7231   7240   7249     1  0.0000000  0.0000000  3
   7233   7231   7240   7241     1  0.0000000  0.6508444  3
   7233   7231   7240   7242     1  0.0000000  0.6508444  3
   7235   7234   7246  13057     1  0.0000000  1.0460000  1
   7235   7234   7246  13057     1  0.0000000  0.0000000  3
   7235   7234   7246   7247     1  0.0000000  0.6508444  3
   7235   7234   7246   7248     1  0.0000000  0.6508444  3
   7236   7234   7246  13057     1  0.0000000  1.0460000  1
   7236   7234   7246  13057     1  0.0000000  0.0000000  3
   7236   7234   7246   7247     1  0.0000000  0.6508444  3
   7236   7234   7246   7248     1  0.0000000  0.6508444  3
   7238   7237   7243  13034     1  0.0000000  1.0460000  1
   7238   7237   7243  13034     1  0.0000000  0.0000000  3
   7238   7237   7243   7244     1  0.0000000  0.6508444  3
   7238   7237   7243   7245     1  0.0000000  0.6508444  3
   7239   7237   7243  13034     1  0.0000000  1.0460000  1
   7239   7237   7243  13034     1  0.0000000  0.0000000  3
   7239   7237   7243   7244     1  0.0000000  0.6508444  3
   7239   7237   7243   7245     1  0.0000000  0.6508444  3
   7243  13034  13030  13033     1  0.0000000  1.6038667  3
   7244   7243  13034  13030     1  0.0000000  1.6038667  3
   7245   7243  13034  13030     1  0.0000000  1.6038667  3
   7246  13057  13053  13056     1  0.0000000  1.6038667  3
   7247   7246  13057  13053     1  0.0000000  1.6038667  3
   7248   7246  13057  13053     1  0.0000000  1.6038667  3
   7250   7251   7263   7264     1  0.0000000  0.6508444  3
   7250   7251   7263   7265     1  0.0000000  0.6508444  3
   7250   7254   7266   7267     1  0.0000000  0.6508444  3
   7250   7254   7266   7268     1  0.0000000  0.6508444  3
   7250   7257   7260   7261     1  0.0000000  0.6508444  3
   7250   7257   7260   7262     1  0.0000000  0.6508444  3
   7251   7250   7254   7255     1  0.0000000  1.2552000  3
   7251   7250   7254   7256     1  0.0000000  1.2552000  3
   7251   7250   7257   7258     1  0.0000000  1.2552000  3
   7251   7250   7257   7259     1  0.0000000  1.2552000  3
   7251   7263   7275   7276     1  0.0000000  0.6508444  3
   7251   7263   7275   7277     1  0.0000000  0.6508444  3
   7252   7251   7250   7254     1  0.0000000  1.2552000  3
   7252   7251   7250   7257     1  0.0000000  1.2552000  3
   7252   7251   7263   7275     1  0.0000000  0.6508444  3
   7252   7251   7263   7264     1  0.0000000  0.6508444  3
   7252   7251   7263   7265     1  0.0000000  0.6508444  3
   7253   7251   7250   7254     1  0.0000000  1.2552000  3
   7253   7251   7250   7257     1  0.0000000  1.2552000  3
   7253   7251   7263   7275     1  0.0000000  0.6508444  3
   7253   7251   7263   7264     1  0.0000000  0.6508444  3
   7253   7251   7263   7265     1  0.0000000  0.6508444  3
   7254   7250   7257   7258     1  0.0000000  1.2552000  3
   7254   7250   7257   7259     1  0.0000000  1.2552000  3
   7254   7266   7272   7273     1  0.0000000  0.6508444  3
   7254   7266   7272   7274     1  0.0000000  0.6508444  3
   7255   7254   7250   7257     1  0.0000000  1.2552000  3
   7255   7254   7266   7272     1  0.0000000  0.6508444  3
   7255   7254   7266   7267     1  0.0000000  0.6508444  3
   7255   7254   7266   7268     1  0.0000000  0.6508444  3
   7256   7254   7250   7257     1  0.0000000  1.2552000  3
   7256   7254   7266   7272     1  0.0000000  0.6508444  3
   7256   7254   7266   7267     1  0.0000000  0.6508444  3
   7256   7254   7266   7268     1  0.0000000  0.6508444  3
   7257   7260   7269   7270     1  0.0000000  0.6508444  3
   7257   7260   7269   7271     1  0.0000000  0.6508444  3
   7258   7257   7260   7269     1  0.0000000  0.6508444  3
   7258   7257   7260   7261     1  0.0000000  0.6508444  3
   7258   7257   7260   7262     1  0.0000000  0.6508444  3
   7259   7257   7260   7269     1  0.0000000  0.6508444  3
   7259   7257   7260   7261     1  0.0000000  0.6508444  3
   7259   7257   7260   7262     1  0.0000000  0.6508444  3
   7261   7260   7269   7278     1  0.0000000  1.0460000  1
   7261   7260   7269   7278     1  0.0000000  0.0000000  3
   7261   7260   7269   7270     1  0.0000000  0.6508444  3
   7261   7260   7269   7271     1  0.0000000  0.6508444  3
   7262   7260   7269   7278     1  0.0000000  1.0460000  1
   7262   7260   7269   7278     1  0.0000000  0.0000000  3
   7262   7260   7269   7270     1  0.0000000  0.6508444  3
   7262   7260   7269   7271     1  0.0000000  0.6508444  3
   7264   7263   7275  13103     1  0.0000000  1.0460000  1
   7264   7263   7275  13103     1  0.0000000  0.0000000  3
   7264   7263   7275   7276     1  0.0000000  0.6508444  3
   7264   7263   7275   7277     1  0.0000000  0.6508444  3
   7265   7263   7275  13103     1  0.0000000  1.0460000  1
   7265   7263   7275  13103     1  0.0000000  0.0000000  3
   7265   7263   7275   7276     1  0.0000000  0.6508444  3
   7265   7263   7275   7277     1  0.0000000  0.6508444  3
   7267   7266   7272  13080     1  0.0000000  1.0460000  1
   7267   7266   7272  13080     1  0.0000000  0.0000000  3
   7267   7266   7272   7273     1  0.0000000  0.6508444  3
   7267   7266   7272   7274     1  0.0000000  0.6508444  3
   7268   7266   7272  13080     1  0.0000000  1.0460000  1
   7268   7266   7272  13080     1  0.0000000  0.0000000  3
   7268   7266   7272   7273     1  0.0000000  0.6508444  3
   7268   7266   7272   7274     1  0.0000000  0.6508444  3
   7272  13080  13076  13079     1  0.0000000  1.6038667  3
   7273   7272  13080  13076     1  0.0000000  1.6038667  3
   7274   7272  13080  13076     1  0.0000000  1.6038667  3
   7275  13103  13099  13102     1  0.0000000  1.6038667  3
   7276   7275  13103  13099     1  0.0000000  1.6038667  3
   7277   7275  13103  13099     1  0.0000000  1.6038667  3
   7279   7280   7292   7293     1  0.0000000  0.6508444  3
   7279   7280   7292   7294     1  0.0000000  0.6508444  3
   7279   7283   7295   7296     1  0.0000000  0.6508444  3
   7279   7283   7295   7297     1  0.0000000  0.6508444  3
   7279   7286   7289   7290     1  0.0000000  0.6508444  3
   7279   7286   7289   7291     1  0.0000000  0.6508444  3
   7280   7279   7283   7284     1  0.0000000  1.2552000  3
   7280   7279   7283   7285     1  0.0000000  1.2552000  3
   7280   7279   7286   7287     1  0.0000000  1.2552000  3
   7280   7279   7286   7288     1  0.0000000  1.2552000  3
   7280   7292   7304   7305     1  0.0000000  0.6508444  3
   7280   7292   7304   7306     1  0.0000000  0.6508444  3
   7281   7280   7279   7283     1  0.0000000  1.2552000  3
   7281   7280   7279   7286     1  0.0000000  1.2552000  3
   7281   7280   7292   7304     1  0.0000000  0.6508444  3
   7281   7280   7292   7293     1  0.0000000  0.6508444  3
   7281   7280   7292   7294     1  0.0000000  0.6508444  3
   7282   7280   7279   7283     1  0.0000000  1.2552000  3
   7282   7280   7279   7286     1  0.0000000  1.2552000  3
   7282   7280   7292   7304     1  0.0000000  0.6508444  3
   7282   7280   7292   7293     1  0.0000000  0.6508444  3
   7282   7280   7292   7294     1  0.0000000  0.6508444  3
   7283   7279   7286   7287     1  0.0000000  1.2552000  3
   7283   7279   7286   7288     1  0.0000000  1.2552000  3
   7283   7295   7301   7302     1  0.0000000  0.6508444  3
   7283   7295   7301   7303     1  0.0000000  0.6508444  3
   7284   7283   7279   7286     1  0.0000000  1.2552000  3
   7284   7283   7295   7301     1  0.0000000  0.6508444  3
   7284   7283   7295   7296     1  0.0000000  0.6508444  3
   7284   7283   7295   7297     1  0.0000000  0.6508444  3
   7285   7283   7279   7286     1  0.0000000  1.2552000  3
   7285   7283   7295   7301     1  0.0000000  0.6508444  3
   7285   7283   7295   7296     1  0.0000000  0.6508444  3
   7285   7283   7295   7297     1  0.0000000  0.6508444  3
   7286   7289   7298   7299     1  0.0000000  0.6508444  3
   7286   7289   7298   7300     1  0.0000000  0.6508444  3
   7287   7286   7289   7298     1  0.0000000  0.6508444  3
   7287   7286   7289   7290     1  0.0000000  0.6508444  3
   7287   7286   7289   7291     1  0.0000000  0.6508444  3
   7288   7286   7289   7298     1  0.0000000  0.6508444  3
   7288   7286   7289   7290     1  0.0000000  0.6508444  3
   7288   7286   7289   7291     1  0.0000000  0.6508444  3
   7290   7289   7298   7307     1  0.0000000  1.0460000  1
   7290   7289   7298   7307     1  0.0000000  0.0000000  3
   7290   7289   7298   7299     1  0.0000000  0.6508444  3
   7290   7289   7298   7300     1  0.0000000  0.6508444  3
   7291   7289   7298   7307     1  0.0000000  1.0460000  1
   7291   7289   7298   7307     1  0.0000000  0.0000000  3
   7291   7289   7298   7299     1  0.0000000  0.6508444  3
   7291   7289   7298   7300     1  0.0000000  0.6508444  3
   7293   7292   7304  13149     1  0.0000000  1.0460000  1
   7293   7292   7304  13149     1  0.0000000  0.0000000  3
   7293   7292   7304   7305     1  0.0000000  0.6508444  3
   7293   7292   7304   7306     1  0.0000000  0.6508444  3
   7294   7292   7304  13149     1  0.0000000  1.0460000  1
   7294   7292   7304  13149     1  0.0000000  0.0000000  3
   7294   7292   7304   7305     1  0.0000000  0.6508444  3
   7294   7292   7304   7306     1  0.0000000  0.6508444  3
   7296   7295   7301  13126     1  0.0000000  1.0460000  1
   7296   7295   7301  13126     1  0.0000000  0.0000000  3
   7296   7295   7301   7302     1  0.0000000  0.6508444  3
   7296   7295   7301   7303     1  0.0000000  0.6508444  3
   7297   7295   7301  13126     1  0.0000000  1.0460000  1
   7297   7295   7301  13126     1  0.0000000  0.0000000  3
   7297   7295   7301   7302     1  0.0000000  0.6508444  3
   7297   7295   7301   7303     1  0.0000000  0.6508444  3
   7301  13126  13122  13125     1  0.0000000  1.6038667  3
   7302   7301  13126  13122     1  0.0000000  1.6038667  3
   7303   7301  13126  13122     1  0.0000000  1.6038667  3
   7304  13149  13145  13148     1  0.0000000  1.6038667  3
   7305   7304  13149  13145     1  0.0000000  1.6038667  3
   7306   7304  13149  13145     1  0.0000000  1.6038667  3
   7308   7309   7321   7322     1  0.0000000  0.6508444  3
   7308   7309   7321   7323     1  0.0000000  0.6508444  3
   7308   7312   7324   7325     1  0.0000000  0.6508444  3
   7308   7312   7324   7326     1  0.0000000  0.6508444  3
   7308   7315   7318   7319     1  0.0000000  0.6508444  3
   7308   7315   7318   7320     1  0.0000000  0.6508444  3
   7309   7308   7312   7313     1  0.0000000  1.2552000  3
   7309   7308   7312   7314     1  0.0000000  1.2552000  3
   7309   7308   7315   7316     1  0.0000000  1.2552000  3
   7309   7308   7315   7317     1  0.0000000  1.2552000  3
   7309   7321   7333   7334     1  0.0000000  0.6508444  3
   7309   7321   7333   7335     1  0.0000000  0.6508444  3
   7310   7309   7308   7312     1  0.0000000  1.2552000  3
   7310   7309   7308   7315     1  0.0000000  1.2552000  3
   7310   7309   7321   7333     1  0.0000000  0.6508444  3
   7310   7309   7321   7322     1  0.0000000  0.6508444  3
   7310   7309   7321   7323     1  0.0000000  0.6508444  3
   7311   7309   7308   7312     1  0.0000000  1.2552000  3
   7311   7309   7308   7315     1  0.0000000  1.2552000  3
   7311   7309   7321   7333     1  0.0000000  0.6508444  3
   7311   7309   7321   7322     1  0.0000000  0.6508444  3
   7311   7309   7321   7323     1  0.0000000  0.6508444  3
   7312   7308   7315   7316     1  0.0000000  1.2552000  3
   7312   7308   7315   7317     1  0.0000000  1.2552000  3
   7312   7324   7330   7331     1  0.0000000  0.6508444  3
   7312   7324   7330   7332     1  0.0000000  0.6508444  3
   7313   7312   7308   7315     1  0.0000000  1.2552000  3
   7313   7312   7324   7330     1  0.0000000  0.6508444  3
   7313   7312   7324   7325     1  0.0000000  0.6508444  3
   7313   7312   7324   7326     1  0.0000000  0.6508444  3
   7314   7312   7308   7315     1  0.0000000  1.2552000  3
   7314   7312   7324   7330     1  0.0000000  0.6508444  3
   7314   7312   7324   7325     1  0.0000000  0.6508444  3
   7314   7312   7324   7326     1  0.0000000  0.6508444  3
   7315   7318   7327   7328     1  0.0000000  0.6508444  3
   7315   7318   7327   7329     1  0.0000000  0.6508444  3
   7316   7315   7318   7327     1  0.0000000  0.6508444  3
   7316   7315   7318   7319     1  0.0000000  0.6508444  3
   7316   7315   7318   7320     1  0.0000000  0.6508444  3
   7317   7315   7318   7327     1  0.0000000  0.6508444  3
   7317   7315   7318   7319     1  0.0000000  0.6508444  3
   7317   7315   7318   7320     1  0.0000000  0.6508444  3
   7319   7318   7327   7336     1  0.0000000  1.0460000  1
   7319   7318   7327   7336     1  0.0000000  0.0000000  3
   7319   7318   7327   7328     1  0.0000000  0.6508444  3
   7319   7318   7327   7329     1  0.0000000  0.6508444  3
   7320   7318   7327   7336     1  0.0000000  1.0460000  1
   7320   7318   7327   7336     1  0.0000000  0.0000000  3
   7320   7318   7327   7328     1  0.0000000  0.6508444  3
   7320   7318   7327   7329     1  0.0000000  0.6508444  3
   7322   7321   7333  13195     1  0.0000000  1.0460000  1
   7322   7321   7333  13195     1  0.0000000  0.0000000  3
   7322   7321   7333   7334     1  0.0000000  0.6508444  3
   7322   7321   7333   7335     1  0.0000000  0.6508444  3
   7323   7321   7333  13195     1  0.0000000  1.0460000  1
   7323   7321   7333  13195     1  0.0000000  0.0000000  3
   7323   7321   7333   7334     1  0.0000000  0.6508444  3
   7323   7321   7333   7335     1  0.0000000  0.6508444  3
   7325   7324   7330  13172     1  0.0000000  1.0460000  1
   7325   7324   7330  13172     1  0.0000000  0.0000000  3
   7325   7324   7330   7331     1  0.0000000  0.6508444  3
   7325   7324   7330   7332     1  0.0000000  0.6508444  3
   7326   7324   7330  13172     1  0.0000000  1.0460000  1
   7326   7324   7330  13172     1  0.0000000  0.0000000  3
   7326   7324   7330   7331     1  0.0000000  0.6508444  3
   7326   7324   7330   7332     1  0.0000000  0.6508444  3
   7330  13172  13168  13171     1  0.0000000  1.6038667  3
   7331   7330  13172  13168     1  0.0000000  1.6038667  3
   7332   7330  13172  13168     1  0.0000000  1.6038667  3
   7333  13195  13191  13194     1  0.0000000  1.6038667  3
   7334   7333  13195  13191     1  0.0000000  1.6038667  3
   7335   7333  13195  13191     1  0.0000000  1.6038667  3
   7337   7338   7350   7351     1  0.0000000  0.6508444  3
   7337   7338   7350   7352     1  0.0000000  0.6508444  3
   7337   7341   7353   7354     1  0.0000000  0.6508444  3
   7337   7341   7353   7355     1  0.0000000  0.6508444  3
   7337   7344   7347   7348     1  0.0000000  0.6508444  3
   7337   7344   7347   7349     1  0.0000000  0.6508444  3
   7338   7337   7341   7342     1  0.0000000  1.2552000  3
   7338   7337   7341   7343     1  0.0000000  1.2552000  3
   7338   7337   7344   7345     1  0.0000000  1.2552000  3
   7338   7337   7344   7346     1  0.0000000  1.2552000  3
   7338   7350   7362   7363     1  0.0000000  0.6508444  3
   7338   7350   7362   7364     1  0.0000000  0.6508444  3
   7339   7338   7337   7341     1  0.0000000  1.2552000  3
   7339   7338   7337   7344     1  0.0000000  1.2552000  3
   7339   7338   7350   7362     1  0.0000000  0.6508444  3
   7339   7338   7350   7351     1  0.0000000  0.6508444  3
   7339   7338   7350   7352     1  0.0000000  0.6508444  3
   7340   7338   7337   7341     1  0.0000000  1.2552000  3
   7340   7338   7337   7344     1  0.0000000  1.2552000  3
   7340   7338   7350   7362     1  0.0000000  0.6508444  3
   7340   7338   7350   7351     1  0.0000000  0.6508444  3
   7340   7338   7350   7352     1  0.0000000  0.6508444  3
   7341   7337   7344   7345     1  0.0000000  1.2552000  3
   7341   7337   7344   7346     1  0.0000000  1.2552000  3
   7341   7353   7359   7360     1  0.0000000  0.6508444  3
   7341   7353   7359   7361     1  0.0000000  0.6508444  3
   7342   7341   7337   7344     1  0.0000000  1.2552000  3
   7342   7341   7353   7359     1  0.0000000  0.6508444  3
   7342   7341   7353   7354     1  0.0000000  0.6508444  3
   7342   7341   7353   7355     1  0.0000000  0.6508444  3
   7343   7341   7337   7344     1  0.0000000  1.2552000  3
   7343   7341   7353   7359     1  0.0000000  0.6508444  3
   7343   7341   7353   7354     1  0.0000000  0.6508444  3
   7343   7341   7353   7355     1  0.0000000  0.6508444  3
   7344   7347   7356   7357     1  0.0000000  0.6508444  3
   7344   7347   7356   7358     1  0.0000000  0.6508444  3
   7345   7344   7347   7356     1  0.0000000  0.6508444  3
   7345   7344   7347   7348     1  0.0000000  0.6508444  3
   7345   7344   7347   7349     1  0.0000000  0.6508444  3
   7346   7344   7347   7356     1  0.0000000  0.6508444  3
   7346   7344   7347   7348     1  0.0000000  0.6508444  3
   7346   7344   7347   7349     1  0.0000000  0.6508444  3
   7348   7347   7356   7365     1  0.0000000  1.0460000  1
   7348   7347   7356   7365     1  0.0000000  0.0000000  3
   7348   7347   7356   7357     1  0.0000000  0.6508444  3
   7348   7347   7356   7358     1  0.0000000  0.6508444  3
   7349   7347   7356   7365     1  0.0000000  1.0460000  1
   7349   7347   7356   7365     1  0.0000000  0.0000000  3
   7349   7347   7356   7357     1  0.0000000  0.6508444  3
   7349   7347   7356   7358     1  0.0000000  0.6508444  3
   7351   7350   7362  13241     1  0.0000000  1.0460000  1
   7351   7350   7362  13241     1  0.0000000  0.0000000  3
   7351   7350   7362   7363     1  0.0000000  0.6508444  3
   7351   7350   7362   7364     1  0.0000000  0.6508444  3
   7352   7350   7362  13241     1  0.0000000  1.0460000  1
   7352   7350   7362  13241     1  0.0000000  0.0000000  3
   7352   7350   7362   7363     1  0.0000000  0.6508444  3
   7352   7350   7362   7364     1  0.0000000  0.6508444  3
   7354   7353   7359  13218     1  0.0000000  1.0460000  1
   7354   7353   7359  13218     1  0.0000000  0.0000000  3
   7354   7353   7359   7360     1  0.0000000  0.6508444  3
   7354   7353   7359   7361     1  0.0000000  0.6508444  3
   7355   7353   7359  13218     1  0.0000000  1.0460000  1
   7355   7353   7359  13218     1  0.0000000  0.0000000  3
   7355   7353   7359   7360     1  0.0000000  0.6508444  3
   7355   7353   7359   7361     1  0.0000000  0.6508444  3
   7359  13218  13214  13217     1  0.0000000  1.6038667  3
   7360   7359  13218  13214     1  0.0000000  1.6038667  3
   7361   7359  13218  13214     1  0.0000000  1.6038667  3
   7362  13241  13237  13240     1  0.0000000  1.6038667  3
   7363   7362  13241  13237     1  0.0000000  1.6038667  3
   7364   7362  13241  13237     1  0.0000000  1.6038667  3
   7366   7367   7370   7374     1  0.0000000  0.6508444  3
   7366   7367   7379   7382     1  0.0000000  1.0460000  1
   7366   7367   7379   7382     1  0.0000000  0.6694400  3
   7366   7380   7386   7387     1  0.0000000  1.0460000  1
   7366   7380   7386   7387     1  0.0000000  0.6694400  3
   7366   7388   7372   7375     1  0.0000000  1.6038667  3
   7367   7366   7380   7384     1  0.0000000  0.6508444  3
   7367   7366   7380   7385     1  0.0000000  0.6508444  3
   7367   7370   7371   7373     1  0.0000000  0.6508444  3
   7367   7370   7378   7381     1  0.0000000  1.0460000  1
   7367   7370   7378   7381     1  0.0000000  0.6694400  3
   7368   7366   7367   7370     1  0.0000000  0.6508444  3
   7368   7366   7367   7379     1  0.0000000  1.0460000  1
   7368   7366   7367   7379     1  0.0000000  0.0000000  3
   7368   7366   7367   7369     1  0.0000000  0.6508444  3
   7368   7366   7380   7386     1  0.0000000  1.0460000  1
   7368   7366   7380   7386     1  0.0000000  0.0000000  3
   7368   7366   7380   7384     1  0.0000000  0.6508444  3
   7368   7366   7380   7385     1  0.0000000  0.6508444  3
   7368   7366   7388   7372     1  0.0000000  1.6038667  3
   7369   7367   7366   7380     1  0.0000000  0.6508444  3
   7369   7367   7366   7388     1  0.0000000  1.0460000  1
   7369   7367   7366   7388     1  0.0000000  0.0000000  3
   7369   7367   7370   7371     1  0.0000000  0.6508444  3
   7369   7367   7370   7378     1  0.0000000  1.0460000  1
   7369   7367   7370   7378     1  0.0000000  0.0000000  3
   7369   7367   7370   7374     1  0.0000000  0.6508444  3
   7369   7367   7379   7382     1  0.0000000  0.6973333  3
   7370   7367   7379   7382     1  0.0000000  1.0460000  1
   7370   7367   7379   7382     1  0.0000000  0.6694400  3
   7370   7371   7372   7375     1  0.0000000  0.6508444  3
   7370   7371   7377   7383     1  0.0000000  1.0460000  1
   7370   7371   7377   7383     1  0.0000000  0.6694400  3
   7371   7370   7378   7381     1  0.0000000  1.0460000  1
   7371   7370   7378   7381     1  0.0000000  0.6694400  3
   7372   7371   7370   7374     1  0.0000000  0.6508444  3
   7372   7371   7377   7383     1  0.0000000  1.0460000  1
   7372   7371   7377   7383     1  0.0000000  0.6694400  3
   7373   7371   7370   7378     1  0.0000000  1.0460000  1
   7373   7371   7370   7378     1  0.0000000  0.0000000  3
   7373   7371   7370   7374     1  0.0000000  0.6508444  3
   7373   7371   7372   7376     1  0.0000000  1.0460000  1
   7373   7371   7372   7376     1  0.0000000  0.0000000  3
   7373   7371   7372   7388     1  0.0000000  1.0460000  1
   7373   7371   7372   7388     1  0.0000000  0.0000000  3
   7373   7371   7372   7375     1  0.0000000  0.6508444  3
   7373   7371   7377   7383     1  0.0000000  0.6973333  3
   7374   7370   7367   7379     1  0.0000000  1.0460000  1
   7374   7370   7367   7379     1  0.0000000  0.0000000  3
   7374   7370   7371   7377     1  0.0000000  1.0460000  1
   7374   7370   7371   7377     1  0.0000000  0.0000000  3
   7374   7370   7378   7381     1  0.0000000  0.6973333  3
   7375   7372   7371   7377     1  0.0000000  0.6508444  3
   7384   7380   7366   7388     1  0.0000000  1.0460000  1
   7384   7380   7366   7388     1  0.0000000  0.0000000  3
   7384   7380   7386   7387     1  0.0000000  0.6973333  3
   7385   7380   7366   7388     1  0.0000000  1.0460000  1
   7385   7380   7366   7388     1  0.0000000  0.0000000  3
   7385   7380   7386   7387     1  0.0000000  0.6973333  3
   7389   7390   7393   7397     1  0.0000000  0.6508444  3
   7389   7390   7402   7405     1  0.0000000  1.0460000  1
   7389   7390   7402   7405     1  0.0000000  0.6694400  3
   7389   7403   7409   7410     1  0.0000000  1.0460000  1
   7389   7403   7409   7410     1  0.0000000  0.6694400  3
   7389   7411   7395   7398     1  0.0000000  1.6038667  3
   7390   7393   7394   7396     1  0.0000000  0.6508444  3
   7390   7393   7401   7404     1  0.0000000  1.0460000  1
   7390   7393   7401   7404     1  0.0000000  0.6694400  3
   7390   7389   7403   7407     1  0.0000000  0.6508444  3
   7390   7389   7403   7408     1  0.0000000  0.6508444  3
   7391   7389   7390   7393     1  0.0000000  0.6508444  3
   7391   7389   7390   7402     1  0.0000000  1.0460000  1
   7391   7389   7390   7402     1  0.0000000  0.0000000  3
   7391   7389   7390   7392     1  0.0000000  0.6508444  3
   7391   7389   7403   7409     1  0.0000000  1.0460000  1
   7391   7389   7403   7409     1  0.0000000  0.0000000  3
   7391   7389   7403   7407     1  0.0000000  0.6508444  3
   7391   7389   7403   7408     1  0.0000000  0.6508444  3
   7391   7389   7411   7395     1  0.0000000  1.6038667  3
   7392   7390   7393   7394     1  0.0000000  0.6508444  3
   7392   7390   7393   7401     1  0.0000000  1.0460000  1
   7392   7390   7393   7401     1  0.0000000  0.0000000  3
   7392   7390   7393   7397     1  0.0000000  0.6508444  3
   7392   7390   7402   7405     1  0.0000000  0.6973333  3
   7392   7390   7389   7403     1  0.0000000  0.6508444  3
   7392   7390   7389   7411     1  0.0000000  1.0460000  1
   7392   7390   7389   7411     1  0.0000000  0.0000000  3
   7393   7394   7395   7398     1  0.0000000  0.6508444  3
   7393   7394   7400   7406     1  0.0000000  1.0460000  1
   7393   7394   7400   7406     1  0.0000000  0.6694400  3
   7393   7390   7402   7405     1  0.0000000  1.0460000  1
   7393   7390   7402   7405     1  0.0000000  0.6694400  3
   7394   7393   7401   7404     1  0.0000000  1.0460000  1
   7394   7393   7401   7404     1  0.0000000  0.6694400  3
   7395   7394   7400   7406     1  0.0000000  1.0460000  1
   7395   7394   7400   7406     1  0.0000000  0.6694400  3
   7395   7394   7393   7397     1  0.0000000  0.6508444  3
   7396   7394   7395   7399     1  0.0000000  1.0460000  1
   7396   7394   7395   7399     1  0.0000000  0.0000000  3
   7396   7394   7395   7411     1  0.0000000  1.0460000  1
   7396   7394   7395   7411     1  0.0000000  0.0000000  3
   7396   7394   7395   7398     1  0.0000000  0.6508444  3
   7396   7394   7400   7406     1  0.0000000  0.6973333  3
   7396   7394   7393   7401     1  0.0000000  1.0460000  1
   7396   7394   7393   7401     1  0.0000000  0.0000000  3
   7396   7394   7393   7397     1  0.0000000  0.6508444  3
   7397   7393   7394   7400     1  0.0000000  1.0460000  1
   7397   7393   7394   7400     1  0.0000000  0.0000000  3
   7397   7393   7401   7404     1  0.0000000  0.6973333  3
   7397   7393   7390   7402     1  0.0000000  1.0460000  1
   7397   7393   7390   7402     1  0.0000000  0.0000000  3
   7398   7395   7394   7400     1  0.0000000  0.6508444  3
   7407   7403   7409   7410     1  0.0000000  0.6973333  3
   7407   7403   7389   7411     1  0.0000000  1.0460000  1
   7407   7403   7389   7411     1  0.0000000  0.0000000  3
   7408   7403   7409   7410     1  0.0000000  0.6973333  3
   7408   7403   7389   7411     1  0.0000000  1.0460000  1
   7408   7403   7389   7411     1  0.0000000  0.0000000  3
   7412   7413   7416   7420     1  0.0000000  0.6508444  3
   7412   7413   7425   7428     1  0.0000000  1.0460000  1
   7412   7413   7425   7428     1  0.0000000  0.6694400  3
   7412   7426   7432   7433     1  0.0000000  1.0460000  1
   7412   7426   7432   7433     1  0.0000000  0.6694400  3
   7412   7434   7418   7421     1  0.0000000  1.6038667  3
   7413   7412   7426   7430     1  0.0000000  0.6508444  3
   7413   7412   7426   7431     1  0.0000000  0.6508444  3
   7413   7416   7417   7419     1  0.0000000  0.6508444  3
   7413   7416   7424   7427     1  0.0000000  1.0460000  1
   7413   7416   7424   7427     1  0.0000000  0.6694400  3
   7414   7412   7413   7416     1  0.0000000  0.6508444  3
   7414   7412   7413   7425     1  0.0000000  1.0460000  1
   7414   7412   7413   7425     1  0.0000000  0.0000000  3
   7414   7412   7413   7415     1  0.0000000  0.6508444  3
   7414   7412   7426   7432     1  0.0000000  1.0460000  1
   7414   7412   7426   7432     1  0.0000000  0.0000000  3
   7414   7412   7426   7430     1  0.0000000  0.6508444  3
   7414   7412   7426   7431     1  0.0000000  0.6508444  3
   7414   7412   7434   7418     1  0.0000000  1.6038667  3
   7415   7413   7412   7426     1  0.0000000  0.6508444  3
   7415   7413   7412   7434     1  0.0000000  1.0460000  1
   7415   7413   7412   7434     1  0.0000000  0.0000000  3
   7415   7413   7416   7417     1  0.0000000  0.6508444  3
   7415   7413   7416   7424     1  0.0000000  1.0460000  1
   7415   7413   7416   7424     1  0.0000000  0.0000000  3
   7415   7413   7416   7420     1  0.0000000  0.6508444  3
   7415   7413   7425   7428     1  0.0000000  0.6973333  3
   7416   7413   7425   7428     1  0.0000000  1.0460000  1
   7416   7413   7425   7428     1  0.0000000  0.6694400  3
   7416   7417   7418   7421     1  0.0000000  0.6508444  3
   7416   7417   7423   7429     1  0.0000000  1.0460000  1
   7416   7417   7423   7429     1  0.0000000  0.6694400  3
   7417   7416   7424   7427     1  0.0000000  1.0460000  1
   7417   7416   7424   7427     1  0.0000000  0.6694400  3
   7418   7417   7416   7420     1  0.0000000  0.6508444  3
   7418   7417   7423   7429     1  0.0000000  1.0460000  1
   7418   7417   7423   7429     1  0.0000000  0.6694400  3
   7419   7417   7416   7424     1  0.0000000  1.0460000  1
   7419   7417   7416   7424     1  0.0000000  0.0000000  3
   7419   7417   7416   7420     1  0.0000000  0.6508444  3
   7419   7417   7418   7422     1  0.0000000  1.0460000  1
   7419   7417   7418   7422     1  0.0000000  0.0000000  3
   7419   7417   7418   7434     1  0.0000000  1.0460000  1
   7419   7417   7418   7434     1  0.0000000  0.0000000  3
   7419   7417   7418   7421     1  0.0000000  0.6508444  3
   7419   7417   7423   7429     1  0.0000000  0.6973333  3
   7420   7416   7413   7425     1  0.0000000  1.0460000  1
   7420   7416   7413   7425     1  0.0000000  0.0000000  3
   7420   7416   7417   7423     1  0.0000000  1.0460000  1
   7420   7416   7417   7423     1  0.0000000  0.0000000  3
   7420   7416   7424   7427     1  0.0000000  0.6973333  3
   7421   7418   7417   7423     1  0.0000000  0.6508444  3
   7430   7426   7412   7434     1  0.0000000  1.0460000  1
   7430   7426   7412   7434     1  0.0000000  0.0000000  3
   7430   7426   7432   7433     1  0.0000000  0.6973333  3
   7431   7426   7412   7434     1  0.0000000  1.0460000  1
   7431   7426   7412   7434     1  0.0000000  0.0000000  3
   7431   7426   7432   7433     1  0.0000000  0.6973333  3
   7435   7436   7439   7443     1  0.0000000  0.6508444  3
   7435   7436   7448   7451     1  0.0000000  1.0460000  1
   7435   7436   7448   7451     1  0.0000000  0.6694400  3
   7435   7449   7455   7456     1  0.0000000  1.0460000  1
   7435   7449   7455   7456     1  0.0000000  0.6694400  3
   7435   7457   7441   7444     1  0.0000000  1.6038667  3
   7436   7439   7440   7442     1  0.0000000  0.6508444  3
   7436   7439   7447   7450     1  0.0000000  1.0460000  1
   7436   7439   7447   7450     1  0.0000000  0.6694400  3
   7436   7435   7449   7453     1  0.0000000  0.6508444  3
   7436   7435   7449   7454     1  0.0000000  0.6508444  3
   7437   7435   7436   7439     1  0.0000000  0.6508444  3
   7437   7435   7436   7448     1  0.0000000  1.0460000  1
   7437   7435   7436   7448     1  0.0000000  0.0000000  3
   7437   7435   7436   7438     1  0.0000000  0.6508444  3
   7437   7435   7449   7455     1  0.0000000  1.0460000  1
   7437   7435   7449   7455     1  0.0000000  0.0000000  3
   7437   7435   7449   7453     1  0.0000000  0.6508444  3
   7437   7435   7449   7454     1  0.0000000  0.6508444  3
   7437   7435   7457   7441     1  0.0000000  1.6038667  3
   7438   7436   7439   7440     1  0.0000000  0.6508444  3
   7438   7436   7439   7447     1  0.0000000  1.0460000  1
   7438   7436   7439   7447     1  0.0000000  0.0000000  3
   7438   7436   7439   7443     1  0.0000000  0.6508444  3
   7438   7436   7448   7451     1  0.0000000  0.6973333  3
   7438   7436   7435   7449     1  0.0000000  0.6508444  3
   7438   7436   7435   7457     1  0.0000000  1.0460000  1
   7438   7436   7435   7457     1  0.0000000  0.0000000  3
   7439   7440   7441   7444     1  0.0000000  0.6508444  3
   7439   7440   7446   7452     1  0.0000000  1.0460000  1
   7439   7440   7446   7452     1  0.0000000  0.6694400  3
   7439   7436   7448   7451     1  0.0000000  1.0460000  1
   7439   7436   7448   7451     1  0.0000000  0.6694400  3
   7440   7439   7447   7450     1  0.0000000  1.0460000  1
   7440   7439   7447   7450     1  0.0000000  0.6694400  3
   7441   7440   7446   7452     1  0.0000000  1.0460000  1
   7441   7440   7446   7452     1  0.0000000  0.6694400  3
   7441   7440   7439   7443     1  0.0000000  0.6508444  3
   7442   7440   7441   7445     1  0.0000000  1.0460000  1
   7442   7440   7441   7445     1  0.0000000  0.0000000  3
   7442   7440   7441   7457     1  0.0000000  1.0460000  1
   7442   7440   7441   7457     1  0.0000000  0.0000000  3
   7442   7440   7441   7444     1  0.0000000  0.6508444  3
   7442   7440   7446   7452     1  0.0000000  0.6973333  3
   7442   7440   7439   7447     1  0.0000000  1.0460000  1
   7442   7440   7439   7447     1  0.0000000  0.0000000  3
   7442   7440   7439   7443     1  0.0000000  0.6508444  3
   7443   7439   7440   7446     1  0.0000000  1.0460000  1
   7443   7439   7440   7446     1  0.0000000  0.0000000  3
   7443   7439   7447   7450     1  0.0000000  0.6973333  3
   7443   7439   7436   7448     1  0.0000000  1.0460000  1
   7443   7439   7436   7448     1  0.0000000  0.0000000  3
   7444   7441   7440   7446     1  0.0000000  0.6508444  3
   7453   7449   7455   7456     1  0.0000000  0.6973333  3
   7453   7449   7435   7457     1  0.0000000  1.0460000  1
   7453   7449   7435   7457     1  0.0000000  0.0000000  3
   7454   7449   7455   7456     1  0.0000000  0.6973333  3
   7454   7449   7435   7457     1  0.0000000  1.0460000  1
   7454   7449   7435   7457     1  0.0000000  0.0000000  3
   7458   7459   7462   7466     1  0.0000000  0.6508444  3
   7458   7459   7471   7474     1  0.0000000  1.0460000  1
   7458   7459   7471   7474     1  0.0000000  0.6694400  3
   7458   7472   7478   7479     1  0.0000000  1.0460000  1
   7458   7472   7478   7479     1  0.0000000  0.6694400  3
   7458   7480   7464   7467     1  0.0000000  1.6038667  3
   7459   7458   7472   7476     1  0.0000000  0.6508444  3
   7459   7458   7472   7477     1  0.0000000  0.6508444  3
   7459   7462   7463   7465     1  0.0000000  0.6508444  3
   7459   7462   7470   7473     1  0.0000000  1.0460000  1
   7459   7462   7470   7473     1  0.0000000  0.6694400  3
   7460   7458   7459   7462     1  0.0000000  0.6508444  3
   7460   7458   7459   7471     1  0.0000000  1.0460000  1
   7460   7458   7459   7471     1  0.0000000  0.0000000  3
   7460   7458   7459   7461     1  0.0000000  0.6508444  3
   7460   7458   7472   7478     1  0.0000000  1.0460000  1
   7460   7458   7472   7478     1  0.0000000  0.0000000  3
   7460   7458   7472   7476     1  0.0000000  0.6508444  3
   7460   7458   7472   7477     1  0.0000000  0.6508444  3
   7460   7458   7480   7464     1  0.0000000  1.6038667  3
   7461   7459   7458   7472     1  0.0000000  0.6508444  3
   7461   7459   7458   7480     1  0.0000000  1.0460000  1
   7461   7459   7458   7480     1  0.0000000  0.0000000  3
   7461   7459   7462   7463     1  0.0000000  0.6508444  3
   7461   7459   7462   7470     1  0.0000000  1.0460000  1
   7461   7459   7462   7470     1  0.0000000  0.0000000  3
   7461   7459   7462   7466     1  0.0000000  0.6508444  3
   7461   7459   7471   7474     1  0.0000000  0.6973333  3
   7462   7459   7471   7474     1  0.0000000  1.0460000  1
   7462   7459   7471   7474     1  0.0000000  0.6694400  3
   7462   7463   7464   7467     1  0.0000000  0.6508444  3
   7462   7463   7469   7475     1  0.0000000  1.0460000  1
   7462   7463   7469   7475     1  0.0000000  0.6694400  3
   7463   7462   7470   7473     1  0.0000000  1.0460000  1
   7463   7462   7470   7473     1  0.0000000  0.6694400  3
   7464   7463   7462   7466     1  0.0000000  0.6508444  3
   7464   7463   7469   7475     1  0.0000000  1.0460000  1
   7464   7463   7469   7475     1  0.0000000  0.6694400  3
   7465   7463   7462   7470     1  0.0000000  1.0460000  1
   7465   7463   7462   7470     1  0.0000000  0.0000000  3
   7465   7463   7462   7466     1  0.0000000  0.6508444  3
   7465   7463   7464   7468     1  0.0000000  1.0460000  1
   7465   7463   7464   7468     1  0.0000000  0.0000000  3
   7465   7463   7464   7480     1  0.0000000  1.0460000  1
   7465   7463   7464   7480     1  0.0000000  0.0000000  3
   7465   7463   7464   7467     1  0.0000000  0.6508444  3
   7465   7463   7469   7475     1  0.0000000  0.6973333  3
   7466   7462   7459   7471     1  0.0000000  1.0460000  1
   7466   7462   7459   7471     1  0.0000000  0.0000000  3
   7466   7462   7463   7469     1  0.0000000  1.0460000  1
   7466   7462   7463   7469     1  0.0000000  0.0000000  3
   7466   7462   7470   7473     1  0.0000000  0.6973333  3
   7467   7464   7463   7469     1  0.0000000  0.6508444  3
   7476   7472   7458   7480     1  0.0000000  1.0460000  1
   7476   7472   7458   7480     1  0.0000000  0.0000000  3
   7476   7472   7478   7479     1  0.0000000  0.6973333  3
   7477   7472   7458   7480     1  0.0000000  1.0460000  1
   7477   7472   7458   7480     1  0.0000000  0.0000000  3
   7477   7472   7478   7479     1  0.0000000  0.6973333  3
   7481   7482   7485   7489     1  0.0000000  0.6508444  3
   7481   7482   7494   7497     1  0.0000000  1.0460000  1
   7481   7482   7494   7497     1  0.0000000  0.6694400  3
   7481   7495   7501   7502     1  0.0000000  1.0460000  1
   7481   7495   7501   7502     1  0.0000000  0.6694400  3
   7481   7503   7487   7490     1  0.0000000  1.6038667  3
   7482   7485   7486   7488     1  0.0000000  0.6508444  3
   7482   7485   7493   7496     1  0.0000000  1.0460000  1
   7482   7485   7493   7496     1  0.0000000  0.6694400  3
   7482   7481   7495   7499     1  0.0000000  0.6508444  3
   7482   7481   7495   7500     1  0.0000000  0.6508444  3
   7483   7481   7482   7485     1  0.0000000  0.6508444  3
   7483   7481   7482   7494     1  0.0000000  1.0460000  1
   7483   7481   7482   7494     1  0.0000000  0.0000000  3
   7483   7481   7482   7484     1  0.0000000  0.6508444  3
   7483   7481   7495   7501     1  0.0000000  1.0460000  1
   7483   7481   7495   7501     1  0.0000000  0.0000000  3
   7483   7481   7495   7499     1  0.0000000  0.6508444  3
   7483   7481   7495   7500     1  0.0000000  0.6508444  3
   7483   7481   7503   7487     1  0.0000000  1.6038667  3
   7484   7482   7485   7486     1  0.0000000  0.6508444  3
   7484   7482   7485   7493     1  0.0000000  1.0460000  1
   7484   7482   7485   7493     1  0.0000000  0.0000000  3
   7484   7482   7485   7489     1  0.0000000  0.6508444  3
   7484   7482   7494   7497     1  0.0000000  0.6973333  3
   7484   7482   7481   7495     1  0.0000000  0.6508444  3
   7484   7482   7481   7503     1  0.0000000  1.0460000  1
   7484   7482   7481   7503     1  0.0000000  0.0000000  3
   7485   7486   7487   7490     1  0.0000000  0.6508444  3
   7485   7486   7492   7498     1  0.0000000  1.0460000  1
   7485   7486   7492   7498     1  0.0000000  0.6694400  3
   7485   7482   7494   7497     1  0.0000000  1.0460000  1
   7485   7482   7494   7497     1  0.0000000  0.6694400  3
   7486   7485   7493   7496     1  0.0000000  1.0460000  1
   7486   7485   7493   7496     1  0.0000000  0.6694400  3
   7487   7486   7492   7498     1  0.0000000  1.0460000  1
   7487   7486   7492   7498     1  0.0000000  0.6694400  3
   7487   7486   7485   7489     1  0.0000000  0.6508444  3
   7488   7486   7487   7491     1  0.0000000  1.0460000  1
   7488   7486   7487   7491     1  0.0000000  0.0000000  3
   7488   7486   7487   7503     1  0.0000000  1.0460000  1
   7488   7486   7487   7503     1  0.0000000  0.0000000  3
   7488   7486   7487   7490     1  0.0000000  0.6508444  3
   7488   7486   7492   7498     1  0.0000000  0.6973333  3
   7488   7486   7485   7493     1  0.0000000  1.0460000  1
   7488   7486   7485   7493     1  0.0000000  0.0000000  3
   7488   7486   7485   7489     1  0.0000000  0.6508444  3
   7489   7485   7486   7492     1  0.0000000  1.0460000  1
   7489   7485   7486   7492     1  0.0000000  0.0000000  3
   7489   7485   7493   7496     1  0.0000000  0.6973333  3
   7489   7485   7482   7494     1  0.0000000  1.0460000  1
   7489   7485   7482   7494     1  0.0000000  0.0000000  3
   7490   7487   7486   7492     1  0.0000000  0.6508444  3
   7499   7495   7501   7502     1  0.0000000  0.6973333  3
   7499   7495   7481   7503     1  0.0000000  1.0460000  1
   7499   7495   7481   7503     1  0.0000000  0.0000000  3
   7500   7495   7501   7502     1  0.0000000  0.6973333  3
   7500   7495   7481   7503     1  0.0000000  1.0460000  1
   7500   7495   7481   7503     1  0.0000000  0.0000000  3
   7504   7505   7508   7512     1  0.0000000  0.6508444  3
   7504   7505   7517   7520     1  0.0000000  1.0460000  1
   7504   7505   7517   7520     1  0.0000000  0.6694400  3
   7504   7518   7524   7525     1  0.0000000  1.0460000  1
   7504   7518   7524   7525     1  0.0000000  0.6694400  3
   7504   7526   7510   7513     1  0.0000000  1.6038667  3
   7505   7504   7518   7522     1  0.0000000  0.6508444  3
   7505   7504   7518   7523     1  0.0000000  0.6508444  3
   7505   7508   7509   7511     1  0.0000000  0.6508444  3
   7505   7508   7516   7519     1  0.0000000  1.0460000  1
   7505   7508   7516   7519     1  0.0000000  0.6694400  3
   7506   7504   7505   7508     1  0.0000000  0.6508444  3
   7506   7504   7505   7517     1  0.0000000  1.0460000  1
   7506   7504   7505   7517     1  0.0000000  0.0000000  3
   7506   7504   7505   7507     1  0.0000000  0.6508444  3
   7506   7504   7518   7524     1  0.0000000  1.0460000  1
   7506   7504   7518   7524     1  0.0000000  0.0000000  3
   7506   7504   7518   7522     1  0.0000000  0.6508444  3
   7506   7504   7518   7523     1  0.0000000  0.6508444  3
   7506   7504   7526   7510     1  0.0000000  1.6038667  3
   7507   7505   7504   7518     1  0.0000000  0.6508444  3
   7507   7505   7504   7526     1  0.0000000  1.0460000  1
   7507   7505   7504   7526     1  0.0000000  0.0000000  3
   7507   7505   7508   7509     1  0.0000000  0.6508444  3
   7507   7505   7508   7516     1  0.0000000  1.0460000  1
   7507   7505   7508   7516     1  0.0000000  0.0000000  3
   7507   7505   7508   7512     1  0.0000000  0.6508444  3
   7507   7505   7517   7520     1  0.0000000  0.6973333  3
   7508   7505   7517   7520     1  0.0000000  1.0460000  1
   7508   7505   7517   7520     1  0.0000000  0.6694400  3
   7508   7509   7510   7513     1  0.0000000  0.6508444  3
   7508   7509   7515   7521     1  0.0000000  1.0460000  1
   7508   7509   7515   7521     1  0.0000000  0.6694400  3
   7509   7508   7516   7519     1  0.0000000  1.0460000  1
   7509   7508   7516   7519     1  0.0000000  0.6694400  3
   7510   7509   7508   7512     1  0.0000000  0.6508444  3
   7510   7509   7515   7521     1  0.0000000  1.0460000  1
   7510   7509   7515   7521     1  0.0000000  0.6694400  3
   7511   7509   7508   7516     1  0.0000000  1.0460000  1
   7511   7509   7508   7516     1  0.0000000  0.0000000  3
   7511   7509   7508   7512     1  0.0000000  0.6508444  3
   7511   7509   7510   7514     1  0.0000000  1.0460000  1
   7511   7509   7510   7514     1  0.0000000  0.0000000  3
   7511   7509   7510   7526     1  0.0000000  1.0460000  1
   7511   7509   7510   7526     1  0.0000000  0.0000000  3
   7511   7509   7510   7513     1  0.0000000  0.6508444  3
   7511   7509   7515   7521     1  0.0000000  0.6973333  3
   7512   7508   7505   7517     1  0.0000000  1.0460000  1
   7512   7508   7505   7517     1  0.0000000  0.0000000  3
   7512   7508   7509   7515     1  0.0000000  1.0460000  1
   7512   7508   7509   7515     1  0.0000000  0.0000000  3
   7512   7508   7516   7519     1  0.0000000  0.6973333  3
   7513   7510   7509   7515     1  0.0000000  0.6508444  3
   7522   7518   7504   7526     1  0.0000000  1.0460000  1
   7522   7518   7504   7526     1  0.0000000  0.0000000  3
   7522   7518   7524   7525     1  0.0000000  0.6973333  3
   7523   7518   7504   7526     1  0.0000000  1.0460000  1
   7523   7518   7504   7526     1  0.0000000  0.0000000  3
   7523   7518   7524   7525     1  0.0000000  0.6973333  3
   7527   7528   7531   7535     1  0.0000000  0.6508444  3
   7527   7528   7540   7543     1  0.0000000  1.0460000  1
   7527   7528   7540   7543     1  0.0000000  0.6694400  3
   7527   7541   7547   7548     1  0.0000000  1.0460000  1
   7527   7541   7547   7548     1  0.0000000  0.6694400  3
   7527   7549   7533   7536     1  0.0000000  1.6038667  3
   7528   7531   7532   7534     1  0.0000000  0.6508444  3
   7528   7531   7539   7542     1  0.0000000  1.0460000  1
   7528   7531   7539   7542     1  0.0000000  0.6694400  3
   7528   7527   7541   7545     1  0.0000000  0.6508444  3
   7528   7527   7541   7546     1  0.0000000  0.6508444  3
   7529   7527   7528   7531     1  0.0000000  0.6508444  3
   7529   7527   7528   7540     1  0.0000000  1.0460000  1
   7529   7527   7528   7540     1  0.0000000  0.0000000  3
   7529   7527   7528   7530     1  0.0000000  0.6508444  3
   7529   7527   7541   7547     1  0.0000000  1.0460000  1
   7529   7527   7541   7547     1  0.0000000  0.0000000  3
   7529   7527   7541   7545     1  0.0000000  0.6508444  3
   7529   7527   7541   7546     1  0.0000000  0.6508444  3
   7529   7527   7549   7533     1  0.0000000  1.6038667  3
   7530   7528   7531   7532     1  0.0000000  0.6508444  3
   7530   7528   7531   7539     1  0.0000000  1.0460000  1
   7530   7528   7531   7539     1  0.0000000  0.0000000  3
   7530   7528   7531   7535     1  0.0000000  0.6508444  3
   7530   7528   7540   7543     1  0.0000000  0.6973333  3
   7530   7528   7527   7541     1  0.0000000  0.6508444  3
   7530   7528   7527   7549     1  0.0000000  1.0460000  1
   7530   7528   7527   7549     1  0.0000000  0.0000000  3
   7531   7532   7533   7536     1  0.0000000  0.6508444  3
   7531   7532   7538   7544     1  0.0000000  1.0460000  1
   7531   7532   7538   7544     1  0.0000000  0.6694400  3
   7531   7528   7540   7543     1  0.0000000  1.0460000  1
   7531   7528   7540   7543     1  0.0000000  0.6694400  3
   7532   7531   7539   7542     1  0.0000000  1.0460000  1
   7532   7531   7539   7542     1  0.0000000  0.6694400  3
   7533   7532   7538   7544     1  0.0000000  1.0460000  1
   7533   7532   7538   7544     1  0.0000000  0.6694400  3
   7533   7532   7531   7535     1  0.0000000  0.6508444  3
   7534   7532   7533   7537     1  0.0000000  1.0460000  1
   7534   7532   7533   7537     1  0.0000000  0.0000000  3
   7534   7532   7533   7549     1  0.0000000  1.0460000  1
   7534   7532   7533   7549     1  0.0000000  0.0000000  3
   7534   7532   7533   7536     1  0.0000000  0.6508444  3
   7534   7532   7538   7544     1  0.0000000  0.6973333  3
   7534   7532   7531   7539     1  0.0000000  1.0460000  1
   7534   7532   7531   7539     1  0.0000000  0.0000000  3
   7534   7532   7531   7535     1  0.0000000  0.6508444  3
   7535   7531   7532   7538     1  0.0000000  1.0460000  1
   7535   7531   7532   7538     1  0.0000000  0.0000000  3
   7535   7531   7539   7542     1  0.0000000  0.6973333  3
   7535   7531   7528   7540     1  0.0000000  1.0460000  1
   7535   7531   7528   7540     1  0.0000000  0.0000000  3
   7536   7533   7532   7538     1  0.0000000  0.6508444  3
   7545   7541   7547   7548     1  0.0000000  0.6973333  3
   7545   7541   7527   7549     1  0.0000000  1.0460000  1
   7545   7541   7527   7549     1  0.0000000  0.0000000  3
   7546   7541   7547   7548     1  0.0000000  0.6973333  3
   7546   7541   7527   7549     1  0.0000000  1.0460000  1
   7546   7541   7527   7549     1  0.0000000  0.0000000  3
   7550   7551   7554   7558     1  0.0000000  0.6508444  3
   7550   7551   7563   7566     1  0.0000000  1.0460000  1
   7550   7551   7563   7566     1  0.0000000  0.6694400  3
   7550   7564   7570   7571     1  0.0000000  1.0460000  1
   7550   7564   7570   7571     1  0.0000000  0.6694400  3
   7550   7572   7556   7559     1  0.0000000  1.6038667  3
   7551   7550   7564   7568     1  0.0000000  0.6508444  3
   7551   7550   7564   7569     1  0.0000000  0.6508444  3
   7551   7554   7555   7557     1  0.0000000  0.6508444  3
   7551   7554   7562   7565     1  0.0000000  1.0460000  1
   7551   7554   7562   7565     1  0.0000000  0.6694400  3
   7552   7550   7551   7554     1  0.0000000  0.6508444  3
   7552   7550   7551   7563     1  0.0000000  1.0460000  1
   7552   7550   7551   7563     1  0.0000000  0.0000000  3
   7552   7550   7551   7553     1  0.0000000  0.6508444  3
   7552   7550   7564   7570     1  0.0000000  1.0460000  1
   7552   7550   7564   7570     1  0.0000000  0.0000000  3
   7552   7550   7564   7568     1  0.0000000  0.6508444  3
   7552   7550   7564   7569     1  0.0000000  0.6508444  3
   7552   7550   7572   7556     1  0.0000000  1.6038667  3
   7553   7551   7550   7564     1  0.0000000  0.6508444  3
   7553   7551   7550   7572     1  0.0000000  1.0460000  1
   7553   7551   7550   7572     1  0.0000000  0.0000000  3
   7553   7551   7554   7555     1  0.0000000  0.6508444  3
   7553   7551   7554   7562     1  0.0000000  1.0460000  1
   7553   7551   7554   7562     1  0.0000000  0.0000000  3
   7553   7551   7554   7558     1  0.0000000  0.6508444  3
   7553   7551   7563   7566     1  0.0000000  0.6973333  3
   7554   7551   7563   7566     1  0.0000000  1.0460000  1
   7554   7551   7563   7566     1  0.0000000  0.6694400  3
   7554   7555   7556   7559     1  0.0000000  0.6508444  3
   7554   7555   7561   7567     1  0.0000000  1.0460000  1
   7554   7555   7561   7567     1  0.0000000  0.6694400  3
   7555   7554   7562   7565     1  0.0000000  1.0460000  1
   7555   7554   7562   7565     1  0.0000000  0.6694400  3
   7556   7555   7554   7558     1  0.0000000  0.6508444  3
   7556   7555   7561   7567     1  0.0000000  1.0460000  1
   7556   7555   7561   7567     1  0.0000000  0.6694400  3
   7557   7555   7554   7562     1  0.0000000  1.0460000  1
   7557   7555   7554   7562     1  0.0000000  0.0000000  3
   7557   7555   7554   7558     1  0.0000000  0.6508444  3
   7557   7555   7556   7560     1  0.0000000  1.0460000  1
   7557   7555   7556   7560     1  0.0000000  0.0000000  3
   7557   7555   7556   7572     1  0.0000000  1.0460000  1
   7557   7555   7556   7572     1  0.0000000  0.0000000  3
   7557   7555   7556   7559     1  0.0000000  0.6508444  3
   7557   7555   7561   7567     1  0.0000000  0.6973333  3
   7558   7554   7551   7563     1  0.0000000  1.0460000  1
   7558   7554   7551   7563     1  0.0000000  0.0000000  3
   7558   7554   7555   7561     1  0.0000000  1.0460000  1
   7558   7554   7555   7561     1  0.0000000  0.0000000  3
   7558   7554   7562   7565     1  0.0000000  0.6973333  3
   7559   7556   7555   7561     1  0.0000000  0.6508444  3
   7568   7564   7550   7572     1  0.0000000  1.0460000  1
   7568   7564   7550   7572     1  0.0000000  0.0000000  3
   7568   7564   7570   7571     1  0.0000000  0.6973333  3
   7569   7564   7550   7572     1  0.0000000  1.0460000  1
   7569   7564   7550   7572     1  0.0000000  0.0000000  3
   7569   7564   7570   7571     1  0.0000000  0.6973333  3
   7573   7574   7577   7581     1  0.0000000  0.6508444  3
   7573   7574   7586   7589     1  0.0000000  1.0460000  1
   7573   7574   7586   7589     1  0.0000000  0.6694400  3
   7573   7587   7593   7594     1  0.0000000  1.0460000  1
   7573   7587   7593   7594     1  0.0000000  0.6694400  3
   7573   7595   7579   7582     1  0.0000000  1.6038667  3
   7574   7577   7578   7580     1  0.0000000  0.6508444  3
   7574   7577   7585   7588     1  0.0000000  1.0460000  1
   7574   7577   7585   7588     1  0.0000000  0.6694400  3
   7574   7573   7587   7591     1  0.0000000  0.6508444  3
   7574   7573   7587   7592     1  0.0000000  0.6508444  3
   7575   7573   7574   7577     1  0.0000000  0.6508444  3
   7575   7573   7574   7586     1  0.0000000  1.0460000  1
   7575   7573   7574   7586     1  0.0000000  0.0000000  3
   7575   7573   7574   7576     1  0.0000000  0.6508444  3
   7575   7573   7587   7593     1  0.0000000  1.0460000  1
   7575   7573   7587   7593     1  0.0000000  0.0000000  3
   7575   7573   7587   7591     1  0.0000000  0.6508444  3
   7575   7573   7587   7592     1  0.0000000  0.6508444  3
   7575   7573   7595   7579     1  0.0000000  1.6038667  3
   7576   7574   7577   7578     1  0.0000000  0.6508444  3
   7576   7574   7577   7585     1  0.0000000  1.0460000  1
   7576   7574   7577   7585     1  0.0000000  0.0000000  3
   7576   7574   7577   7581     1  0.0000000  0.6508444  3
   7576   7574   7586   7589     1  0.0000000  0.6973333  3
   7576   7574   7573   7587     1  0.0000000  0.6508444  3
   7576   7574   7573   7595     1  0.0000000  1.0460000  1
   7576   7574   7573   7595     1  0.0000000  0.0000000  3
   7577   7578   7579   7582     1  0.0000000  0.6508444  3
   7577   7578   7584   7590     1  0.0000000  1.0460000  1
   7577   7578   7584   7590     1  0.0000000  0.6694400  3
   7577   7574   7586   7589     1  0.0000000  1.0460000  1
   7577   7574   7586   7589     1  0.0000000  0.6694400  3
   7578   7577   7585   7588     1  0.0000000  1.0460000  1
   7578   7577   7585   7588     1  0.0000000  0.6694400  3
   7579   7578   7584   7590     1  0.0000000  1.0460000  1
   7579   7578   7584   7590     1  0.0000000  0.6694400  3
   7579   7578   7577   7581     1  0.0000000  0.6508444  3
   7580   7578   7579   7583     1  0.0000000  1.0460000  1
   7580   7578   7579   7583     1  0.0000000  0.0000000  3
   7580   7578   7579   7595     1  0.0000000  1.0460000  1
   7580   7578   7579   7595     1  0.0000000  0.0000000  3
   7580   7578   7579   7582     1  0.0000000  0.6508444  3
   7580   7578   7584   7590     1  0.0000000  0.6973333  3
   7580   7578   7577   7585     1  0.0000000  1.0460000  1
   7580   7578   7577   7585     1  0.0000000  0.0000000  3
   7580   7578   7577   7581     1  0.0000000  0.6508444  3
   7581   7577   7578   7584     1  0.0000000  1.0460000  1
   7581   7577   7578   7584     1  0.0000000  0.0000000  3
   7581   7577   7585   7588     1  0.0000000  0.6973333  3
   7581   7577   7574   7586     1  0.0000000  1.0460000  1
   7581   7577   7574   7586     1  0.0000000  0.0000000  3
   7582   7579   7578   7584     1  0.0000000  0.6508444  3
   7591   7587   7593   7594     1  0.0000000  0.6973333  3
   7591   7587   7573   7595     1  0.0000000  1.0460000  1
   7591   7587   7573   7595     1  0.0000000  0.0000000  3
   7592   7587   7593   7594     1  0.0000000  0.6973333  3
   7592   7587   7573   7595     1  0.0000000  1.0460000  1
   7592   7587   7573   7595     1  0.0000000  0.0000000  3
   7596   7597   7600   7604     1  0.0000000  0.6508444  3
   7596   7597   7609   7612     1  0.0000000  1.0460000  1
   7596   7597   7609   7612     1  0.0000000  0.6694400  3
   7596   7610   7616   7617     1  0.0000000  1.0460000  1
   7596   7610   7616   7617     1  0.0000000  0.6694400  3
   7596   7618   7602   7605     1  0.0000000  1.6038667  3
   7597   7596   7610   7614     1  0.0000000  0.6508444  3
   7597   7596   7610   7615     1  0.0000000  0.6508444  3
   7597   7600   7601   7603     1  0.0000000  0.6508444  3
   7597   7600   7608   7611     1  0.0000000  1.0460000  1
   7597   7600   7608   7611     1  0.0000000  0.6694400  3
   7598   7596   7597   7600     1  0.0000000  0.6508444  3
   7598   7596   7597   7609     1  0.0000000  1.0460000  1
   7598   7596   7597   7609     1  0.0000000  0.0000000  3
   7598   7596   7597   7599     1  0.0000000  0.6508444  3
   7598   7596   7610   7616     1  0.0000000  1.0460000  1
   7598   7596   7610   7616     1  0.0000000  0.0000000  3
   7598   7596   7610   7614     1  0.0000000  0.6508444  3
   7598   7596   7610   7615     1  0.0000000  0.6508444  3
   7598   7596   7618   7602     1  0.0000000  1.6038667  3
   7599   7597   7596   7610     1  0.0000000  0.6508444  3
   7599   7597   7596   7618     1  0.0000000  1.0460000  1
   7599   7597   7596   7618     1  0.0000000  0.0000000  3
   7599   7597   7600   7601     1  0.0000000  0.6508444  3
   7599   7597   7600   7608     1  0.0000000  1.0460000  1
   7599   7597   7600   7608     1  0.0000000  0.0000000  3
   7599   7597   7600   7604     1  0.0000000  0.6508444  3
   7599   7597   7609   7612     1  0.0000000  0.6973333  3
   7600   7597   7609   7612     1  0.0000000  1.0460000  1
   7600   7597   7609   7612     1  0.0000000  0.6694400  3
   7600   7601   7602   7605     1  0.0000000  0.6508444  3
   7600   7601   7607   7613     1  0.0000000  1.0460000  1
   7600   7601   7607   7613     1  0.0000000  0.6694400  3
   7601   7600   7608   7611     1  0.0000000  1.0460000  1
   7601   7600   7608   7611     1  0.0000000  0.6694400  3
   7602   7601   7600   7604     1  0.0000000  0.6508444  3
   7602   7601   7607   7613     1  0.0000000  1.0460000  1
   7602   7601   7607   7613     1  0.0000000  0.6694400  3
   7603   7601   7600   7608     1  0.0000000  1.0460000  1
   7603   7601   7600   7608     1  0.0000000  0.0000000  3
   7603   7601   7600   7604     1  0.0000000  0.6508444  3
   7603   7601   7602   7606     1  0.0000000  1.0460000  1
   7603   7601   7602   7606     1  0.0000000  0.0000000  3
   7603   7601   7602   7618     1  0.0000000  1.0460000  1
   7603   7601   7602   7618     1  0.0000000  0.0000000  3
   7603   7601   7602   7605     1  0.0000000  0.6508444  3
   7603   7601   7607   7613     1  0.0000000  0.6973333  3
   7604   7600   7597   7609     1  0.0000000  1.0460000  1
   7604   7600   7597   7609     1  0.0000000  0.0000000  3
   7604   7600   7601   7607     1  0.0000000  1.0460000  1
   7604   7600   7601   7607     1  0.0000000  0.0000000  3
   7604   7600   7608   7611     1  0.0000000  0.6973333  3
   7605   7602   7601   7607     1  0.0000000  0.6508444  3
   7614   7610   7596   7618     1  0.0000000  1.0460000  1
   7614   7610   7596   7618     1  0.0000000  0.0000000  3
   7614   7610   7616   7617     1  0.0000000  0.6973333  3
   7615   7610   7596   7618     1  0.0000000  1.0460000  1
   7615   7610   7596   7618     1  0.0000000  0.0000000  3
   7615   7610   7616   7617     1  0.0000000  0.6973333  3
   7619   7620   7623   7627     1  0.0000000  0.6508444  3
   7619   7620   7632   7635     1  0.0000000  1.0460000  1
   7619   7620   7632   7635     1  0.0000000  0.6694400  3
   7619   7633   7639   7640     1  0.0000000  1.0460000  1
   7619   7633   7639   7640     1  0.0000000  0.6694400  3
   7619   7641   7625   7628     1  0.0000000  1.6038667  3
   7620   7623   7624   7626     1  0.0000000  0.6508444  3
   7620   7623   7631   7634     1  0.0000000  1.0460000  1
   7620   7623   7631   7634     1  0.0000000  0.6694400  3
   7620   7619   7633   7637     1  0.0000000  0.6508444  3
   7620   7619   7633   7638     1  0.0000000  0.6508444  3
   7621   7619   7620   7623     1  0.0000000  0.6508444  3
   7621   7619   7620   7632     1  0.0000000  1.0460000  1
   7621   7619   7620   7632     1  0.0000000  0.0000000  3
   7621   7619   7620   7622     1  0.0000000  0.6508444  3
   7621   7619   7633   7639     1  0.0000000  1.0460000  1
   7621   7619   7633   7639     1  0.0000000  0.0000000  3
   7621   7619   7633   7637     1  0.0000000  0.6508444  3
   7621   7619   7633   7638     1  0.0000000  0.6508444  3
   7621   7619   7641   7625     1  0.0000000  1.6038667  3
   7622   7620   7623   7624     1  0.0000000  0.6508444  3
   7622   7620   7623   7631     1  0.0000000  1.0460000  1
   7622   7620   7623   7631     1  0.0000000  0.0000000  3
   7622   7620   7623   7627     1  0.0000000  0.6508444  3
   7622   7620   7632   7635     1  0.0000000  0.6973333  3
   7622   7620   7619   7633     1  0.0000000  0.6508444  3
   7622   7620   7619   7641     1  0.0000000  1.0460000  1
   7622   7620   7619   7641     1  0.0000000  0.0000000  3
   7623   7624   7625   7628     1  0.0000000  0.6508444  3
   7623   7624   7630   7636     1  0.0000000  1.0460000  1
   7623   7624   7630   7636     1  0.0000000  0.6694400  3
   7623   7620   7632   7635     1  0.0000000  1.0460000  1
   7623   7620   7632   7635     1  0.0000000  0.6694400  3
   7624   7623   7631   7634     1  0.0000000  1.0460000  1
   7624   7623   7631   7634     1  0.0000000  0.6694400  3
   7625   7624   7630   7636     1  0.0000000  1.0460000  1
   7625   7624   7630   7636     1  0.0000000  0.6694400  3
   7625   7624   7623   7627     1  0.0000000  0.6508444  3
   7626   7624   7625   7629     1  0.0000000  1.0460000  1
   7626   7624   7625   7629     1  0.0000000  0.0000000  3
   7626   7624   7625   7641     1  0.0000000  1.0460000  1
   7626   7624   7625   7641     1  0.0000000  0.0000000  3
   7626   7624   7625   7628     1  0.0000000  0.6508444  3
   7626   7624   7630   7636     1  0.0000000  0.6973333  3
   7626   7624   7623   7631     1  0.0000000  1.0460000  1
   7626   7624   7623   7631     1  0.0000000  0.0000000  3
   7626   7624   7623   7627     1  0.0000000  0.6508444  3
   7627   7623   7624   7630     1  0.0000000  1.0460000  1
   7627   7623   7624   7630     1  0.0000000  0.0000000  3
   7627   7623   7631   7634     1  0.0000000  0.6973333  3
   7627   7623   7620   7632     1  0.0000000  1.0460000  1
   7627   7623   7620   7632     1  0.0000000  0.0000000  3
   7628   7625   7624   7630     1  0.0000000  0.6508444  3
   7637   7633   7639   7640     1  0.0000000  0.6973333  3
   7637   7633   7619   7641     1  0.0000000  1.0460000  1
   7637   7633   7619   7641     1  0.0000000  0.0000000  3
   7638   7633   7639   7640     1  0.0000000  0.6973333  3
   7638   7633   7619   7641     1  0.0000000  1.0460000  1
   7638   7633   7619   7641     1  0.0000000  0.0000000  3
   7642   7643   7646   7650     1  0.0000000  0.6508444  3
   7642   7643   7655   7658     1  0.0000000  1.0460000  1
   7642   7643   7655   7658     1  0.0000000  0.6694400  3
   7642   7656   7662   7663     1  0.0000000  1.0460000  1
   7642   7656   7662   7663     1  0.0000000  0.6694400  3
   7642   7664   7648   7651     1  0.0000000  1.6038667  3
   7643   7642   7656   7660     1  0.0000000  0.6508444  3
   7643   7642   7656   7661     1  0.0000000  0.6508444  3
   7643   7646   7647   7649     1  0.0000000  0.6508444  3
   7643   7646   7654   7657     1  0.0000000  1.0460000  1
   7643   7646   7654   7657     1  0.0000000  0.6694400  3
   7644   7642   7643   7646     1  0.0000000  0.6508444  3
   7644   7642   7643   7655     1  0.0000000  1.0460000  1
   7644   7642   7643   7655     1  0.0000000  0.0000000  3
   7644   7642   7643   7645     1  0.0000000  0.6508444  3
   7644   7642   7656   7662     1  0.0000000  1.0460000  1
   7644   7642   7656   7662     1  0.0000000  0.0000000  3
   7644   7642   7656   7660     1  0.0000000  0.6508444  3
   7644   7642   7656   7661     1  0.0000000  0.6508444  3
   7644   7642   7664   7648     1  0.0000000  1.6038667  3
   7645   7643   7642   7656     1  0.0000000  0.6508444  3
   7645   7643   7642   7664     1  0.0000000  1.0460000  1
   7645   7643   7642   7664     1  0.0000000  0.0000000  3
   7645   7643   7646   7647     1  0.0000000  0.6508444  3
   7645   7643   7646   7654     1  0.0000000  1.0460000  1
   7645   7643   7646   7654     1  0.0000000  0.0000000  3
   7645   7643   7646   7650     1  0.0000000  0.6508444  3
   7645   7643   7655   7658     1  0.0000000  0.6973333  3
   7646   7643   7655   7658     1  0.0000000  1.0460000  1
   7646   7643   7655   7658     1  0.0000000  0.6694400  3
   7646   7647   7648   7651     1  0.0000000  0.6508444  3
   7646   7647   7653   7659     1  0.0000000  1.0460000  1
   7646   7647   7653   7659     1  0.0000000  0.6694400  3
   7647   7646   7654   7657     1  0.0000000  1.0460000  1
   7647   7646   7654   7657     1  0.0000000  0.6694400  3
   7648   7647   7646   7650     1  0.0000000  0.6508444  3
   7648   7647   7653   7659     1  0.0000000  1.0460000  1
   7648   7647   7653   7659     1  0.0000000  0.6694400  3
   7649   7647   7646   7654     1  0.0000000  1.0460000  1
   7649   7647   7646   7654     1  0.0000000  0.0000000  3
   7649   7647   7646   7650     1  0.0000000  0.6508444  3
   7649   7647   7648   7652     1  0.0000000  1.0460000  1
   7649   7647   7648   7652     1  0.0000000  0.0000000  3
   7649   7647   7648   7664     1  0.0000000  1.0460000  1
   7649   7647   7648   7664     1  0.0000000  0.0000000  3
   7649   7647   7648   7651     1  0.0000000  0.6508444  3
   7649   7647   7653   7659     1  0.0000000  0.6973333  3
   7650   7646   7643   7655     1  0.0000000  1.0460000  1
   7650   7646   7643   7655     1  0.0000000  0.0000000  3
   7650   7646   7647   7653     1  0.0000000  1.0460000  1
   7650   7646   7647   7653     1  0.0000000  0.0000000  3
   7650   7646   7654   7657     1  0.0000000  0.6973333  3
   7651   7648   7647   7653     1  0.0000000  0.6508444  3
   7660   7656   7642   7664     1  0.0000000  1.0460000  1
   7660   7656   7642   7664     1  0.0000000  0.0000000  3
   7660   7656   7662   7663     1  0.0000000  0.6973333  3
   7661   7656   7642   7664     1  0.0000000  1.0460000  1
   7661   7656   7642   7664     1  0.0000000  0.0000000  3
   7661   7656   7662   7663     1  0.0000000  0.6973333  3
   7665   7666   7669   7673     1  0.0000000  0.6508444  3
   7665   7666   7678   7681     1  0.0000000  1.0460000  1
   7665   7666   7678   7681     1  0.0000000  0.6694400  3
   7665   7679   7685   7686     1  0.0000000  1.0460000  1
   7665   7679   7685   7686     1  0.0000000  0.6694400  3
   7665   7687   7671   7674     1  0.0000000  1.6038667  3
   7666   7669   7670   7672     1  0.0000000  0.6508444  3
   7666   7669   7677   7680     1  0.0000000  1.0460000  1
   7666   7669   7677   7680     1  0.0000000  0.6694400  3
   7666   7665   7679   7683     1  0.0000000  0.6508444  3
   7666   7665   7679   7684     1  0.0000000  0.6508444  3
   7667   7665   7666   7669     1  0.0000000  0.6508444  3
   7667   7665   7666   7678     1  0.0000000  1.0460000  1
   7667   7665   7666   7678     1  0.0000000  0.0000000  3
   7667   7665   7666   7668     1  0.0000000  0.6508444  3
   7667   7665   7679   7685     1  0.0000000  1.0460000  1
   7667   7665   7679   7685     1  0.0000000  0.0000000  3
   7667   7665   7679   7683     1  0.0000000  0.6508444  3
   7667   7665   7679   7684     1  0.0000000  0.6508444  3
   7667   7665   7687   7671     1  0.0000000  1.6038667  3
   7668   7666   7669   7670     1  0.0000000  0.6508444  3
   7668   7666   7669   7677     1  0.0000000  1.0460000  1
   7668   7666   7669   7677     1  0.0000000  0.0000000  3
   7668   7666   7669   7673     1  0.0000000  0.6508444  3
   7668   7666   7678   7681     1  0.0000000  0.6973333  3
   7668   7666   7665   7679     1  0.0000000  0.6508444  3
   7668   7666   7665   7687     1  0.0000000  1.0460000  1
   7668   7666   7665   7687     1  0.0000000  0.0000000  3
   7669   7670   7671   7674     1  0.0000000  0.6508444  3
   7669   7670   7676   7682     1  0.0000000  1.0460000  1
   7669   7670   7676   7682     1  0.0000000  0.6694400  3
   7669   7666   7678   7681     1  0.0000000  1.0460000  1
   7669   7666   7678   7681     1  0.0000000  0.6694400  3
   7670   7669   7677   7680     1  0.0000000  1.0460000  1
   7670   7669   7677   7680     1  0.0000000  0.6694400  3
   7671   7670   7676   7682     1  0.0000000  1.0460000  1
   7671   7670   7676   7682     1  0.0000000  0.6694400  3
   7671   7670   7669   7673     1  0.0000000  0.6508444  3
   7672   7670   7671   7675     1  0.0000000  1.0460000  1
   7672   7670   7671   7675     1  0.0000000  0.0000000  3
   7672   7670   7671   7687     1  0.0000000  1.0460000  1
   7672   7670   7671   7687     1  0.0000000  0.0000000  3
   7672   7670   7671   7674     1  0.0000000  0.6508444  3
   7672   7670   7676   7682     1  0.0000000  0.6973333  3
   7672   7670   7669   7677     1  0.0000000  1.0460000  1
   7672   7670   7669   7677     1  0.0000000  0.0000000  3
   7672   7670   7669   7673     1  0.0000000  0.6508444  3
   7673   7669   7670   7676     1  0.0000000  1.0460000  1
   7673   7669   7670   7676     1  0.0000000  0.0000000  3
   7673   7669   7677   7680     1  0.0000000  0.6973333  3
   7673   7669   7666   7678     1  0.0000000  1.0460000  1
   7673   7669   7666   7678     1  0.0000000  0.0000000  3
   7674   7671   7670   7676     1  0.0000000  0.6508444  3
   7683   7679   7685   7686     1  0.0000000  0.6973333  3
   7683   7679   7665   7687     1  0.0000000  1.0460000  1
   7683   7679   7665   7687     1  0.0000000  0.0000000  3
   7684   7679   7685   7686     1  0.0000000  0.6973333  3
   7684   7679   7665   7687     1  0.0000000  1.0460000  1
   7684   7679   7665   7687     1  0.0000000  0.0000000  3
   7688   7689   7692   7696     1  0.0000000  0.6508444  3
   7688   7689   7701   7704     1  0.0000000  1.0460000  1
   7688   7689   7701   7704     1  0.0000000  0.6694400  3
   7688   7702   7708   7709     1  0.0000000  1.0460000  1
   7688   7702   7708   7709     1  0.0000000  0.6694400  3
   7688   7710   7694   7697     1  0.0000000  1.6038667  3
   7689   7688   7702   7706     1  0.0000000  0.6508444  3
   7689   7688   7702   7707     1  0.0000000  0.6508444  3
   7689   7692   7693   7695     1  0.0000000  0.6508444  3
   7689   7692   7700   7703     1  0.0000000  1.0460000  1
   7689   7692   7700   7703     1  0.0000000  0.6694400  3
   7690   7688   7689   7692     1  0.0000000  0.6508444  3
   7690   7688   7689   7701     1  0.0000000  1.0460000  1
   7690   7688   7689   7701     1  0.0000000  0.0000000  3
   7690   7688   7689   7691     1  0.0000000  0.6508444  3
   7690   7688   7702   7708     1  0.0000000  1.0460000  1
   7690   7688   7702   7708     1  0.0000000  0.0000000  3
   7690   7688   7702   7706     1  0.0000000  0.6508444  3
   7690   7688   7702   7707     1  0.0000000  0.6508444  3
   7690   7688   7710   7694     1  0.0000000  1.6038667  3
   7691   7689   7688   7702     1  0.0000000  0.6508444  3
   7691   7689   7688   7710     1  0.0000000  1.0460000  1
   7691   7689   7688   7710     1  0.0000000  0.0000000  3
   7691   7689   7692   7693     1  0.0000000  0.6508444  3
   7691   7689   7692   7700     1  0.0000000  1.0460000  1
   7691   7689   7692   7700     1  0.0000000  0.0000000  3
   7691   7689   7692   7696     1  0.0000000  0.6508444  3
   7691   7689   7701   7704     1  0.0000000  0.6973333  3
   7692   7689   7701   7704     1  0.0000000  1.0460000  1
   7692   7689   7701   7704     1  0.0000000  0.6694400  3
   7692   7693   7694   7697     1  0.0000000  0.6508444  3
   7692   7693   7699   7705     1  0.0000000  1.0460000  1
   7692   7693   7699   7705     1  0.0000000  0.6694400  3
   7693   7692   7700   7703     1  0.0000000  1.0460000  1
   7693   7692   7700   7703     1  0.0000000  0.6694400  3
   7694   7693   7692   7696     1  0.0000000  0.6508444  3
   7694   7693   7699   7705     1  0.0000000  1.0460000  1
   7694   7693   7699   7705     1  0.0000000  0.6694400  3
   7695   7693   7692   7700     1  0.0000000  1.0460000  1
   7695   7693   7692   7700     1  0.0000000  0.0000000  3
   7695   7693   7692   7696     1  0.0000000  0.6508444  3
   7695   7693   7694   7698     1  0.0000000  1.0460000  1
   7695   7693   7694   7698     1  0.0000000  0.0000000  3
   7695   7693   7694   7710     1  0.0000000  1.0460000  1
   7695   7693   7694   7710     1  0.0000000  0.0000000  3
   7695   7693   7694   7697     1  0.0000000  0.6508444  3
   7695   7693   7699   7705     1  0.0000000  0.6973333  3
   7696   7692   7689   7701     1  0.0000000  1.0460000  1
   7696   7692   7689   7701     1  0.0000000  0.0000000  3
   7696   7692   7693   7699     1  0.0000000  1.0460000  1
   7696   7692   7693   7699     1  0.0000000  0.0000000  3
   7696   7692   7700   7703     1  0.0000000  0.6973333  3
   7697   7694   7693   7699     1  0.0000000  0.6508444  3
   7706   7702   7688   7710     1  0.0000000  1.0460000  1
   7706   7702   7688   7710     1  0.0000000  0.0000000  3
   7706   7702   7708   7709     1  0.0000000  0.6973333  3
   7707   7702   7688   7710     1  0.0000000  1.0460000  1
   7707   7702   7688   7710     1  0.0000000  0.0000000  3
   7707   7702   7708   7709     1  0.0000000  0.6973333  3
   7711   7712   7715   7719     1  0.0000000  0.6508444  3
   7711   7712   7724   7727     1  0.0000000  1.0460000  1
   7711   7712   7724   7727     1  0.0000000  0.6694400  3
   7711   7725   7731   7732     1  0.0000000  1.0460000  1
   7711   7725   7731   7732     1  0.0000000  0.6694400  3
   7711   7733   7717   7720     1  0.0000000  1.6038667  3
   7712   7715   7716   7718     1  0.0000000  0.6508444  3
   7712   7715   7723   7726     1  0.0000000  1.0460000  1
   7712   7715   7723   7726     1  0.0000000  0.6694400  3
   7712   7711   7725   7729     1  0.0000000  0.6508444  3
   7712   7711   7725   7730     1  0.0000000  0.6508444  3
   7713   7711   7712   7715     1  0.0000000  0.6508444  3
   7713   7711   7712   7724     1  0.0000000  1.0460000  1
   7713   7711   7712   7724     1  0.0000000  0.0000000  3
   7713   7711   7712   7714     1  0.0000000  0.6508444  3
   7713   7711   7725   7731     1  0.0000000  1.0460000  1
   7713   7711   7725   7731     1  0.0000000  0.0000000  3
   7713   7711   7725   7729     1  0.0000000  0.6508444  3
   7713   7711   7725   7730     1  0.0000000  0.6508444  3
   7713   7711   7733   7717     1  0.0000000  1.6038667  3
   7714   7712   7715   7716     1  0.0000000  0.6508444  3
   7714   7712   7715   7723     1  0.0000000  1.0460000  1
   7714   7712   7715   7723     1  0.0000000  0.0000000  3
   7714   7712   7715   7719     1  0.0000000  0.6508444  3
   7714   7712   7724   7727     1  0.0000000  0.6973333  3
   7714   7712   7711   7725     1  0.0000000  0.6508444  3
   7714   7712   7711   7733     1  0.0000000  1.0460000  1
   7714   7712   7711   7733     1  0.0000000  0.0000000  3
   7715   7716   7717   7720     1  0.0000000  0.6508444  3
   7715   7716   7722   7728     1  0.0000000  1.0460000  1
   7715   7716   7722   7728     1  0.0000000  0.6694400  3
   7715   7712   7724   7727     1  0.0000000  1.0460000  1
   7715   7712   7724   7727     1  0.0000000  0.6694400  3
   7716   7715   7723   7726     1  0.0000000  1.0460000  1
   7716   7715   7723   7726     1  0.0000000  0.6694400  3
   7717   7716   7722   7728     1  0.0000000  1.0460000  1
   7717   7716   7722   7728     1  0.0000000  0.6694400  3
   7717   7716   7715   7719     1  0.0000000  0.6508444  3
   7718   7716   7717   7721     1  0.0000000  1.0460000  1
   7718   7716   7717   7721     1  0.0000000  0.0000000  3
   7718   7716   7717   7733     1  0.0000000  1.0460000  1
   7718   7716   7717   7733     1  0.0000000  0.0000000  3
   7718   7716   7717   7720     1  0.0000000  0.6508444  3
   7718   7716   7722   7728     1  0.0000000  0.6973333  3
   7718   7716   7715   7723     1  0.0000000  1.0460000  1
   7718   7716   7715   7723     1  0.0000000  0.0000000  3
   7718   7716   7715   7719     1  0.0000000  0.6508444  3
   7719   7715   7716   7722     1  0.0000000  1.0460000  1
   7719   7715   7716   7722     1  0.0000000  0.0000000  3
   7719   7715   7723   7726     1  0.0000000  0.6973333  3
   7719   7715   7712   7724     1  0.0000000  1.0460000  1
   7719   7715   7712   7724     1  0.0000000  0.0000000  3
   7720   7717   7716   7722     1  0.0000000  0.6508444  3
   7729   7725   7731   7732     1  0.0000000  0.6973333  3
   7729   7725   7711   7733     1  0.0000000  1.0460000  1
   7729   7725   7711   7733     1  0.0000000  0.0000000  3
   7730   7725   7731   7732     1  0.0000000  0.6973333  3
   7730   7725   7711   7733     1  0.0000000  1.0460000  1
   7730   7725   7711   7733     1  0.0000000  0.0000000  3
   7734   7735   7738   7742     1  0.0000000  0.6508444  3
   7734   7735   7747   7750     1  0.0000000  1.0460000  1
   7734   7735   7747   7750     1  0.0000000  0.6694400  3
   7734   7748   7754   7755     1  0.0000000  1.0460000  1
   7734   7748   7754   7755     1  0.0000000  0.6694400  3
   7734   7756   7740   7743     1  0.0000000  1.6038667  3
   7735   7734   7748   7752     1  0.0000000  0.6508444  3
   7735   7734   7748   7753     1  0.0000000  0.6508444  3
   7735   7738   7739   7741     1  0.0000000  0.6508444  3
   7735   7738   7746   7749     1  0.0000000  1.0460000  1
   7735   7738   7746   7749     1  0.0000000  0.6694400  3
   7736   7734   7735   7738     1  0.0000000  0.6508444  3
   7736   7734   7735   7747     1  0.0000000  1.0460000  1
   7736   7734   7735   7747     1  0.0000000  0.0000000  3
   7736   7734   7735   7737     1  0.0000000  0.6508444  3
   7736   7734   7748   7754     1  0.0000000  1.0460000  1
   7736   7734   7748   7754     1  0.0000000  0.0000000  3
   7736   7734   7748   7752     1  0.0000000  0.6508444  3
   7736   7734   7748   7753     1  0.0000000  0.6508444  3
   7736   7734   7756   7740     1  0.0000000  1.6038667  3
   7737   7735   7734   7748     1  0.0000000  0.6508444  3
   7737   7735   7734   7756     1  0.0000000  1.0460000  1
   7737   7735   7734   7756     1  0.0000000  0.0000000  3
   7737   7735   7738   7739     1  0.0000000  0.6508444  3
   7737   7735   7738   7746     1  0.0000000  1.0460000  1
   7737   7735   7738   7746     1  0.0000000  0.0000000  3
   7737   7735   7738   7742     1  0.0000000  0.6508444  3
   7737   7735   7747   7750     1  0.0000000  0.6973333  3
   7738   7735   7747   7750     1  0.0000000  1.0460000  1
   7738   7735   7747   7750     1  0.0000000  0.6694400  3
   7738   7739   7740   7743     1  0.0000000  0.6508444  3
   7738   7739   7745   7751     1  0.0000000  1.0460000  1
   7738   7739   7745   7751     1  0.0000000  0.6694400  3
   7739   7738   7746   7749     1  0.0000000  1.0460000  1
   7739   7738   7746   7749     1  0.0000000  0.6694400  3
   7740   7739   7738   7742     1  0.0000000  0.6508444  3
   7740   7739   7745   7751     1  0.0000000  1.0460000  1
   7740   7739   7745   7751     1  0.0000000  0.6694400  3
   7741   7739   7738   7746     1  0.0000000  1.0460000  1
   7741   7739   7738   7746     1  0.0000000  0.0000000  3
   7741   7739   7738   7742     1  0.0000000  0.6508444  3
   7741   7739   7740   7744     1  0.0000000  1.0460000  1
   7741   7739   7740   7744     1  0.0000000  0.0000000  3
   7741   7739   7740   7756     1  0.0000000  1.0460000  1
   7741   7739   7740   7756     1  0.0000000  0.0000000  3
   7741   7739   7740   7743     1  0.0000000  0.6508444  3
   7741   7739   7745   7751     1  0.0000000  0.6973333  3
   7742   7738   7735   7747     1  0.0000000  1.0460000  1
   7742   7738   7735   7747     1  0.0000000  0.0000000  3
   7742   7738   7739   7745     1  0.0000000  1.0460000  1
   7742   7738   7739   7745     1  0.0000000  0.0000000  3
   7742   7738   7746   7749     1  0.0000000  0.6973333  3
   7743   7740   7739   7745     1  0.0000000  0.6508444  3
   7752   7748   7734   7756     1  0.0000000  1.0460000  1
   7752   7748   7734   7756     1  0.0000000  0.0000000  3
   7752   7748   7754   7755     1  0.0000000  0.6973333  3
   7753   7748   7734   7756     1  0.0000000  1.0460000  1
   7753   7748   7734   7756     1  0.0000000  0.0000000  3
   7753   7748   7754   7755     1  0.0000000  0.6973333  3
   7757   7758   7761   7765     1  0.0000000  0.6508444  3
   7757   7758   7770   7773     1  0.0000000  1.0460000  1
   7757   7758   7770   7773     1  0.0000000  0.6694400  3
   7757   7771   7777   7778     1  0.0000000  1.0460000  1
   7757   7771   7777   7778     1  0.0000000  0.6694400  3
   7757   7779   7763   7766     1  0.0000000  1.6038667  3
   7758   7761   7762   7764     1  0.0000000  0.6508444  3
   7758   7761   7769   7772     1  0.0000000  1.0460000  1
   7758   7761   7769   7772     1  0.0000000  0.6694400  3
   7758   7757   7771   7775     1  0.0000000  0.6508444  3
   7758   7757   7771   7776     1  0.0000000  0.6508444  3
   7759   7757   7758   7761     1  0.0000000  0.6508444  3
   7759   7757   7758   7770     1  0.0000000  1.0460000  1
   7759   7757   7758   7770     1  0.0000000  0.0000000  3
   7759   7757   7758   7760     1  0.0000000  0.6508444  3
   7759   7757   7771   7777     1  0.0000000  1.0460000  1
   7759   7757   7771   7777     1  0.0000000  0.0000000  3
   7759   7757   7771   7775     1  0.0000000  0.6508444  3
   7759   7757   7771   7776     1  0.0000000  0.6508444  3
   7759   7757   7779   7763     1  0.0000000  1.6038667  3
   7760   7758   7761   7762     1  0.0000000  0.6508444  3
   7760   7758   7761   7769     1  0.0000000  1.0460000  1
   7760   7758   7761   7769     1  0.0000000  0.0000000  3
   7760   7758   7761   7765     1  0.0000000  0.6508444  3
   7760   7758   7770   7773     1  0.0000000  0.6973333  3
   7760   7758   7757   7771     1  0.0000000  0.6508444  3
   7760   7758   7757   7779     1  0.0000000  1.0460000  1
   7760   7758   7757   7779     1  0.0000000  0.0000000  3
   7761   7762   7763   7766     1  0.0000000  0.6508444  3
   7761   7762   7768   7774     1  0.0000000  1.0460000  1
   7761   7762   7768   7774     1  0.0000000  0.6694400  3
   7761   7758   7770   7773     1  0.0000000  1.0460000  1
   7761   7758   7770   7773     1  0.0000000  0.6694400  3
   7762   7761   7769   7772     1  0.0000000  1.0460000  1
   7762   7761   7769   7772     1  0.0000000  0.6694400  3
   7763   7762   7768   7774     1  0.0000000  1.0460000  1
   7763   7762   7768   7774     1  0.0000000  0.6694400  3
   7763   7762   7761   7765     1  0.0000000  0.6508444  3
   7764   7762   7763   7767     1  0.0000000  1.0460000  1
   7764   7762   7763   7767     1  0.0000000  0.0000000  3
   7764   7762   7763   7779     1  0.0000000  1.0460000  1
   7764   7762   7763   7779     1  0.0000000  0.0000000  3
   7764   7762   7763   7766     1  0.0000000  0.6508444  3
   7764   7762   7768   7774     1  0.0000000  0.6973333  3
   7764   7762   7761   7769     1  0.0000000  1.0460000  1
   7764   7762   7761   7769     1  0.0000000  0.0000000  3
   7764   7762   7761   7765     1  0.0000000  0.6508444  3
   7765   7761   7762   7768     1  0.0000000  1.0460000  1
   7765   7761   7762   7768     1  0.0000000  0.0000000  3
   7765   7761   7769   7772     1  0.0000000  0.6973333  3
   7765   7761   7758   7770     1  0.0000000  1.0460000  1
   7765   7761   7758   7770     1  0.0000000  0.0000000  3
   7766   7763   7762   7768     1  0.0000000  0.6508444  3
   7775   7771   7777   7778     1  0.0000000  0.6973333  3
   7775   7771   7757   7779     1  0.0000000  1.0460000  1
   7775   7771   7757   7779     1  0.0000000  0.0000000  3
   7776   7771   7777   7778     1  0.0000000  0.6973333  3
   7776   7771   7757   7779     1  0.0000000  1.0460000  1
   7776   7771   7757   7779     1  0.0000000  0.0000000  3
   7780   7781   7784   7788     1  0.0000000  0.6508444  3
   7780   7781   7793   7796     1  0.0000000  1.0460000  1
   7780   7781   7793   7796     1  0.0000000  0.6694400  3
   7780   7794   7800   7801     1  0.0000000  1.0460000  1
   7780   7794   7800   7801     1  0.0000000  0.6694400  3
   7780   7802   7786   7789     1  0.0000000  1.6038667  3
   7781   7780   7794   7798     1  0.0000000  0.6508444  3
   7781   7780   7794   7799     1  0.0000000  0.6508444  3
   7781   7784   7785   7787     1  0.0000000  0.6508444  3
   7781   7784   7792   7795     1  0.0000000  1.0460000  1
   7781   7784   7792   7795     1  0.0000000  0.6694400  3
   7782   7780   7781   7784     1  0.0000000  0.6508444  3
   7782   7780   7781   7793     1  0.0000000  1.0460000  1
   7782   7780   7781   7793     1  0.0000000  0.0000000  3
   7782   7780   7781   7783     1  0.0000000  0.6508444  3
   7782   7780   7794   7800     1  0.0000000  1.0460000  1
   7782   7780   7794   7800     1  0.0000000  0.0000000  3
   7782   7780   7794   7798     1  0.0000000  0.6508444  3
   7782   7780   7794   7799     1  0.0000000  0.6508444  3
   7782   7780   7802   7786     1  0.0000000  1.6038667  3
   7783   7781   7780   7794     1  0.0000000  0.6508444  3
   7783   7781   7780   7802     1  0.0000000  1.0460000  1
   7783   7781   7780   7802     1  0.0000000  0.0000000  3
   7783   7781   7784   7785     1  0.0000000  0.6508444  3
   7783   7781   7784   7792     1  0.0000000  1.0460000  1
   7783   7781   7784   7792     1  0.0000000  0.0000000  3
   7783   7781   7784   7788     1  0.0000000  0.6508444  3
   7783   7781   7793   7796     1  0.0000000  0.6973333  3
   7784   7781   7793   7796     1  0.0000000  1.0460000  1
   7784   7781   7793   7796     1  0.0000000  0.6694400  3
   7784   7785   7786   7789     1  0.0000000  0.6508444  3
   7784   7785   7791   7797     1  0.0000000  1.0460000  1
   7784   7785   7791   7797     1  0.0000000  0.6694400  3
   7785   7784   7792   7795     1  0.0000000  1.0460000  1
   7785   7784   7792   7795     1  0.0000000  0.6694400  3
   7786   7785   7784   7788     1  0.0000000  0.6508444  3
   7786   7785   7791   7797     1  0.0000000  1.0460000  1
   7786   7785   7791   7797     1  0.0000000  0.6694400  3
   7787   7785   7784   7792     1  0.0000000  1.0460000  1
   7787   7785   7784   7792     1  0.0000000  0.0000000  3
   7787   7785   7784   7788     1  0.0000000  0.6508444  3
   7787   7785   7786   7790     1  0.0000000  1.0460000  1
   7787   7785   7786   7790     1  0.0000000  0.0000000  3
   7787   7785   7786   7802     1  0.0000000  1.0460000  1
   7787   7785   7786   7802     1  0.0000000  0.0000000  3
   7787   7785   7786   7789     1  0.0000000  0.6508444  3
   7787   7785   7791   7797     1  0.0000000  0.6973333  3
   7788   7784   7781   7793     1  0.0000000  1.0460000  1
   7788   7784   7781   7793     1  0.0000000  0.0000000  3
   7788   7784   7785   7791     1  0.0000000  1.0460000  1
   7788   7784   7785   7791     1  0.0000000  0.0000000  3
   7788   7784   7792   7795     1  0.0000000  0.6973333  3
   7789   7786   7785   7791     1  0.0000000  0.6508444  3
   7798   7794   7780   7802     1  0.0000000  1.0460000  1
   7798   7794   7780   7802     1  0.0000000  0.0000000  3
   7798   7794   7800   7801     1  0.0000000  0.6973333  3
   7799   7794   7780   7802     1  0.0000000  1.0460000  1
   7799   7794   7780   7802     1  0.0000000  0.0000000  3
   7799   7794   7800   7801     1  0.0000000  0.6973333  3
   7803   7804   7807   7811     1  0.0000000  0.6508444  3
   7803   7804   7816   7819     1  0.0000000  1.0460000  1
   7803   7804   7816   7819     1  0.0000000  0.6694400  3
   7803   7817   7823   7824     1  0.0000000  1.0460000  1
   7803   7817   7823   7824     1  0.0000000  0.6694400  3
   7803   7825   7809   7812     1  0.0000000  1.6038667  3
   7804   7807   7808   7810     1  0.0000000  0.6508444  3
   7804   7807   7815   7818     1  0.0000000  1.0460000  1
   7804   7807   7815   7818     1  0.0000000  0.6694400  3
   7804   7803   7817   7821     1  0.0000000  0.6508444  3
   7804   7803   7817   7822     1  0.0000000  0.6508444  3
   7805   7803   7804   7807     1  0.0000000  0.6508444  3
   7805   7803   7804   7816     1  0.0000000  1.0460000  1
   7805   7803   7804   7816     1  0.0000000  0.0000000  3
   7805   7803   7804   7806     1  0.0000000  0.6508444  3
   7805   7803   7817   7823     1  0.0000000  1.0460000  1
   7805   7803   7817   7823     1  0.0000000  0.0000000  3
   7805   7803   7817   7821     1  0.0000000  0.6508444  3
   7805   7803   7817   7822     1  0.0000000  0.6508444  3
   7805   7803   7825   7809     1  0.0000000  1.6038667  3
   7806   7804   7807   7808     1  0.0000000  0.6508444  3
   7806   7804   7807   7815     1  0.0000000  1.0460000  1
   7806   7804   7807   7815     1  0.0000000  0.0000000  3
   7806   7804   7807   7811     1  0.0000000  0.6508444  3
   7806   7804   7816   7819     1  0.0000000  0.6973333  3
   7806   7804   7803   7817     1  0.0000000  0.6508444  3
   7806   7804   7803   7825     1  0.0000000  1.0460000  1
   7806   7804   7803   7825     1  0.0000000  0.0000000  3
   7807   7808   7809   7812     1  0.0000000  0.6508444  3
   7807   7808   7814   7820     1  0.0000000  1.0460000  1
   7807   7808   7814   7820     1  0.0000000  0.6694400  3
   7807   7804   7816   7819     1  0.0000000  1.0460000  1
   7807   7804   7816   7819     1  0.0000000  0.6694400  3
   7808   7807   7815   7818     1  0.0000000  1.0460000  1
   7808   7807   7815   7818     1  0.0000000  0.6694400  3
   7809   7808   7814   7820     1  0.0000000  1.0460000  1
   7809   7808   7814   7820     1  0.0000000  0.6694400  3
   7809   7808   7807   7811     1  0.0000000  0.6508444  3
   7810   7808   7809   7813     1  0.0000000  1.0460000  1
   7810   7808   7809   7813     1  0.0000000  0.0000000  3
   7810   7808   7809   7825     1  0.0000000  1.0460000  1
   7810   7808   7809   7825     1  0.0000000  0.0000000  3
   7810   7808   7809   7812     1  0.0000000  0.6508444  3
   7810   7808   7814   7820     1  0.0000000  0.6973333  3
   7810   7808   7807   7815     1  0.0000000  1.0460000  1
   7810   7808   7807   7815     1  0.0000000  0.0000000  3
   7810   7808   7807   7811     1  0.0000000  0.6508444  3
   7811   7807   7808   7814     1  0.0000000  1.0460000  1
   7811   7807   7808   7814     1  0.0000000  0.0000000  3
   7811   7807   7815   7818     1  0.0000000  0.6973333  3
   7811   7807   7804   7816     1  0.0000000  1.0460000  1
   7811   7807   7804   7816     1  0.0000000  0.0000000  3
   7812   7809   7808   7814     1  0.0000000  0.6508444  3
   7821   7817   7823   7824     1  0.0000000  0.6973333  3
   7821   7817   7803   7825     1  0.0000000  1.0460000  1
   7821   7817   7803   7825     1  0.0000000  0.0000000  3
   7822   7817   7823   7824     1  0.0000000  0.6973333  3
   7822   7817   7803   7825     1  0.0000000  1.0460000  1
   7822   7817   7803   7825     1  0.0000000  0.0000000  3
   7826   7827   7830   7834     1  0.0000000  0.6508444  3
   7826   7827   7839   7842     1  0.0000000  1.0460000  1
   7826   7827   7839   7842     1  0.0000000  0.6694400  3
   7826   7840   7846   7847     1  0.0000000  1.0460000  1
   7826   7840   7846   7847     1  0.0000000  0.6694400  3
   7826   7848   7832   7835     1  0.0000000  1.6038667  3
   7827   7826   7840   7844     1  0.0000000  0.6508444  3
   7827   7826   7840   7845     1  0.0000000  0.6508444  3
   7827   7830   7831   7833     1  0.0000000  0.6508444  3
   7827   7830   7838   7841     1  0.0000000  1.0460000  1
   7827   7830   7838   7841     1  0.0000000  0.6694400  3
   7828   7826   7827   7830     1  0.0000000  0.6508444  3
   7828   7826   7827   7839     1  0.0000000  1.0460000  1
   7828   7826   7827   7839     1  0.0000000  0.0000000  3
   7828   7826   7827   7829     1  0.0000000  0.6508444  3
   7828   7826   7840   7846     1  0.0000000  1.0460000  1
   7828   7826   7840   7846     1  0.0000000  0.0000000  3
   7828   7826   7840   7844     1  0.0000000  0.6508444  3
   7828   7826   7840   7845     1  0.0000000  0.6508444  3
   7828   7826   7848   7832     1  0.0000000  1.6038667  3
   7829   7827   7826   7840     1  0.0000000  0.6508444  3
   7829   7827   7826   7848     1  0.0000000  1.0460000  1
   7829   7827   7826   7848     1  0.0000000  0.0000000  3
   7829   7827   7830   7831     1  0.0000000  0.6508444  3
   7829   7827   7830   7838     1  0.0000000  1.0460000  1
   7829   7827   7830   7838     1  0.0000000  0.0000000  3
   7829   7827   7830   7834     1  0.0000000  0.6508444  3
   7829   7827   7839   7842     1  0.0000000  0.6973333  3
   7830   7827   7839   7842     1  0.0000000  1.0460000  1
   7830   7827   7839   7842     1  0.0000000  0.6694400  3
   7830   7831   7832   7835     1  0.0000000  0.6508444  3
   7830   7831   7837   7843     1  0.0000000  1.0460000  1
   7830   7831   7837   7843     1  0.0000000  0.6694400  3
   7831   7830   7838   7841     1  0.0000000  1.0460000  1
   7831   7830   7838   7841     1  0.0000000  0.6694400  3
   7832   7831   7830   7834     1  0.0000000  0.6508444  3
   7832   7831   7837   7843     1  0.0000000  1.0460000  1
   7832   7831   7837   7843     1  0.0000000  0.6694400  3
   7833   7831   7830   7838     1  0.0000000  1.0460000  1
   7833   7831   7830   7838     1  0.0000000  0.0000000  3
   7833   7831   7830   7834     1  0.0000000  0.6508444  3
   7833   7831   7832   7836     1  0.0000000  1.0460000  1
   7833   7831   7832   7836     1  0.0000000  0.0000000  3
   7833   7831   7832   7848     1  0.0000000  1.0460000  1
   7833   7831   7832   7848     1  0.0000000  0.0000000  3
   7833   7831   7832   7835     1  0.0000000  0.6508444  3
   7833   7831   7837   7843     1  0.0000000  0.6973333  3
   7834   7830   7827   7839     1  0.0000000  1.0460000  1
   7834   7830   7827   7839     1  0.0000000  0.0000000  3
   7834   7830   7831   7837     1  0.0000000  1.0460000  1
   7834   7830   7831   7837     1  0.0000000  0.0000000  3
   7834   7830   7838   7841     1  0.0000000  0.6973333  3
   7835   7832   7831   7837     1  0.0000000  0.6508444  3
   7844   7840   7826   7848     1  0.0000000  1.0460000  1
   7844   7840   7826   7848     1  0.0000000  0.0000000  3
   7844   7840   7846   7847     1  0.0000000  0.6973333  3
   7845   7840   7826   7848     1  0.0000000  1.0460000  1
   7845   7840   7826   7848     1  0.0000000  0.0000000  3
   7845   7840   7846   7847     1  0.0000000  0.6973333  3
   7849   7850   7853   7857     1  0.0000000  0.6508444  3
   7849   7850   7862   7865     1  0.0000000  1.0460000  1
   7849   7850   7862   7865     1  0.0000000  0.6694400  3
   7849   7863   7869   7870     1  0.0000000  1.0460000  1
   7849   7863   7869   7870     1  0.0000000  0.6694400  3
   7849   7871   7855   7858     1  0.0000000  1.6038667  3
   7850   7853   7854   7856     1  0.0000000  0.6508444  3
   7850   7853   7861   7864     1  0.0000000  1.0460000  1
   7850   7853   7861   7864     1  0.0000000  0.6694400  3
   7850   7849   7863   7867     1  0.0000000  0.6508444  3
   7850   7849   7863   7868     1  0.0000000  0.6508444  3
   7851   7849   7850   7853     1  0.0000000  0.6508444  3
   7851   7849   7850   7862     1  0.0000000  1.0460000  1
   7851   7849   7850   7862     1  0.0000000  0.0000000  3
   7851   7849   7850   7852     1  0.0000000  0.6508444  3
   7851   7849   7863   7869     1  0.0000000  1.0460000  1
   7851   7849   7863   7869     1  0.0000000  0.0000000  3
   7851   7849   7863   7867     1  0.0000000  0.6508444  3
   7851   7849   7863   7868     1  0.0000000  0.6508444  3
   7851   7849   7871   7855     1  0.0000000  1.6038667  3
   7852   7850   7853   7854     1  0.0000000  0.6508444  3
   7852   7850   7853   7861     1  0.0000000  1.0460000  1
   7852   7850   7853   7861     1  0.0000000  0.0000000  3
   7852   7850   7853   7857     1  0.0000000  0.6508444  3
   7852   7850   7862   7865     1  0.0000000  0.6973333  3
   7852   7850   7849   7863     1  0.0000000  0.6508444  3
   7852   7850   7849   7871     1  0.0000000  1.0460000  1
   7852   7850   7849   7871     1  0.0000000  0.0000000  3
   7853   7854   7855   7858     1  0.0000000  0.6508444  3
   7853   7854   7860   7866     1  0.0000000  1.0460000  1
   7853   7854   7860   7866     1  0.0000000  0.6694400  3
   7853   7850   7862   7865     1  0.0000000  1.0460000  1
   7853   7850   7862   7865     1  0.0000000  0.6694400  3
   7854   7853   7861   7864     1  0.0000000  1.0460000  1
   7854   7853   7861   7864     1  0.0000000  0.6694400  3
   7855   7854   7860   7866     1  0.0000000  1.0460000  1
   7855   7854   7860   7866     1  0.0000000  0.6694400  3
   7855   7854   7853   7857     1  0.0000000  0.6508444  3
   7856   7854   7855   7859     1  0.0000000  1.0460000  1
   7856   7854   7855   7859     1  0.0000000  0.0000000  3
   7856   7854   7855   7871     1  0.0000000  1.0460000  1
   7856   7854   7855   7871     1  0.0000000  0.0000000  3
   7856   7854   7855   7858     1  0.0000000  0.6508444  3
   7856   7854   7860   7866     1  0.0000000  0.6973333  3
   7856   7854   7853   7861     1  0.0000000  1.0460000  1
   7856   7854   7853   7861     1  0.0000000  0.0000000  3
   7856   7854   7853   7857     1  0.0000000  0.6508444  3
   7857   7853   7854   7860     1  0.0000000  1.0460000  1
   7857   7853   7854   7860     1  0.0000000  0.0000000  3
   7857   7853   7861   7864     1  0.0000000  0.6973333  3
   7857   7853   7850   7862     1  0.0000000  1.0460000  1
   7857   7853   7850   7862     1  0.0000000  0.0000000  3
   7858   7855   7854   7860     1  0.0000000  0.6508444  3
   7867   7863   7869   7870     1  0.0000000  0.6973333  3
   7867   7863   7849   7871     1  0.0000000  1.0460000  1
   7867   7863   7849   7871     1  0.0000000  0.0000000  3
   7868   7863   7869   7870     1  0.0000000  0.6973333  3
   7868   7863   7849   7871     1  0.0000000  1.0460000  1
   7868   7863   7849   7871     1  0.0000000  0.0000000  3
   7872   7873   7876   7880     1  0.0000000  0.6508444  3
   7872   7873   7885   7888     1  0.0000000  1.0460000  1
   7872   7873   7885   7888     1  0.0000000  0.6694400  3
   7872   7886   7892   7893     1  0.0000000  1.0460000  1
   7872   7886   7892   7893     1  0.0000000  0.6694400  3
   7872   7894   7878   7881     1  0.0000000  1.6038667  3
   7873   7872   7886   7890     1  0.0000000  0.6508444  3
   7873   7872   7886   7891     1  0.0000000  0.6508444  3
   7873   7876   7877   7879     1  0.0000000  0.6508444  3
   7873   7876   7884   7887     1  0.0000000  1.0460000  1
   7873   7876   7884   7887     1  0.0000000  0.6694400  3
   7874   7872   7873   7876     1  0.0000000  0.6508444  3
   7874   7872   7873   7885     1  0.0000000  1.0460000  1
   7874   7872   7873   7885     1  0.0000000  0.0000000  3
   7874   7872   7873   7875     1  0.0000000  0.6508444  3
   7874   7872   7886   7892     1  0.0000000  1.0460000  1
   7874   7872   7886   7892     1  0.0000000  0.0000000  3
   7874   7872   7886   7890     1  0.0000000  0.6508444  3
   7874   7872   7886   7891     1  0.0000000  0.6508444  3
   7874   7872   7894   7878     1  0.0000000  1.6038667  3
   7875   7873   7872   7886     1  0.0000000  0.6508444  3
   7875   7873   7872   7894     1  0.0000000  1.0460000  1
   7875   7873   7872   7894     1  0.0000000  0.0000000  3
   7875   7873   7876   7877     1  0.0000000  0.6508444  3
   7875   7873   7876   7884     1  0.0000000  1.0460000  1
   7875   7873   7876   7884     1  0.0000000  0.0000000  3
   7875   7873   7876   7880     1  0.0000000  0.6508444  3
   7875   7873   7885   7888     1  0.0000000  0.6973333  3
   7876   7873   7885   7888     1  0.0000000  1.0460000  1
   7876   7873   7885   7888     1  0.0000000  0.6694400  3
   7876   7877   7878   7881     1  0.0000000  0.6508444  3
   7876   7877   7883   7889     1  0.0000000  1.0460000  1
   7876   7877   7883   7889     1  0.0000000  0.6694400  3
   7877   7876   7884   7887     1  0.0000000  1.0460000  1
   7877   7876   7884   7887     1  0.0000000  0.6694400  3
   7878   7877   7876   7880     1  0.0000000  0.6508444  3
   7878   7877   7883   7889     1  0.0000000  1.0460000  1
   7878   7877   7883   7889     1  0.0000000  0.6694400  3
   7879   7877   7876   7884     1  0.0000000  1.0460000  1
   7879   7877   7876   7884     1  0.0000000  0.0000000  3
   7879   7877   7876   7880     1  0.0000000  0.6508444  3
   7879   7877   7878   7882     1  0.0000000  1.0460000  1
   7879   7877   7878   7882     1  0.0000000  0.0000000  3
   7879   7877   7878   7894     1  0.0000000  1.0460000  1
   7879   7877   7878   7894     1  0.0000000  0.0000000  3
   7879   7877   7878   7881     1  0.0000000  0.6508444  3
   7879   7877   7883   7889     1  0.0000000  0.6973333  3
   7880   7876   7873   7885     1  0.0000000  1.0460000  1
   7880   7876   7873   7885     1  0.0000000  0.0000000  3
   7880   7876   7877   7883     1  0.0000000  1.0460000  1
   7880   7876   7877   7883     1  0.0000000  0.0000000  3
   7880   7876   7884   7887     1  0.0000000  0.6973333  3
   7881   7878   7877   7883     1  0.0000000  0.6508444  3
   7890   7886   7872   7894     1  0.0000000  1.0460000  1
   7890   7886   7872   7894     1  0.0000000  0.0000000  3
   7890   7886   7892   7893     1  0.0000000  0.6973333  3
   7891   7886   7872   7894     1  0.0000000  1.0460000  1
   7891   7886   7872   7894     1  0.0000000  0.0000000  3
   7891   7886   7892   7893     1  0.0000000  0.6973333  3
   7895   7896   7899   7903     1  0.0000000  0.6508444  3
   7895   7896   7908   7911     1  0.0000000  1.0460000  1
   7895   7896   7908   7911     1  0.0000000  0.6694400  3
   7895   7909   7915   7916     1  0.0000000  1.0460000  1
   7895   7909   7915   7916     1  0.0000000  0.6694400  3
   7895   7917   7901   7904     1  0.0000000  1.6038667  3
   7896   7899   7900   7902     1  0.0000000  0.6508444  3
   7896   7899   7907   7910     1  0.0000000  1.0460000  1
   7896   7899   7907   7910     1  0.0000000  0.6694400  3
   7896   7895   7909   7913     1  0.0000000  0.6508444  3
   7896   7895   7909   7914     1  0.0000000  0.6508444  3
   7897   7895   7896   7899     1  0.0000000  0.6508444  3
   7897   7895   7896   7908     1  0.0000000  1.0460000  1
   7897   7895   7896   7908     1  0.0000000  0.0000000  3
   7897   7895   7896   7898     1  0.0000000  0.6508444  3
   7897   7895   7909   7915     1  0.0000000  1.0460000  1
   7897   7895   7909   7915     1  0.0000000  0.0000000  3
   7897   7895   7909   7913     1  0.0000000  0.6508444  3
   7897   7895   7909   7914     1  0.0000000  0.6508444  3
   7897   7895   7917   7901     1  0.0000000  1.6038667  3
   7898   7896   7899   7900     1  0.0000000  0.6508444  3
   7898   7896   7899   7907     1  0.0000000  1.0460000  1
   7898   7896   7899   7907     1  0.0000000  0.0000000  3
   7898   7896   7899   7903     1  0.0000000  0.6508444  3
   7898   7896   7908   7911     1  0.0000000  0.6973333  3
   7898   7896   7895   7909     1  0.0000000  0.6508444  3
   7898   7896   7895   7917     1  0.0000000  1.0460000  1
   7898   7896   7895   7917     1  0.0000000  0.0000000  3
   7899   7900   7901   7904     1  0.0000000  0.6508444  3
   7899   7900   7906   7912     1  0.0000000  1.0460000  1
   7899   7900   7906   7912     1  0.0000000  0.6694400  3
   7899   7896   7908   7911     1  0.0000000  1.0460000  1
   7899   7896   7908   7911     1  0.0000000  0.6694400  3
   7900   7899   7907   7910     1  0.0000000  1.0460000  1
   7900   7899   7907   7910     1  0.0000000  0.6694400  3
   7901   7900   7906   7912     1  0.0000000  1.0460000  1
   7901   7900   7906   7912     1  0.0000000  0.6694400  3
   7901   7900   7899   7903     1  0.0000000  0.6508444  3
   7902   7900   7901   7905     1  0.0000000  1.0460000  1
   7902   7900   7901   7905     1  0.0000000  0.0000000  3
   7902   7900   7901   7917     1  0.0000000  1.0460000  1
   7902   7900   7901   7917     1  0.0000000  0.0000000  3
   7902   7900   7901   7904     1  0.0000000  0.6508444  3
   7902   7900   7906   7912     1  0.0000000  0.6973333  3
   7902   7900   7899   7907     1  0.0000000  1.0460000  1
   7902   7900   7899   7907     1  0.0000000  0.0000000  3
   7902   7900   7899   7903     1  0.0000000  0.6508444  3
   7903   7899   7900   7906     1  0.0000000  1.0460000  1
   7903   7899   7900   7906     1  0.0000000  0.0000000  3
   7903   7899   7907   7910     1  0.0000000  0.6973333  3
   7903   7899   7896   7908     1  0.0000000  1.0460000  1
   7903   7899   7896   7908     1  0.0000000  0.0000000  3
   7904   7901   7900   7906     1  0.0000000  0.6508444  3
   7913   7909   7915   7916     1  0.0000000  0.6973333  3
   7913   7909   7895   7917     1  0.0000000  1.0460000  1
   7913   7909   7895   7917     1  0.0000000  0.0000000  3
   7914   7909   7915   7916     1  0.0000000  0.6973333  3
   7914   7909   7895   7917     1  0.0000000  1.0460000  1
   7914   7909   7895   7917     1  0.0000000  0.0000000  3
   7918   7919   7922   7926     1  0.0000000  0.6508444  3
   7918   7919   7931   7934     1  0.0000000  1.0460000  1
   7918   7919   7931   7934     1  0.0000000  0.6694400  3
   7918   7932   7938   7939     1  0.0000000  1.0460000  1
   7918   7932   7938   7939     1  0.0000000  0.6694400  3
   7918   7940   7924   7927     1  0.0000000  1.6038667  3
   7919   7918   7932   7936     1  0.0000000  0.6508444  3
   7919   7918   7932   7937     1  0.0000000  0.6508444  3
   7919   7922   7923   7925     1  0.0000000  0.6508444  3
   7919   7922   7930   7933     1  0.0000000  1.0460000  1
   7919   7922   7930   7933     1  0.0000000  0.6694400  3
   7920   7918   7919   7922     1  0.0000000  0.6508444  3
   7920   7918   7919   7931     1  0.0000000  1.0460000  1
   7920   7918   7919   7931     1  0.0000000  0.0000000  3
   7920   7918   7919   7921     1  0.0000000  0.6508444  3
   7920   7918   7932   7938     1  0.0000000  1.0460000  1
   7920   7918   7932   7938     1  0.0000000  0.0000000  3
   7920   7918   7932   7936     1  0.0000000  0.6508444  3
   7920   7918   7932   7937     1  0.0000000  0.6508444  3
   7920   7918   7940   7924     1  0.0000000  1.6038667  3
   7921   7919   7918   7932     1  0.0000000  0.6508444  3
   7921   7919   7918   7940     1  0.0000000  1.0460000  1
   7921   7919   7918   7940     1  0.0000000  0.0000000  3
   7921   7919   7922   7923     1  0.0000000  0.6508444  3
   7921   7919   7922   7930     1  0.0000000  1.0460000  1
   7921   7919   7922   7930     1  0.0000000  0.0000000  3
   7921   7919   7922   7926     1  0.0000000  0.6508444  3
   7921   7919   7931   7934     1  0.0000000  0.6973333  3
   7922   7919   7931   7934     1  0.0000000  1.0460000  1
   7922   7919   7931   7934     1  0.0000000  0.6694400  3
   7922   7923   7924   7927     1  0.0000000  0.6508444  3
   7922   7923   7929   7935     1  0.0000000  1.0460000  1
   7922   7923   7929   7935     1  0.0000000  0.6694400  3
   7923   7922   7930   7933     1  0.0000000  1.0460000  1
   7923   7922   7930   7933     1  0.0000000  0.6694400  3
   7924   7923   7922   7926     1  0.0000000  0.6508444  3
   7924   7923   7929   7935     1  0.0000000  1.0460000  1
   7924   7923   7929   7935     1  0.0000000  0.6694400  3
   7925   7923   7922   7930     1  0.0000000  1.0460000  1
   7925   7923   7922   7930     1  0.0000000  0.0000000  3
   7925   7923   7922   7926     1  0.0000000  0.6508444  3
   7925   7923   7924   7928     1  0.0000000  1.0460000  1
   7925   7923   7924   7928     1  0.0000000  0.0000000  3
   7925   7923   7924   7940     1  0.0000000  1.0460000  1
   7925   7923   7924   7940     1  0.0000000  0.0000000  3
   7925   7923   7924   7927     1  0.0000000  0.6508444  3
   7925   7923   7929   7935     1  0.0000000  0.6973333  3
   7926   7922   7919   7931     1  0.0000000  1.0460000  1
   7926   7922   7919   7931     1  0.0000000  0.0000000  3
   7926   7922   7923   7929     1  0.0000000  1.0460000  1
   7926   7922   7923   7929     1  0.0000000  0.0000000  3
   7926   7922   7930   7933     1  0.0000000  0.6973333  3
   7927   7924   7923   7929     1  0.0000000  0.6508444  3
   7936   7932   7918   7940     1  0.0000000  1.0460000  1
   7936   7932   7918   7940     1  0.0000000  0.0000000  3
   7936   7932   7938   7939     1  0.0000000  0.6973333  3
   7937   7932   7918   7940     1  0.0000000  1.0460000  1
   7937   7932   7918   7940     1  0.0000000  0.0000000  3
   7937   7932   7938   7939     1  0.0000000  0.6973333  3
   7941   7942   7945   7949     1  0.0000000  0.6508444  3
   7941   7942   7954   7957     1  0.0000000  1.0460000  1
   7941   7942   7954   7957     1  0.0000000  0.6694400  3
   7941   7955   7961   7962     1  0.0000000  1.0460000  1
   7941   7955   7961   7962     1  0.0000000  0.6694400  3
   7941   7963   7947   7950     1  0.0000000  1.6038667  3
   7942   7945   7946   7948     1  0.0000000  0.6508444  3
   7942   7945   7953   7956     1  0.0000000  1.0460000  1
   7942   7945   7953   7956     1  0.0000000  0.6694400  3
   7942   7941   7955   7959     1  0.0000000  0.6508444  3
   7942   7941   7955   7960     1  0.0000000  0.6508444  3
   7943   7941   7942   7945     1  0.0000000  0.6508444  3
   7943   7941   7942   7954     1  0.0000000  1.0460000  1
   7943   7941   7942   7954     1  0.0000000  0.0000000  3
   7943   7941   7942   7944     1  0.0000000  0.6508444  3
   7943   7941   7955   7961     1  0.0000000  1.0460000  1
   7943   7941   7955   7961     1  0.0000000  0.0000000  3
   7943   7941   7955   7959     1  0.0000000  0.6508444  3
   7943   7941   7955   7960     1  0.0000000  0.6508444  3
   7943   7941   7963   7947     1  0.0000000  1.6038667  3
   7944   7942   7945   7946     1  0.0000000  0.6508444  3
   7944   7942   7945   7953     1  0.0000000  1.0460000  1
   7944   7942   7945   7953     1  0.0000000  0.0000000  3
   7944   7942   7945   7949     1  0.0000000  0.6508444  3
   7944   7942   7954   7957     1  0.0000000  0.6973333  3
   7944   7942   7941   7955     1  0.0000000  0.6508444  3
   7944   7942   7941   7963     1  0.0000000  1.0460000  1
   7944   7942   7941   7963     1  0.0000000  0.0000000  3
   7945   7946   7947   7950     1  0.0000000  0.6508444  3
   7945   7946   7952   7958     1  0.0000000  1.0460000  1
   7945   7946   7952   7958     1  0.0000000  0.6694400  3
   7945   7942   7954   7957     1  0.0000000  1.0460000  1
   7945   7942   7954   7957     1  0.0000000  0.6694400  3
   7946   7945   7953   7956     1  0.0000000  1.0460000  1
   7946   7945   7953   7956     1  0.0000000  0.6694400  3
   7947   7946   7952   7958     1  0.0000000  1.0460000  1
   7947   7946   7952   7958     1  0.0000000  0.6694400  3
   7947   7946   7945   7949     1  0.0000000  0.6508444  3
   7948   7946   7947   7951     1  0.0000000  1.0460000  1
   7948   7946   7947   7951     1  0.0000000  0.0000000  3
   7948   7946   7947   7963     1  0.0000000  1.0460000  1
   7948   7946   7947   7963     1  0.0000000  0.0000000  3
   7948   7946   7947   7950     1  0.0000000  0.6508444  3
   7948   7946   7952   7958     1  0.0000000  0.6973333  3
   7948   7946   7945   7953     1  0.0000000  1.0460000  1
   7948   7946   7945   7953     1  0.0000000  0.0000000  3
   7948   7946   7945   7949     1  0.0000000  0.6508444  3
   7949   7945   7946   7952     1  0.0000000  1.0460000  1
   7949   7945   7946   7952     1  0.0000000  0.0000000  3
   7949   7945   7953   7956     1  0.0000000  0.6973333  3
   7949   7945   7942   7954     1  0.0000000  1.0460000  1
   7949   7945   7942   7954     1  0.0000000  0.0000000  3
   7950   7947   7946   7952     1  0.0000000  0.6508444  3
   7959   7955   7961   7962     1  0.0000000  0.6973333  3
   7959   7955   7941   7963     1  0.0000000  1.0460000  1
   7959   7955   7941   7963     1  0.0000000  0.0000000  3
   7960   7955   7961   7962     1  0.0000000  0.6973333  3
   7960   7955   7941   7963     1  0.0000000  1.0460000  1
   7960   7955   7941   7963     1  0.0000000  0.0000000  3
   7964   7965   7968   7972     1  0.0000000  0.6508444  3
   7964   7965   7977   7980     1  0.0000000  1.0460000  1
   7964   7965   7977   7980     1  0.0000000  0.6694400  3
   7964   7978   7984   7985     1  0.0000000  1.0460000  1
   7964   7978   7984   7985     1  0.0000000  0.6694400  3
   7964   7986   7970   7973     1  0.0000000  1.6038667  3
   7965   7964   7978   7982     1  0.0000000  0.6508444  3
   7965   7964   7978   7983     1  0.0000000  0.6508444  3
   7965   7968   7969   7971     1  0.0000000  0.6508444  3
   7965   7968   7976   7979     1  0.0000000  1.0460000  1
   7965   7968   7976   7979     1  0.0000000  0.6694400  3
   7966   7964   7965   7968     1  0.0000000  0.6508444  3
   7966   7964   7965   7977     1  0.0000000  1.0460000  1
   7966   7964   7965   7977     1  0.0000000  0.0000000  3
   7966   7964   7965   7967     1  0.0000000  0.6508444  3
   7966   7964   7978   7984     1  0.0000000  1.0460000  1
   7966   7964   7978   7984     1  0.0000000  0.0000000  3
   7966   7964   7978   7982     1  0.0000000  0.6508444  3
   7966   7964   7978   7983     1  0.0000000  0.6508444  3
   7966   7964   7986   7970     1  0.0000000  1.6038667  3
   7967   7965   7964   7978     1  0.0000000  0.6508444  3
   7967   7965   7964   7986     1  0.0000000  1.0460000  1
   7967   7965   7964   7986     1  0.0000000  0.0000000  3
   7967   7965   7968   7969     1  0.0000000  0.6508444  3
   7967   7965   7968   7976     1  0.0000000  1.0460000  1
   7967   7965   7968   7976     1  0.0000000  0.0000000  3
   7967   7965   7968   7972     1  0.0000000  0.6508444  3
   7967   7965   7977   7980     1  0.0000000  0.6973333  3
   7968   7965   7977   7980     1  0.0000000  1.0460000  1
   7968   7965   7977   7980     1  0.0000000  0.6694400  3
   7968   7969   7970   7973     1  0.0000000  0.6508444  3
   7968   7969   7975   7981     1  0.0000000  1.0460000  1
   7968   7969   7975   7981     1  0.0000000  0.6694400  3
   7969   7968   7976   7979     1  0.0000000  1.0460000  1
   7969   7968   7976   7979     1  0.0000000  0.6694400  3
   7970   7969   7968   7972     1  0.0000000  0.6508444  3
   7970   7969   7975   7981     1  0.0000000  1.0460000  1
   7970   7969   7975   7981     1  0.0000000  0.6694400  3
   7971   7969   7968   7976     1  0.0000000  1.0460000  1
   7971   7969   7968   7976     1  0.0000000  0.0000000  3
   7971   7969   7968   7972     1  0.0000000  0.6508444  3
   7971   7969   7970   7974     1  0.0000000  1.0460000  1
   7971   7969   7970   7974     1  0.0000000  0.0000000  3
   7971   7969   7970   7986     1  0.0000000  1.0460000  1
   7971   7969   7970   7986     1  0.0000000  0.0000000  3
   7971   7969   7970   7973     1  0.0000000  0.6508444  3
   7971   7969   7975   7981     1  0.0000000  0.6973333  3
   7972   7968   7965   7977     1  0.0000000  1.0460000  1
   7972   7968   7965   7977     1  0.0000000  0.0000000  3
   7972   7968   7969   7975     1  0.0000000  1.0460000  1
   7972   7968   7969   7975     1  0.0000000  0.0000000  3
   7972   7968   7976   7979     1  0.0000000  0.6973333  3
   7973   7970   7969   7975     1  0.0000000  0.6508444  3
   7982   7978   7964   7986     1  0.0000000  1.0460000  1
   7982   7978   7964   7986     1  0.0000000  0.0000000  3
   7982   7978   7984   7985     1  0.0000000  0.6973333  3
   7983   7978   7964   7986     1  0.0000000  1.0460000  1
   7983   7978   7964   7986     1  0.0000000  0.0000000  3
   7983   7978   7984   7985     1  0.0000000  0.6973333  3
   7987   7988   7991   7995     1  0.0000000  0.6508444  3
   7987   7988   8000   8003     1  0.0000000  1.0460000  1
   7987   7988   8000   8003     1  0.0000000  0.6694400  3
   7987   8001   8007   8008     1  0.0000000  1.0460000  1
   7987   8001   8007   8008     1  0.0000000  0.6694400  3
   7987   8009   7993   7996     1  0.0000000  1.6038667  3
   7988   7991   7992   7994     1  0.0000000  0.6508444  3
   7988   7991   7999   8002     1  0.0000000  1.0460000  1
   7988   7991   7999   8002     1  0.0000000  0.6694400  3
   7988   7987   8001   8005     1  0.0000000  0.6508444  3
   7988   7987   8001   8006     1  0.0000000  0.6508444  3
   7989   7987   7988   7991     1  0.0000000  0.6508444  3
   7989   7987   7988   8000     1  0.0000000  1.0460000  1
   7989   7987   7988   8000     1  0.0000000  0.0000000  3
   7989   7987   7988   7990     1  0.0000000  0.6508444  3
   7989   7987   8001   8007     1  0.0000000  1.0460000  1
   7989   7987   8001   8007     1  0.0000000  0.0000000  3
   7989   7987   8001   8005     1  0.0000000  0.6508444  3
   7989   7987   8001   8006     1  0.0000000  0.6508444  3
   7989   7987   8009   7993     1  0.0000000  1.6038667  3
   7990   7988   7991   7992     1  0.0000000  0.6508444  3
   7990   7988   7991   7999     1  0.0000000  1.0460000  1
   7990   7988   7991   7999     1  0.0000000  0.0000000  3
   7990   7988   7991   7995     1  0.0000000  0.6508444  3
   7990   7988   8000   8003     1  0.0000000  0.6973333  3
   7990   7988   7987   8001     1  0.0000000  0.6508444  3
   7990   7988   7987   8009     1  0.0000000  1.0460000  1
   7990   7988   7987   8009     1  0.0000000  0.0000000  3
   7991   7992   7993   7996     1  0.0000000  0.6508444  3
   7991   7992   7998   8004     1  0.0000000  1.0460000  1
   7991   7992   7998   8004     1  0.0000000  0.6694400  3
   7991   7988   8000   8003     1  0.0000000  1.0460000  1
   7991   7988   8000   8003     1  0.0000000  0.6694400  3
   7992   7991   7999   8002     1  0.0000000  1.0460000  1
   7992   7991   7999   8002     1  0.0000000  0.6694400  3
   7993   7992   7998   8004     1  0.0000000  1.0460000  1
   7993   7992   7998   8004     1  0.0000000  0.6694400  3
   7993   7992   7991   7995     1  0.0000000  0.6508444  3
   7994   7992   7993   7997     1  0.0000000  1.0460000  1
   7994   7992   7993   7997     1  0.0000000  0.0000000  3
   7994   7992   7993   8009     1  0.0000000  1.0460000  1
   7994   7992   7993   8009     1  0.0000000  0.0000000  3
   7994   7992   7993   7996     1  0.0000000  0.6508444  3
   7994   7992   7998   8004     1  0.0000000  0.6973333  3
   7994   7992   7991   7999     1  0.0000000  1.0460000  1
   7994   7992   7991   7999     1  0.0000000  0.0000000  3
   7994   7992   7991   7995     1  0.0000000  0.6508444  3
   7995   7991   7992   7998     1  0.0000000  1.0460000  1
   7995   7991   7992   7998     1  0.0000000  0.0000000  3
   7995   7991   7999   8002     1  0.0000000  0.6973333  3
   7995   7991   7988   8000     1  0.0000000  1.0460000  1
   7995   7991   7988   8000     1  0.0000000  0.0000000  3
   7996   7993   7992   7998     1  0.0000000  0.6508444  3
   8005   8001   8007   8008     1  0.0000000  0.6973333  3
   8005   8001   7987   8009     1  0.0000000  1.0460000  1
   8005   8001   7987   8009     1  0.0000000  0.0000000  3
   8006   8001   8007   8008     1  0.0000000  0.6973333  3
   8006   8001   7987   8009     1  0.0000000  1.0460000  1
   8006   8001   7987   8009     1  0.0000000  0.0000000  3
   8010   8011   8014   8018     1  0.0000000  0.6508444  3
   8010   8011   8023   8026     1  0.0000000  1.0460000  1
   8010   8011   8023   8026     1  0.0000000  0.6694400  3
   8010   8024   8030   8031     1  0.0000000  1.0460000  1
   8010   8024   8030   8031     1  0.0000000  0.6694400  3
   8010   8032   8016   8019     1  0.0000000  1.6038667  3
   8011   8010   8024   8028     1  0.0000000  0.6508444  3
   8011   8010   8024   8029     1  0.0000000  0.6508444  3
   8011   8014   8015   8017     1  0.0000000  0.6508444  3
   8011   8014   8022   8025     1  0.0000000  1.0460000  1
   8011   8014   8022   8025     1  0.0000000  0.6694400  3
   8012   8010   8011   8014     1  0.0000000  0.6508444  3
   8012   8010   8011   8023     1  0.0000000  1.0460000  1
   8012   8010   8011   8023     1  0.0000000  0.0000000  3
   8012   8010   8011   8013     1  0.0000000  0.6508444  3
   8012   8010   8024   8030     1  0.0000000  1.0460000  1
   8012   8010   8024   8030     1  0.0000000  0.0000000  3
   8012   8010   8024   8028     1  0.0000000  0.6508444  3
   8012   8010   8024   8029     1  0.0000000  0.6508444  3
   8012   8010   8032   8016     1  0.0000000  1.6038667  3
   8013   8011   8010   8024     1  0.0000000  0.6508444  3
   8013   8011   8010   8032     1  0.0000000  1.0460000  1
   8013   8011   8010   8032     1  0.0000000  0.0000000  3
   8013   8011   8014   8015     1  0.0000000  0.6508444  3
   8013   8011   8014   8022     1  0.0000000  1.0460000  1
   8013   8011   8014   8022     1  0.0000000  0.0000000  3
   8013   8011   8014   8018     1  0.0000000  0.6508444  3
   8013   8011   8023   8026     1  0.0000000  0.6973333  3
   8014   8011   8023   8026     1  0.0000000  1.0460000  1
   8014   8011   8023   8026     1  0.0000000  0.6694400  3
   8014   8015   8016   8019     1  0.0000000  0.6508444  3
   8014   8015   8021   8027     1  0.0000000  1.0460000  1
   8014   8015   8021   8027     1  0.0000000  0.6694400  3
   8015   8014   8022   8025     1  0.0000000  1.0460000  1
   8015   8014   8022   8025     1  0.0000000  0.6694400  3
   8016   8015   8014   8018     1  0.0000000  0.6508444  3
   8016   8015   8021   8027     1  0.0000000  1.0460000  1
   8016   8015   8021   8027     1  0.0000000  0.6694400  3
   8017   8015   8014   8022     1  0.0000000  1.0460000  1
   8017   8015   8014   8022     1  0.0000000  0.0000000  3
   8017   8015   8014   8018     1  0.0000000  0.6508444  3
   8017   8015   8016   8020     1  0.0000000  1.0460000  1
   8017   8015   8016   8020     1  0.0000000  0.0000000  3
   8017   8015   8016   8032     1  0.0000000  1.0460000  1
   8017   8015   8016   8032     1  0.0000000  0.0000000  3
   8017   8015   8016   8019     1  0.0000000  0.6508444  3
   8017   8015   8021   8027     1  0.0000000  0.6973333  3
   8018   8014   8011   8023     1  0.0000000  1.0460000  1
   8018   8014   8011   8023     1  0.0000000  0.0000000  3
   8018   8014   8015   8021     1  0.0000000  1.0460000  1
   8018   8014   8015   8021     1  0.0000000  0.0000000  3
   8018   8014   8022   8025     1  0.0000000  0.6973333  3
   8019   8016   8015   8021     1  0.0000000  0.6508444  3
   8028   8024   8010   8032     1  0.0000000  1.0460000  1
   8028   8024   8010   8032     1  0.0000000  0.0000000  3
   8028   8024   8030   8031     1  0.0000000  0.6973333  3
   8029   8024   8010   8032     1  0.0000000  1.0460000  1
   8029   8024   8010   8032     1  0.0000000  0.0000000  3
   8029   8024   8030   8031     1  0.0000000  0.6973333  3
   8033   8034   8037   8041     1  0.0000000  0.6508444  3
   8033   8034   8046   8049     1  0.0000000  1.0460000  1
   8033   8034   8046   8049     1  0.0000000  0.6694400  3
   8033   8047   8053   8054     1  0.0000000  1.0460000  1
   8033   8047   8053   8054     1  0.0000000  0.6694400  3
   8033   8055   8039   8042     1  0.0000000  1.6038667  3
   8034   8037   8038   8040     1  0.0000000  0.6508444  3
   8034   8037   8045   8048     1  0.0000000  1.0460000  1
   8034   8037   8045   8048     1  0.0000000  0.6694400  3
   8034   8033   8047   8051     1  0.0000000  0.6508444  3
   8034   8033   8047   8052     1  0.0000000  0.6508444  3
   8035   8033   8034   8037     1  0.0000000  0.6508444  3
   8035   8033   8034   8046     1  0.0000000  1.0460000  1
   8035   8033   8034   8046     1  0.0000000  0.0000000  3
   8035   8033   8034   8036     1  0.0000000  0.6508444  3
   8035   8033   8047   8053     1  0.0000000  1.0460000  1
   8035   8033   8047   8053     1  0.0000000  0.0000000  3
   8035   8033   8047   8051     1  0.0000000  0.6508444  3
   8035   8033   8047   8052     1  0.0000000  0.6508444  3
   8035   8033   8055   8039     1  0.0000000  1.6038667  3
   8036   8034   8037   8038     1  0.0000000  0.6508444  3
   8036   8034   8037   8045     1  0.0000000  1.0460000  1
   8036   8034   8037   8045     1  0.0000000  0.0000000  3
   8036   8034   8037   8041     1  0.0000000  0.6508444  3
   8036   8034   8046   8049     1  0.0000000  0.6973333  3
   8036   8034   8033   8047     1  0.0000000  0.6508444  3
   8036   8034   8033   8055     1  0.0000000  1.0460000  1
   8036   8034   8033   8055     1  0.0000000  0.0000000  3
   8037   8038   8039   8042     1  0.0000000  0.6508444  3
   8037   8038   8044   8050     1  0.0000000  1.0460000  1
   8037   8038   8044   8050     1  0.0000000  0.6694400  3
   8037   8034   8046   8049     1  0.0000000  1.0460000  1
   8037   8034   8046   8049     1  0.0000000  0.6694400  3
   8038   8037   8045   8048     1  0.0000000  1.0460000  1
   8038   8037   8045   8048     1  0.0000000  0.6694400  3
   8039   8038   8044   8050     1  0.0000000  1.0460000  1
   8039   8038   8044   8050     1  0.0000000  0.6694400  3
   8039   8038   8037   8041     1  0.0000000  0.6508444  3
   8040   8038   8039   8043     1  0.0000000  1.0460000  1
   8040   8038   8039   8043     1  0.0000000  0.0000000  3
   8040   8038   8039   8055     1  0.0000000  1.0460000  1
   8040   8038   8039   8055     1  0.0000000  0.0000000  3
   8040   8038   8039   8042     1  0.0000000  0.6508444  3
   8040   8038   8044   8050     1  0.0000000  0.6973333  3
   8040   8038   8037   8045     1  0.0000000  1.0460000  1
   8040   8038   8037   8045     1  0.0000000  0.0000000  3
   8040   8038   8037   8041     1  0.0000000  0.6508444  3
   8041   8037   8038   8044     1  0.0000000  1.0460000  1
   8041   8037   8038   8044     1  0.0000000  0.0000000  3
   8041   8037   8045   8048     1  0.0000000  0.6973333  3
   8041   8037   8034   8046     1  0.0000000  1.0460000  1
   8041   8037   8034   8046     1  0.0000000  0.0000000  3
   8042   8039   8038   8044     1  0.0000000  0.6508444  3
   8051   8047   8053   8054     1  0.0000000  0.6973333  3
   8051   8047   8033   8055     1  0.0000000  1.0460000  1
   8051   8047   8033   8055     1  0.0000000  0.0000000  3
   8052   8047   8053   8054     1  0.0000000  0.6973333  3
   8052   8047   8033   8055     1  0.0000000  1.0460000  1
   8052   8047   8033   8055     1  0.0000000  0.0000000  3
   8056   8057   8060   8064     1  0.0000000  0.6508444  3
   8056   8057   8069   8072     1  0.0000000  1.0460000  1
   8056   8057   8069   8072     1  0.0000000  0.6694400  3
   8056   8070   8076   8077     1  0.0000000  1.0460000  1
   8056   8070   8076   8077     1  0.0000000  0.6694400  3
   8056   8078   8062   8065     1  0.0000000  1.6038667  3
   8057   8056   8070   8074     1  0.0000000  0.6508444  3
   8057   8056   8070   8075     1  0.0000000  0.6508444  3
   8057   8060   8061   8063     1  0.0000000  0.6508444  3
   8057   8060   8068   8071     1  0.0000000  1.0460000  1
   8057   8060   8068   8071     1  0.0000000  0.6694400  3
   8058   8056   8057   8060     1  0.0000000  0.6508444  3
   8058   8056   8057   8069     1  0.0000000  1.0460000  1
   8058   8056   8057   8069     1  0.0000000  0.0000000  3
   8058   8056   8057   8059     1  0.0000000  0.6508444  3
   8058   8056   8070   8076     1  0.0000000  1.0460000  1
   8058   8056   8070   8076     1  0.0000000  0.0000000  3
   8058   8056   8070   8074     1  0.0000000  0.6508444  3
   8058   8056   8070   8075     1  0.0000000  0.6508444  3
   8058   8056   8078   8062     1  0.0000000  1.6038667  3
   8059   8057   8056   8070     1  0.0000000  0.6508444  3
   8059   8057   8056   8078     1  0.0000000  1.0460000  1
   8059   8057   8056   8078     1  0.0000000  0.0000000  3
   8059   8057   8060   8061     1  0.0000000  0.6508444  3
   8059   8057   8060   8068     1  0.0000000  1.0460000  1
   8059   8057   8060   8068     1  0.0000000  0.0000000  3
   8059   8057   8060   8064     1  0.0000000  0.6508444  3
   8059   8057   8069   8072     1  0.0000000  0.6973333  3
   8060   8057   8069   8072     1  0.0000000  1.0460000  1
   8060   8057   8069   8072     1  0.0000000  0.6694400  3
   8060   8061   8062   8065     1  0.0000000  0.6508444  3
   8060   8061   8067   8073     1  0.0000000  1.0460000  1
   8060   8061   8067   8073     1  0.0000000  0.6694400  3
   8061   8060   8068   8071     1  0.0000000  1.0460000  1
   8061   8060   8068   8071     1  0.0000000  0.6694400  3
   8062   8061   8060   8064     1  0.0000000  0.6508444  3
   8062   8061   8067   8073     1  0.0000000  1.0460000  1
   8062   8061   8067   8073     1  0.0000000  0.6694400  3
   8063   8061   8060   8068     1  0.0000000  1.0460000  1
   8063   8061   8060   8068     1  0.0000000  0.0000000  3
   8063   8061   8060   8064     1  0.0000000  0.6508444  3
   8063   8061   8062   8066     1  0.0000000  1.0460000  1
   8063   8061   8062   8066     1  0.0000000  0.0000000  3
   8063   8061   8062   8078     1  0.0000000  1.0460000  1
   8063   8061   8062   8078     1  0.0000000  0.0000000  3
   8063   8061   8062   8065     1  0.0000000  0.6508444  3
   8063   8061   8067   8073     1  0.0000000  0.6973333  3
   8064   8060   8057   8069     1  0.0000000  1.0460000  1
   8064   8060   8057   8069     1  0.0000000  0.0000000  3
   8064   8060   8061   8067     1  0.0000000  1.0460000  1
   8064   8060   8061   8067     1  0.0000000  0.0000000  3
   8064   8060   8068   8071     1  0.0000000  0.6973333  3
   8065   8062   8061   8067     1  0.0000000  0.6508444  3
   8074   8070   8056   8078     1  0.0000000  1.0460000  1
   8074   8070   8056   8078     1  0.0000000  0.0000000  3
   8074   8070   8076   8077     1  0.0000000  0.6973333  3
   8075   8070   8056   8078     1  0.0000000  1.0460000  1
   8075   8070   8056   8078     1  0.0000000  0.0000000  3
   8075   8070   8076   8077     1  0.0000000  0.6973333  3
   8079   8080   8083   8087     1  0.0000000  0.6508444  3
   8079   8080   8092   8095     1  0.0000000  1.0460000  1
   8079   8080   8092   8095     1  0.0000000  0.6694400  3
   8079   8093   8099   8100     1  0.0000000  1.0460000  1
   8079   8093   8099   8100     1  0.0000000  0.6694400  3
   8079   8101   8085   8088     1  0.0000000  1.6038667  3
   8080   8083   8084   8086     1  0.0000000  0.6508444  3
   8080   8083   8091   8094     1  0.0000000  1.0460000  1
   8080   8083   8091   8094     1  0.0000000  0.6694400  3
   8080   8079   8093   8097     1  0.0000000  0.6508444  3
   8080   8079   8093   8098     1  0.0000000  0.6508444  3
   8081   8079   8080   8083     1  0.0000000  0.6508444  3
   8081   8079   8080   8092     1  0.0000000  1.0460000  1
   8081   8079   8080   8092     1  0.0000000  0.0000000  3
   8081   8079   8080   8082     1  0.0000000  0.6508444  3
   8081   8079   8093   8099     1  0.0000000  1.0460000  1
   8081   8079   8093   8099     1  0.0000000  0.0000000  3
   8081   8079   8093   8097     1  0.0000000  0.6508444  3
   8081   8079   8093   8098     1  0.0000000  0.6508444  3
   8081   8079   8101   8085     1  0.0000000  1.6038667  3
   8082   8080   8083   8084     1  0.0000000  0.6508444  3
   8082   8080   8083   8091     1  0.0000000  1.0460000  1
   8082   8080   8083   8091     1  0.0000000  0.0000000  3
   8082   8080   8083   8087     1  0.0000000  0.6508444  3
   8082   8080   8092   8095     1  0.0000000  0.6973333  3
   8082   8080   8079   8093     1  0.0000000  0.6508444  3
   8082   8080   8079   8101     1  0.0000000  1.0460000  1
   8082   8080   8079   8101     1  0.0000000  0.0000000  3
   8083   8084   8085   8088     1  0.0000000  0.6508444  3
   8083   8084   8090   8096     1  0.0000000  1.0460000  1
   8083   8084   8090   8096     1  0.0000000  0.6694400  3
   8083   8080   8092   8095     1  0.0000000  1.0460000  1
   8083   8080   8092   8095     1  0.0000000  0.6694400  3
   8084   8083   8091   8094     1  0.0000000  1.0460000  1
   8084   8083   8091   8094     1  0.0000000  0.6694400  3
   8085   8084   8090   8096     1  0.0000000  1.0460000  1
   8085   8084   8090   8096     1  0.0000000  0.6694400  3
   8085   8084   8083   8087     1  0.0000000  0.6508444  3
   8086   8084   8085   8089     1  0.0000000  1.0460000  1
   8086   8084   8085   8089     1  0.0000000  0.0000000  3
   8086   8084   8085   8101     1  0.0000000  1.0460000  1
   8086   8084   8085   8101     1  0.0000000  0.0000000  3
   8086   8084   8085   8088     1  0.0000000  0.6508444  3
   8086   8084   8090   8096     1  0.0000000  0.6973333  3
   8086   8084   8083   8091     1  0.0000000  1.0460000  1
   8086   8084   8083   8091     1  0.0000000  0.0000000  3
   8086   8084   8083   8087     1  0.0000000  0.6508444  3
   8087   8083   8084   8090     1  0.0000000  1.0460000  1
   8087   8083   8084   8090     1  0.0000000  0.0000000  3
   8087   8083   8091   8094     1  0.0000000  0.6973333  3
   8087   8083   8080   8092     1  0.0000000  1.0460000  1
   8087   8083   8080   8092     1  0.0000000  0.0000000  3
   8088   8085   8084   8090     1  0.0000000  0.6508444  3
   8097   8093   8099   8100     1  0.0000000  0.6973333  3
   8097   8093   8079   8101     1  0.0000000  1.0460000  1
   8097   8093   8079   8101     1  0.0000000  0.0000000  3
   8098   8093   8099   8100     1  0.0000000  0.6973333  3
   8098   8093   8079   8101     1  0.0000000  1.0460000  1
   8098   8093   8079   8101     1  0.0000000  0.0000000  3
   8102   8103   8106   8110     1  0.0000000  0.6508444  3
   8102   8103   8115   8118     1  0.0000000  1.0460000  1
   8102   8103   8115   8118     1  0.0000000  0.6694400  3
   8102   8116   8122   8123     1  0.0000000  1.0460000  1
   8102   8116   8122   8123     1  0.0000000  0.6694400  3
   8102   8124   8108   8111     1  0.0000000  1.6038667  3
   8103   8102   8116   8120     1  0.0000000  0.6508444  3
   8103   8102   8116   8121     1  0.0000000  0.6508444  3
   8103   8106   8107   8109     1  0.0000000  0.6508444  3
   8103   8106   8114   8117     1  0.0000000  1.0460000  1
   8103   8106   8114   8117     1  0.0000000  0.6694400  3
   8104   8102   8103   8106     1  0.0000000  0.6508444  3
   8104   8102   8103   8115     1  0.0000000  1.0460000  1
   8104   8102   8103   8115     1  0.0000000  0.0000000  3
   8104   8102   8103   8105     1  0.0000000  0.6508444  3
   8104   8102   8116   8122     1  0.0000000  1.0460000  1
   8104   8102   8116   8122     1  0.0000000  0.0000000  3
   8104   8102   8116   8120     1  0.0000000  0.6508444  3
   8104   8102   8116   8121     1  0.0000000  0.6508444  3
   8104   8102   8124   8108     1  0.0000000  1.6038667  3
   8105   8103   8102   8116     1  0.0000000  0.6508444  3
   8105   8103   8102   8124     1  0.0000000  1.0460000  1
   8105   8103   8102   8124     1  0.0000000  0.0000000  3
   8105   8103   8106   8107     1  0.0000000  0.6508444  3
   8105   8103   8106   8114     1  0.0000000  1.0460000  1
   8105   8103   8106   8114     1  0.0000000  0.0000000  3
   8105   8103   8106   8110     1  0.0000000  0.6508444  3
   8105   8103   8115   8118     1  0.0000000  0.6973333  3
   8106   8103   8115   8118     1  0.0000000  1.0460000  1
   8106   8103   8115   8118     1  0.0000000  0.6694400  3
   8106   8107   8108   8111     1  0.0000000  0.6508444  3
   8106   8107   8113   8119     1  0.0000000  1.0460000  1
   8106   8107   8113   8119     1  0.0000000  0.6694400  3
   8107   8106   8114   8117     1  0.0000000  1.0460000  1
   8107   8106   8114   8117     1  0.0000000  0.6694400  3
   8108   8107   8106   8110     1  0.0000000  0.6508444  3
   8108   8107   8113   8119     1  0.0000000  1.0460000  1
   8108   8107   8113   8119     1  0.0000000  0.6694400  3
   8109   8107   8106   8114     1  0.0000000  1.0460000  1
   8109   8107   8106   8114     1  0.0000000  0.0000000  3
   8109   8107   8106   8110     1  0.0000000  0.6508444  3
   8109   8107   8108   8112     1  0.0000000  1.0460000  1
   8109   8107   8108   8112     1  0.0000000  0.0000000  3
   8109   8107   8108   8124     1  0.0000000  1.0460000  1
   8109   8107   8108   8124     1  0.0000000  0.0000000  3
   8109   8107   8108   8111     1  0.0000000  0.6508444  3
   8109   8107   8113   8119     1  0.0000000  0.6973333  3
   8110   8106   8103   8115     1  0.0000000  1.0460000  1
   8110   8106   8103   8115     1  0.0000000  0.0000000  3
   8110   8106   8107   8113     1  0.0000000  1.0460000  1
   8110   8106   8107   8113     1  0.0000000  0.0000000  3
   8110   8106   8114   8117     1  0.0000000  0.6973333  3
   8111   8108   8107   8113     1  0.0000000  0.6508444  3
   8120   8116   8102   8124     1  0.0000000  1.0460000  1
   8120   8116   8102   8124     1  0.0000000  0.0000000  3
   8120   8116   8122   8123     1  0.0000000  0.6973333  3
   8121   8116   8102   8124     1  0.0000000  1.0460000  1
   8121   8116   8102   8124     1  0.0000000  0.0000000  3
   8121   8116   8122   8123     1  0.0000000  0.6973333  3
   8125   8126   8129   8133     1  0.0000000  0.6508444  3
   8125   8126   8138   8141     1  0.0000000  1.0460000  1
   8125   8126   8138   8141     1  0.0000000  0.6694400  3
   8125   8139   8145   8146     1  0.0000000  1.0460000  1
   8125   8139   8145   8146     1  0.0000000  0.6694400  3
   8125   8147   8131   8134     1  0.0000000  1.6038667  3
   8126   8129   8130   8132     1  0.0000000  0.6508444  3
   8126   8129   8137   8140     1  0.0000000  1.0460000  1
   8126   8129   8137   8140     1  0.0000000  0.6694400  3
   8126   8125   8139   8143     1  0.0000000  0.6508444  3
   8126   8125   8139   8144     1  0.0000000  0.6508444  3
   8127   8125   8126   8129     1  0.0000000  0.6508444  3
   8127   8125   8126   8138     1  0.0000000  1.0460000  1
   8127   8125   8126   8138     1  0.0000000  0.0000000  3
   8127   8125   8126   8128     1  0.0000000  0.6508444  3
   8127   8125   8139   8145     1  0.0000000  1.0460000  1
   8127   8125   8139   8145     1  0.0000000  0.0000000  3
   8127   8125   8139   8143     1  0.0000000  0.6508444  3
   8127   8125   8139   8144     1  0.0000000  0.6508444  3
   8127   8125   8147   8131     1  0.0000000  1.6038667  3
   8128   8126   8129   8130     1  0.0000000  0.6508444  3
   8128   8126   8129   8137     1  0.0000000  1.0460000  1
   8128   8126   8129   8137     1  0.0000000  0.0000000  3
   8128   8126   8129   8133     1  0.0000000  0.6508444  3
   8128   8126   8138   8141     1  0.0000000  0.6973333  3
   8128   8126   8125   8139     1  0.0000000  0.6508444  3
   8128   8126   8125   8147     1  0.0000000  1.0460000  1
   8128   8126   8125   8147     1  0.0000000  0.0000000  3
   8129   8130   8131   8134     1  0.0000000  0.6508444  3
   8129   8130   8136   8142     1  0.0000000  1.0460000  1
   8129   8130   8136   8142     1  0.0000000  0.6694400  3
   8129   8126   8138   8141     1  0.0000000  1.0460000  1
   8129   8126   8138   8141     1  0.0000000  0.6694400  3
   8130   8129   8137   8140     1  0.0000000  1.0460000  1
   8130   8129   8137   8140     1  0.0000000  0.6694400  3
   8131   8130   8136   8142     1  0.0000000  1.0460000  1
   8131   8130   8136   8142     1  0.0000000  0.6694400  3
   8131   8130   8129   8133     1  0.0000000  0.6508444  3
   8132   8130   8131   8135     1  0.0000000  1.0460000  1
   8132   8130   8131   8135     1  0.0000000  0.0000000  3
   8132   8130   8131   8147     1  0.0000000  1.0460000  1
   8132   8130   8131   8147     1  0.0000000  0.0000000  3
   8132   8130   8131   8134     1  0.0000000  0.6508444  3
   8132   8130   8136   8142     1  0.0000000  0.6973333  3
   8132   8130   8129   8137     1  0.0000000  1.0460000  1
   8132   8130   8129   8137     1  0.0000000  0.0000000  3
   8132   8130   8129   8133     1  0.0000000  0.6508444  3
   8133   8129   8130   8136     1  0.0000000  1.0460000  1
   8133   8129   8130   8136     1  0.0000000  0.0000000  3
   8133   8129   8137   8140     1  0.0000000  0.6973333  3
   8133   8129   8126   8138     1  0.0000000  1.0460000  1
   8133   8129   8126   8138     1  0.0000000  0.0000000  3
   8134   8131   8130   8136     1  0.0000000  0.6508444  3
   8143   8139   8145   8146     1  0.0000000  0.6973333  3
   8143   8139   8125   8147     1  0.0000000  1.0460000  1
   8143   8139   8125   8147     1  0.0000000  0.0000000  3
   8144   8139   8145   8146     1  0.0000000  0.6973333  3
   8144   8139   8125   8147     1  0.0000000  1.0460000  1
   8144   8139   8125   8147     1  0.0000000  0.0000000  3
   8148   8149   8152   8156     1  0.0000000  0.6508444  3
   8148   8149   8161   8164     1  0.0000000  1.0460000  1
   8148   8149   8161   8164     1  0.0000000  0.6694400  3
   8148   8162   8168   8169     1  0.0000000  1.0460000  1
   8148   8162   8168   8169     1  0.0000000  0.6694400  3
   8148   8170   8154   8157     1  0.0000000  1.6038667  3
   8149   8148   8162   8166     1  0.0000000  0.6508444  3
   8149   8148   8162   8167     1  0.0000000  0.6508444  3
   8149   8152   8153   8155     1  0.0000000  0.6508444  3
   8149   8152   8160   8163     1  0.0000000  1.0460000  1
   8149   8152   8160   8163     1  0.0000000  0.6694400  3
   8150   8148   8149   8152     1  0.0000000  0.6508444  3
   8150   8148   8149   8161     1  0.0000000  1.0460000  1
   8150   8148   8149   8161     1  0.0000000  0.0000000  3
   8150   8148   8149   8151     1  0.0000000  0.6508444  3
   8150   8148   8162   8168     1  0.0000000  1.0460000  1
   8150   8148   8162   8168     1  0.0000000  0.0000000  3
   8150   8148   8162   8166     1  0.0000000  0.6508444  3
   8150   8148   8162   8167     1  0.0000000  0.6508444  3
   8150   8148   8170   8154     1  0.0000000  1.6038667  3
   8151   8149   8148   8162     1  0.0000000  0.6508444  3
   8151   8149   8148   8170     1  0.0000000  1.0460000  1
   8151   8149   8148   8170     1  0.0000000  0.0000000  3
   8151   8149   8152   8153     1  0.0000000  0.6508444  3
   8151   8149   8152   8160     1  0.0000000  1.0460000  1
   8151   8149   8152   8160     1  0.0000000  0.0000000  3
   8151   8149   8152   8156     1  0.0000000  0.6508444  3
   8151   8149   8161   8164     1  0.0000000  0.6973333  3
   8152   8149   8161   8164     1  0.0000000  1.0460000  1
   8152   8149   8161   8164     1  0.0000000  0.6694400  3
   8152   8153   8154   8157     1  0.0000000  0.6508444  3
   8152   8153   8159   8165     1  0.0000000  1.0460000  1
   8152   8153   8159   8165     1  0.0000000  0.6694400  3
   8153   8152   8160   8163     1  0.0000000  1.0460000  1
   8153   8152   8160   8163     1  0.0000000  0.6694400  3
   8154   8153   8152   8156     1  0.0000000  0.6508444  3
   8154   8153   8159   8165     1  0.0000000  1.0460000  1
   8154   8153   8159   8165     1  0.0000000  0.6694400  3
   8155   8153   8152   8160     1  0.0000000  1.0460000  1
   8155   8153   8152   8160     1  0.0000000  0.0000000  3
   8155   8153   8152   8156     1  0.0000000  0.6508444  3
   8155   8153   8154   8158     1  0.0000000  1.0460000  1
   8155   8153   8154   8158     1  0.0000000  0.0000000  3
   8155   8153   8154   8170     1  0.0000000  1.0460000  1
   8155   8153   8154   8170     1  0.0000000  0.0000000  3
   8155   8153   8154   8157     1  0.0000000  0.6508444  3
   8155   8153   8159   8165     1  0.0000000  0.6973333  3
   8156   8152   8149   8161     1  0.0000000  1.0460000  1
   8156   8152   8149   8161     1  0.0000000  0.0000000  3
   8156   8152   8153   8159     1  0.0000000  1.0460000  1
   8156   8152   8153   8159     1  0.0000000  0.0000000  3
   8156   8152   8160   8163     1  0.0000000  0.6973333  3
   8157   8154   8153   8159     1  0.0000000  0.6508444  3
   8166   8162   8148   8170     1  0.0000000  1.0460000  1
   8166   8162   8148   8170     1  0.0000000  0.0000000  3
   8166   8162   8168   8169     1  0.0000000  0.6973333  3
   8167   8162   8148   8170     1  0.0000000  1.0460000  1
   8167   8162   8148   8170     1  0.0000000  0.0000000  3
   8167   8162   8168   8169     1  0.0000000  0.6973333  3
   8171   8172   8175   8179     1  0.0000000  0.6508444  3
   8171   8172   8184   8187     1  0.0000000  1.0460000  1
   8171   8172   8184   8187     1  0.0000000  0.6694400  3
   8171   8185   8191   8192     1  0.0000000  1.0460000  1
   8171   8185   8191   8192     1  0.0000000  0.6694400  3
   8171   8193   8177   8180     1  0.0000000  1.6038667  3
   8172   8175   8176   8178     1  0.0000000  0.6508444  3
   8172   8175   8183   8186     1  0.0000000  1.0460000  1
   8172   8175   8183   8186     1  0.0000000  0.6694400  3
   8172   8171   8185   8189     1  0.0000000  0.6508444  3
   8172   8171   8185   8190     1  0.0000000  0.6508444  3
   8173   8171   8172   8175     1  0.0000000  0.6508444  3
   8173   8171   8172   8184     1  0.0000000  1.0460000  1
   8173   8171   8172   8184     1  0.0000000  0.0000000  3
   8173   8171   8172   8174     1  0.0000000  0.6508444  3
   8173   8171   8185   8191     1  0.0000000  1.0460000  1
   8173   8171   8185   8191     1  0.0000000  0.0000000  3
   8173   8171   8185   8189     1  0.0000000  0.6508444  3
   8173   8171   8185   8190     1  0.0000000  0.6508444  3
   8173   8171   8193   8177     1  0.0000000  1.6038667  3
   8174   8172   8175   8176     1  0.0000000  0.6508444  3
   8174   8172   8175   8183     1  0.0000000  1.0460000  1
   8174   8172   8175   8183     1  0.0000000  0.0000000  3
   8174   8172   8175   8179     1  0.0000000  0.6508444  3
   8174   8172   8184   8187     1  0.0000000  0.6973333  3
   8174   8172   8171   8185     1  0.0000000  0.6508444  3
   8174   8172   8171   8193     1  0.0000000  1.0460000  1
   8174   8172   8171   8193     1  0.0000000  0.0000000  3
   8175   8176   8177   8180     1  0.0000000  0.6508444  3
   8175   8176   8182   8188     1  0.0000000  1.0460000  1
   8175   8176   8182   8188     1  0.0000000  0.6694400  3
   8175   8172   8184   8187     1  0.0000000  1.0460000  1
   8175   8172   8184   8187     1  0.0000000  0.6694400  3
   8176   8175   8183   8186     1  0.0000000  1.0460000  1
   8176   8175   8183   8186     1  0.0000000  0.6694400  3
   8177   8176   8182   8188     1  0.0000000  1.0460000  1
   8177   8176   8182   8188     1  0.0000000  0.6694400  3
   8177   8176   8175   8179     1  0.0000000  0.6508444  3
   8178   8176   8177   8181     1  0.0000000  1.0460000  1
   8178   8176   8177   8181     1  0.0000000  0.0000000  3
   8178   8176   8177   8193     1  0.0000000  1.0460000  1
   8178   8176   8177   8193     1  0.0000000  0.0000000  3
   8178   8176   8177   8180     1  0.0000000  0.6508444  3
   8178   8176   8182   8188     1  0.0000000  0.6973333  3
   8178   8176   8175   8183     1  0.0000000  1.0460000  1
   8178   8176   8175   8183     1  0.0000000  0.0000000  3
   8178   8176   8175   8179     1  0.0000000  0.6508444  3
   8179   8175   8176   8182     1  0.0000000  1.0460000  1
   8179   8175   8176   8182     1  0.0000000  0.0000000  3
   8179   8175   8183   8186     1  0.0000000  0.6973333  3
   8179   8175   8172   8184     1  0.0000000  1.0460000  1
   8179   8175   8172   8184     1  0.0000000  0.0000000  3
   8180   8177   8176   8182     1  0.0000000  0.6508444  3
   8189   8185   8191   8192     1  0.0000000  0.6973333  3
   8189   8185   8171   8193     1  0.0000000  1.0460000  1
   8189   8185   8171   8193     1  0.0000000  0.0000000  3
   8190   8185   8191   8192     1  0.0000000  0.6973333  3
   8190   8185   8171   8193     1  0.0000000  1.0460000  1
   8190   8185   8171   8193     1  0.0000000  0.0000000  3
   8194   8195   8198   8202     1  0.0000000  0.6508444  3
   8194   8195   8207   8210     1  0.0000000  1.0460000  1
   8194   8195   8207   8210     1  0.0000000  0.6694400  3
   8194   8208   8214   8215     1  0.0000000  1.0460000  1
   8194   8208   8214   8215     1  0.0000000  0.6694400  3
   8194   8216   8200   8203     1  0.0000000  1.6038667  3
   8195   8194   8208   8212     1  0.0000000  0.6508444  3
   8195   8194   8208   8213     1  0.0000000  0.6508444  3
   8195   8198   8199   8201     1  0.0000000  0.6508444  3
   8195   8198   8206   8209     1  0.0000000  1.0460000  1
   8195   8198   8206   8209     1  0.0000000  0.6694400  3
   8196   8194   8195   8198     1  0.0000000  0.6508444  3
   8196   8194   8195   8207     1  0.0000000  1.0460000  1
   8196   8194   8195   8207     1  0.0000000  0.0000000  3
   8196   8194   8195   8197     1  0.0000000  0.6508444  3
   8196   8194   8208   8214     1  0.0000000  1.0460000  1
   8196   8194   8208   8214     1  0.0000000  0.0000000  3
   8196   8194   8208   8212     1  0.0000000  0.6508444  3
   8196   8194   8208   8213     1  0.0000000  0.6508444  3
   8196   8194   8216   8200     1  0.0000000  1.6038667  3
   8197   8195   8194   8208     1  0.0000000  0.6508444  3
   8197   8195   8194   8216     1  0.0000000  1.0460000  1
   8197   8195   8194   8216     1  0.0000000  0.0000000  3
   8197   8195   8198   8199     1  0.0000000  0.6508444  3
   8197   8195   8198   8206     1  0.0000000  1.0460000  1
   8197   8195   8198   8206     1  0.0000000  0.0000000  3
   8197   8195   8198   8202     1  0.0000000  0.6508444  3
   8197   8195   8207   8210     1  0.0000000  0.6973333  3
   8198   8195   8207   8210     1  0.0000000  1.0460000  1
   8198   8195   8207   8210     1  0.0000000  0.6694400  3
   8198   8199   8200   8203     1  0.0000000  0.6508444  3
   8198   8199   8205   8211     1  0.0000000  1.0460000  1
   8198   8199   8205   8211     1  0.0000000  0.6694400  3
   8199   8198   8206   8209     1  0.0000000  1.0460000  1
   8199   8198   8206   8209     1  0.0000000  0.6694400  3
   8200   8199   8198   8202     1  0.0000000  0.6508444  3
   8200   8199   8205   8211     1  0.0000000  1.0460000  1
   8200   8199   8205   8211     1  0.0000000  0.6694400  3
   8201   8199   8198   8206     1  0.0000000  1.0460000  1
   8201   8199   8198   8206     1  0.0000000  0.0000000  3
   8201   8199   8198   8202     1  0.0000000  0.6508444  3
   8201   8199   8200   8204     1  0.0000000  1.0460000  1
   8201   8199   8200   8204     1  0.0000000  0.0000000  3
   8201   8199   8200   8216     1  0.0000000  1.0460000  1
   8201   8199   8200   8216     1  0.0000000  0.0000000  3
   8201   8199   8200   8203     1  0.0000000  0.6508444  3
   8201   8199   8205   8211     1  0.0000000  0.6973333  3
   8202   8198   8195   8207     1  0.0000000  1.0460000  1
   8202   8198   8195   8207     1  0.0000000  0.0000000  3
   8202   8198   8199   8205     1  0.0000000  1.0460000  1
   8202   8198   8199   8205     1  0.0000000  0.0000000  3
   8202   8198   8206   8209     1  0.0000000  0.6973333  3
   8203   8200   8199   8205     1  0.0000000  0.6508444  3
   8212   8208   8194   8216     1  0.0000000  1.0460000  1
   8212   8208   8194   8216     1  0.0000000  0.0000000  3
   8212   8208   8214   8215     1  0.0000000  0.6973333  3
   8213   8208   8194   8216     1  0.0000000  1.0460000  1
   8213   8208   8194   8216     1  0.0000000  0.0000000  3
   8213   8208   8214   8215     1  0.0000000  0.6973333  3
   8217   8218   8221   8225     1  0.0000000  0.6508444  3
   8217   8218   8230   8233     1  0.0000000  1.0460000  1
   8217   8218   8230   8233     1  0.0000000  0.6694400  3
   8217   8231   8237   8238     1  0.0000000  1.0460000  1
   8217   8231   8237   8238     1  0.0000000  0.6694400  3
   8217   8239   8223   8226     1  0.0000000  1.6038667  3
   8218   8221   8222   8224     1  0.0000000  0.6508444  3
   8218   8221   8229   8232     1  0.0000000  1.0460000  1
   8218   8221   8229   8232     1  0.0000000  0.6694400  3
   8218   8217   8231   8235     1  0.0000000  0.6508444  3
   8218   8217   8231   8236     1  0.0000000  0.6508444  3
   8219   8217   8218   8221     1  0.0000000  0.6508444  3
   8219   8217   8218   8230     1  0.0000000  1.0460000  1
   8219   8217   8218   8230     1  0.0000000  0.0000000  3
   8219   8217   8218   8220     1  0.0000000  0.6508444  3
   8219   8217   8231   8237     1  0.0000000  1.0460000  1
   8219   8217   8231   8237     1  0.0000000  0.0000000  3
   8219   8217   8231   8235     1  0.0000000  0.6508444  3
   8219   8217   8231   8236     1  0.0000000  0.6508444  3
   8219   8217   8239   8223     1  0.0000000  1.6038667  3
   8220   8218   8221   8222     1  0.0000000  0.6508444  3
   8220   8218   8221   8229     1  0.0000000  1.0460000  1
   8220   8218   8221   8229     1  0.0000000  0.0000000  3
   8220   8218   8221   8225     1  0.0000000  0.6508444  3
   8220   8218   8230   8233     1  0.0000000  0.6973333  3
   8220   8218   8217   8231     1  0.0000000  0.6508444  3
   8220   8218   8217   8239     1  0.0000000  1.0460000  1
   8220   8218   8217   8239     1  0.0000000  0.0000000  3
   8221   8222   8223   8226     1  0.0000000  0.6508444  3
   8221   8222   8228   8234     1  0.0000000  1.0460000  1
   8221   8222   8228   8234     1  0.0000000  0.6694400  3
   8221   8218   8230   8233     1  0.0000000  1.0460000  1
   8221   8218   8230   8233     1  0.0000000  0.6694400  3
   8222   8221   8229   8232     1  0.0000000  1.0460000  1
   8222   8221   8229   8232     1  0.0000000  0.6694400  3
   8223   8222   8228   8234     1  0.0000000  1.0460000  1
   8223   8222   8228   8234     1  0.0000000  0.6694400  3
   8223   8222   8221   8225     1  0.0000000  0.6508444  3
   8224   8222   8223   8227     1  0.0000000  1.0460000  1
   8224   8222   8223   8227     1  0.0000000  0.0000000  3
   8224   8222   8223   8239     1  0.0000000  1.0460000  1
   8224   8222   8223   8239     1  0.0000000  0.0000000  3
   8224   8222   8223   8226     1  0.0000000  0.6508444  3
   8224   8222   8228   8234     1  0.0000000  0.6973333  3
   8224   8222   8221   8229     1  0.0000000  1.0460000  1
   8224   8222   8221   8229     1  0.0000000  0.0000000  3
   8224   8222   8221   8225     1  0.0000000  0.6508444  3
   8225   8221   8222   8228     1  0.0000000  1.0460000  1
   8225   8221   8222   8228     1  0.0000000  0.0000000  3
   8225   8221   8229   8232     1  0.0000000  0.6973333  3
   8225   8221   8218   8230     1  0.0000000  1.0460000  1
   8225   8221   8218   8230     1  0.0000000  0.0000000  3
   8226   8223   8222   8228     1  0.0000000  0.6508444  3
   8235   8231   8237   8238     1  0.0000000  0.6973333  3
   8235   8231   8217   8239     1  0.0000000  1.0460000  1
   8235   8231   8217   8239     1  0.0000000  0.0000000  3
   8236   8231   8237   8238     1  0.0000000  0.6973333  3
   8236   8231   8217   8239     1  0.0000000  1.0460000  1
   8236   8231   8217   8239     1  0.0000000  0.0000000  3
   8240   8241   8244   8248     1  0.0000000  0.6508444  3
   8240   8241   8253   8256     1  0.0000000  1.0460000  1
   8240   8241   8253   8256     1  0.0000000  0.6694400  3
   8240   8254   8260   8261     1  0.0000000  1.0460000  1
   8240   8254   8260   8261     1  0.0000000  0.6694400  3
   8240   8262   8246   8249     1  0.0000000  1.6038667  3
   8241   8240   8254   8258     1  0.0000000  0.6508444  3
   8241   8240   8254   8259     1  0.0000000  0.6508444  3
   8241   8244   8245   8247     1  0.0000000  0.6508444  3
   8241   8244   8252   8255     1  0.0000000  1.0460000  1
   8241   8244   8252   8255     1  0.0000000  0.6694400  3
   8242   8240   8241   8244     1  0.0000000  0.6508444  3
   8242   8240   8241   8253     1  0.0000000  1.0460000  1
   8242   8240   8241   8253     1  0.0000000  0.0000000  3
   8242   8240   8241   8243     1  0.0000000  0.6508444  3
   8242   8240   8254   8260     1  0.0000000  1.0460000  1
   8242   8240   8254   8260     1  0.0000000  0.0000000  3
   8242   8240   8254   8258     1  0.0000000  0.6508444  3
   8242   8240   8254   8259     1  0.0000000  0.6508444  3
   8242   8240   8262   8246     1  0.0000000  1.6038667  3
   8243   8241   8240   8254     1  0.0000000  0.6508444  3
   8243   8241   8240   8262     1  0.0000000  1.0460000  1
   8243   8241   8240   8262     1  0.0000000  0.0000000  3
   8243   8241   8244   8245     1  0.0000000  0.6508444  3
   8243   8241   8244   8252     1  0.0000000  1.0460000  1
   8243   8241   8244   8252     1  0.0000000  0.0000000  3
   8243   8241   8244   8248     1  0.0000000  0.6508444  3
   8243   8241   8253   8256     1  0.0000000  0.6973333  3
   8244   8241   8253   8256     1  0.0000000  1.0460000  1
   8244   8241   8253   8256     1  0.0000000  0.6694400  3
   8244   8245   8246   8249     1  0.0000000  0.6508444  3
   8244   8245   8251   8257     1  0.0000000  1.0460000  1
   8244   8245   8251   8257     1  0.0000000  0.6694400  3
   8245   8244   8252   8255     1  0.0000000  1.0460000  1
   8245   8244   8252   8255     1  0.0000000  0.6694400  3
   8246   8245   8244   8248     1  0.0000000  0.6508444  3
   8246   8245   8251   8257     1  0.0000000  1.0460000  1
   8246   8245   8251   8257     1  0.0000000  0.6694400  3
   8247   8245   8244   8252     1  0.0000000  1.0460000  1
   8247   8245   8244   8252     1  0.0000000  0.0000000  3
   8247   8245   8244   8248     1  0.0000000  0.6508444  3
   8247   8245   8246   8250     1  0.0000000  1.0460000  1
   8247   8245   8246   8250     1  0.0000000  0.0000000  3
   8247   8245   8246   8262     1  0.0000000  1.0460000  1
   8247   8245   8246   8262     1  0.0000000  0.0000000  3
   8247   8245   8246   8249     1  0.0000000  0.6508444  3
   8247   8245   8251   8257     1  0.0000000  0.6973333  3
   8248   8244   8241   8253     1  0.0000000  1.0460000  1
   8248   8244   8241   8253     1  0.0000000  0.0000000  3
   8248   8244   8245   8251     1  0.0000000  1.0460000  1
   8248   8244   8245   8251     1  0.0000000  0.0000000  3
   8248   8244   8252   8255     1  0.0000000  0.6973333  3
   8249   8246   8245   8251     1  0.0000000  0.6508444  3
   8258   8254   8240   8262     1  0.0000000  1.0460000  1
   8258   8254   8240   8262     1  0.0000000  0.0000000  3
   8258   8254   8260   8261     1  0.0000000  0.6973333  3
   8259   8254   8240   8262     1  0.0000000  1.0460000  1
   8259   8254   8240   8262     1  0.0000000  0.0000000  3
   8259   8254   8260   8261     1  0.0000000  0.6973333  3
   8263   8264   8267   8271     1  0.0000000  0.6508444  3
   8263   8264   8276   8279     1  0.0000000  1.0460000  1
   8263   8264   8276   8279     1  0.0000000  0.6694400  3
   8263   8277   8283   8284     1  0.0000000  1.0460000  1
   8263   8277   8283   8284     1  0.0000000  0.6694400  3
   8263   8285   8269   8272     1  0.0000000  1.6038667  3
   8264   8267   8268   8270     1  0.0000000  0.6508444  3
   8264   8267   8275   8278     1  0.0000000  1.0460000  1
   8264   8267   8275   8278     1  0.0000000  0.6694400  3
   8264   8263   8277   8281     1  0.0000000  0.6508444  3
   8264   8263   8277   8282     1  0.0000000  0.6508444  3
   8265   8263   8264   8267     1  0.0000000  0.6508444  3
   8265   8263   8264   8276     1  0.0000000  1.0460000  1
   8265   8263   8264   8276     1  0.0000000  0.0000000  3
   8265   8263   8264   8266     1  0.0000000  0.6508444  3
   8265   8263   8277   8283     1  0.0000000  1.0460000  1
   8265   8263   8277   8283     1  0.0000000  0.0000000  3
   8265   8263   8277   8281     1  0.0000000  0.6508444  3
   8265   8263   8277   8282     1  0.0000000  0.6508444  3
   8265   8263   8285   8269     1  0.0000000  1.6038667  3
   8266   8264   8267   8268     1  0.0000000  0.6508444  3
   8266   8264   8267   8275     1  0.0000000  1.0460000  1
   8266   8264   8267   8275     1  0.0000000  0.0000000  3
   8266   8264   8267   8271     1  0.0000000  0.6508444  3
   8266   8264   8276   8279     1  0.0000000  0.6973333  3
   8266   8264   8263   8277     1  0.0000000  0.6508444  3
   8266   8264   8263   8285     1  0.0000000  1.0460000  1
   8266   8264   8263   8285     1  0.0000000  0.0000000  3
   8267   8268   8269   8272     1  0.0000000  0.6508444  3
   8267   8268   8274   8280     1  0.0000000  1.0460000  1
   8267   8268   8274   8280     1  0.0000000  0.6694400  3
   8267   8264   8276   8279     1  0.0000000  1.0460000  1
   8267   8264   8276   8279     1  0.0000000  0.6694400  3
   8268   8267   8275   8278     1  0.0000000  1.0460000  1
   8268   8267   8275   8278     1  0.0000000  0.6694400  3
   8269   8268   8274   8280     1  0.0000000  1.0460000  1
   8269   8268   8274   8280     1  0.0000000  0.6694400  3
   8269   8268   8267   8271     1  0.0000000  0.6508444  3
   8270   8268   8269   8273     1  0.0000000  1.0460000  1
   8270   8268   8269   8273     1  0.0000000  0.0000000  3
   8270   8268   8269   8285     1  0.0000000  1.0460000  1
   8270   8268   8269   8285     1  0.0000000  0.0000000  3
   8270   8268   8269   8272     1  0.0000000  0.6508444  3
   8270   8268   8274   8280     1  0.0000000  0.6973333  3
   8270   8268   8267   8275     1  0.0000000  1.0460000  1
   8270   8268   8267   8275     1  0.0000000  0.0000000  3
   8270   8268   8267   8271     1  0.0000000  0.6508444  3
   8271   8267   8268   8274     1  0.0000000  1.0460000  1
   8271   8267   8268   8274     1  0.0000000  0.0000000  3
   8271   8267   8275   8278     1  0.0000000  0.6973333  3
   8271   8267   8264   8276     1  0.0000000  1.0460000  1
   8271   8267   8264   8276     1  0.0000000  0.0000000  3
   8272   8269   8268   8274     1  0.0000000  0.6508444  3
   8281   8277   8283   8284     1  0.0000000  0.6973333  3
   8281   8277   8263   8285     1  0.0000000  1.0460000  1
   8281   8277   8263   8285     1  0.0000000  0.0000000  3
   8282   8277   8283   8284     1  0.0000000  0.6973333  3
   8282   8277   8263   8285     1  0.0000000  1.0460000  1
   8282   8277   8263   8285     1  0.0000000  0.0000000  3
   8286   8287   8290   8294     1  0.0000000  0.6508444  3
   8286   8287   8299   8302     1  0.0000000  1.0460000  1
   8286   8287   8299   8302     1  0.0000000  0.6694400  3
   8286   8300   8306   8307     1  0.0000000  1.0460000  1
   8286   8300   8306   8307     1  0.0000000  0.6694400  3
   8286   8308   8292   8295     1  0.0000000  1.6038667  3
   8287   8286   8300   8304     1  0.0000000  0.6508444  3
   8287   8286   8300   8305     1  0.0000000  0.6508444  3
   8287   8290   8291   8293     1  0.0000000  0.6508444  3
   8287   8290   8298   8301     1  0.0000000  1.0460000  1
   8287   8290   8298   8301     1  0.0000000  0.6694400  3
   8288   8286   8287   8290     1  0.0000000  0.6508444  3
   8288   8286   8287   8299     1  0.0000000  1.0460000  1
   8288   8286   8287   8299     1  0.0000000  0.0000000  3
   8288   8286   8287   8289     1  0.0000000  0.6508444  3
   8288   8286   8300   8306     1  0.0000000  1.0460000  1
   8288   8286   8300   8306     1  0.0000000  0.0000000  3
   8288   8286   8300   8304     1  0.0000000  0.6508444  3
   8288   8286   8300   8305     1  0.0000000  0.6508444  3
   8288   8286   8308   8292     1  0.0000000  1.6038667  3
   8289   8287   8286   8300     1  0.0000000  0.6508444  3
   8289   8287   8286   8308     1  0.0000000  1.0460000  1
   8289   8287   8286   8308     1  0.0000000  0.0000000  3
   8289   8287   8290   8291     1  0.0000000  0.6508444  3
   8289   8287   8290   8298     1  0.0000000  1.0460000  1
   8289   8287   8290   8298     1  0.0000000  0.0000000  3
   8289   8287   8290   8294     1  0.0000000  0.6508444  3
   8289   8287   8299   8302     1  0.0000000  0.6973333  3
   8290   8287   8299   8302     1  0.0000000  1.0460000  1
   8290   8287   8299   8302     1  0.0000000  0.6694400  3
   8290   8291   8292   8295     1  0.0000000  0.6508444  3
   8290   8291   8297   8303     1  0.0000000  1.0460000  1
   8290   8291   8297   8303     1  0.0000000  0.6694400  3
   8291   8290   8298   8301     1  0.0000000  1.0460000  1
   8291   8290   8298   8301     1  0.0000000  0.6694400  3
   8292   8291   8290   8294     1  0.0000000  0.6508444  3
   8292   8291   8297   8303     1  0.0000000  1.0460000  1
   8292   8291   8297   8303     1  0.0000000  0.6694400  3
   8293   8291   8290   8298     1  0.0000000  1.0460000  1
   8293   8291   8290   8298     1  0.0000000  0.0000000  3
   8293   8291   8290   8294     1  0.0000000  0.6508444  3
   8293   8291   8292   8296     1  0.0000000  1.0460000  1
   8293   8291   8292   8296     1  0.0000000  0.0000000  3
   8293   8291   8292   8308     1  0.0000000  1.0460000  1
   8293   8291   8292   8308     1  0.0000000  0.0000000  3
   8293   8291   8292   8295     1  0.0000000  0.6508444  3
   8293   8291   8297   8303     1  0.0000000  0.6973333  3
   8294   8290   8287   8299     1  0.0000000  1.0460000  1
   8294   8290   8287   8299     1  0.0000000  0.0000000  3
   8294   8290   8291   8297     1  0.0000000  1.0460000  1
   8294   8290   8291   8297     1  0.0000000  0.0000000  3
   8294   8290   8298   8301     1  0.0000000  0.6973333  3
   8295   8292   8291   8297     1  0.0000000  0.6508444  3
   8304   8300   8286   8308     1  0.0000000  1.0460000  1
   8304   8300   8286   8308     1  0.0000000  0.0000000  3
   8304   8300   8306   8307     1  0.0000000  0.6973333  3
   8305   8300   8286   8308     1  0.0000000  1.0460000  1
   8305   8300   8286   8308     1  0.0000000  0.0000000  3
   8305   8300   8306   8307     1  0.0000000  0.6973333  3
   8309   8310   8313   8317     1  0.0000000  0.6508444  3
   8309   8310   8322   8325     1  0.0000000  1.0460000  1
   8309   8310   8322   8325     1  0.0000000  0.6694400  3
   8309   8323   8329   8330     1  0.0000000  1.0460000  1
   8309   8323   8329   8330     1  0.0000000  0.6694400  3
   8309   8331   8315   8318     1  0.0000000  1.6038667  3
   8310   8313   8314   8316     1  0.0000000  0.6508444  3
   8310   8313   8321   8324     1  0.0000000  1.0460000  1
   8310   8313   8321   8324     1  0.0000000  0.6694400  3
   8310   8309   8323   8327     1  0.0000000  0.6508444  3
   8310   8309   8323   8328     1  0.0000000  0.6508444  3
   8311   8309   8310   8313     1  0.0000000  0.6508444  3
   8311   8309   8310   8322     1  0.0000000  1.0460000  1
   8311   8309   8310   8322     1  0.0000000  0.0000000  3
   8311   8309   8310   8312     1  0.0000000  0.6508444  3
   8311   8309   8323   8329     1  0.0000000  1.0460000  1
   8311   8309   8323   8329     1  0.0000000  0.0000000  3
   8311   8309   8323   8327     1  0.0000000  0.6508444  3
   8311   8309   8323   8328     1  0.0000000  0.6508444  3
   8311   8309   8331   8315     1  0.0000000  1.6038667  3
   8312   8310   8313   8314     1  0.0000000  0.6508444  3
   8312   8310   8313   8321     1  0.0000000  1.0460000  1
   8312   8310   8313   8321     1  0.0000000  0.0000000  3
   8312   8310   8313   8317     1  0.0000000  0.6508444  3
   8312   8310   8322   8325     1  0.0000000  0.6973333  3
   8312   8310   8309   8323     1  0.0000000  0.6508444  3
   8312   8310   8309   8331     1  0.0000000  1.0460000  1
   8312   8310   8309   8331     1  0.0000000  0.0000000  3
   8313   8314   8315   8318     1  0.0000000  0.6508444  3
   8313   8314   8320   8326     1  0.0000000  1.0460000  1
   8313   8314   8320   8326     1  0.0000000  0.6694400  3
   8313   8310   8322   8325     1  0.0000000  1.0460000  1
   8313   8310   8322   8325     1  0.0000000  0.6694400  3
   8314   8313   8321   8324     1  0.0000000  1.0460000  1
   8314   8313   8321   8324     1  0.0000000  0.6694400  3
   8315   8314   8320   8326     1  0.0000000  1.0460000  1
   8315   8314   8320   8326     1  0.0000000  0.6694400  3
   8315   8314   8313   8317     1  0.0000000  0.6508444  3
   8316   8314   8315   8319     1  0.0000000  1.0460000  1
   8316   8314   8315   8319     1  0.0000000  0.0000000  3
   8316   8314   8315   8331     1  0.0000000  1.0460000  1
   8316   8314   8315   8331     1  0.0000000  0.0000000  3
   8316   8314   8315   8318     1  0.0000000  0.6508444  3
   8316   8314   8320   8326     1  0.0000000  0.6973333  3
   8316   8314   8313   8321     1  0.0000000  1.0460000  1
   8316   8314   8313   8321     1  0.0000000  0.0000000  3
   8316   8314   8313   8317     1  0.0000000  0.6508444  3
   8317   8313   8314   8320     1  0.0000000  1.0460000  1
   8317   8313   8314   8320     1  0.0000000  0.0000000  3
   8317   8313   8321   8324     1  0.0000000  0.6973333  3
   8317   8313   8310   8322     1  0.0000000  1.0460000  1
   8317   8313   8310   8322     1  0.0000000  0.0000000  3
   8318   8315   8314   8320     1  0.0000000  0.6508444  3
   8327   8323   8329   8330     1  0.0000000  0.6973333  3
   8327   8323   8309   8331     1  0.0000000  1.0460000  1
   8327   8323   8309   8331     1  0.0000000  0.0000000  3
   8328   8323   8329   8330     1  0.0000000  0.6973333  3
   8328   8323   8309   8331     1  0.0000000  1.0460000  1
   8328   8323   8309   8331     1  0.0000000  0.0000000  3
   8332   8333   8336   8340     1  0.0000000  0.6508444  3
   8332   8333   8345   8348     1  0.0000000  1.0460000  1
   8332   8333   8345   8348     1  0.0000000  0.6694400  3
   8332   8346   8352   8353     1  0.0000000  1.0460000  1
   8332   8346   8352   8353     1  0.0000000  0.6694400  3
   8332   8354   8338   8341     1  0.0000000  1.6038667  3
   8333   8332   8346   8350     1  0.0000000  0.6508444  3
   8333   8332   8346   8351     1  0.0000000  0.6508444  3
   8333   8336   8337   8339     1  0.0000000  0.6508444  3
   8333   8336   8344   8347     1  0.0000000  1.0460000  1
   8333   8336   8344   8347     1  0.0000000  0.6694400  3
   8334   8332   8333   8336     1  0.0000000  0.6508444  3
   8334   8332   8333   8345     1  0.0000000  1.0460000  1
   8334   8332   8333   8345     1  0.0000000  0.0000000  3
   8334   8332   8333   8335     1  0.0000000  0.6508444  3
   8334   8332   8346   8352     1  0.0000000  1.0460000  1
   8334   8332   8346   8352     1  0.0000000  0.0000000  3
   8334   8332   8346   8350     1  0.0000000  0.6508444  3
   8334   8332   8346   8351     1  0.0000000  0.6508444  3
   8334   8332   8354   8338     1  0.0000000  1.6038667  3
   8335   8333   8332   8346     1  0.0000000  0.6508444  3
   8335   8333   8332   8354     1  0.0000000  1.0460000  1
   8335   8333   8332   8354     1  0.0000000  0.0000000  3
   8335   8333   8336   8337     1  0.0000000  0.6508444  3
   8335   8333   8336   8344     1  0.0000000  1.0460000  1
   8335   8333   8336   8344     1  0.0000000  0.0000000  3
   8335   8333   8336   8340     1  0.0000000  0.6508444  3
   8335   8333   8345   8348     1  0.0000000  0.6973333  3
   8336   8333   8345   8348     1  0.0000000  1.0460000  1
   8336   8333   8345   8348     1  0.0000000  0.6694400  3
   8336   8337   8338   8341     1  0.0000000  0.6508444  3
   8336   8337   8343   8349     1  0.0000000  1.0460000  1
   8336   8337   8343   8349     1  0.0000000  0.6694400  3
   8337   8336   8344   8347     1  0.0000000  1.0460000  1
   8337   8336   8344   8347     1  0.0000000  0.6694400  3
   8338   8337   8336   8340     1  0.0000000  0.6508444  3
   8338   8337   8343   8349     1  0.0000000  1.0460000  1
   8338   8337   8343   8349     1  0.0000000  0.6694400  3
   8339   8337   8336   8344     1  0.0000000  1.0460000  1
   8339   8337   8336   8344     1  0.0000000  0.0000000  3
   8339   8337   8336   8340     1  0.0000000  0.6508444  3
   8339   8337   8338   8342     1  0.0000000  1.0460000  1
   8339   8337   8338   8342     1  0.0000000  0.0000000  3
   8339   8337   8338   8354     1  0.0000000  1.0460000  1
   8339   8337   8338   8354     1  0.0000000  0.0000000  3
   8339   8337   8338   8341     1  0.0000000  0.6508444  3
   8339   8337   8343   8349     1  0.0000000  0.6973333  3
   8340   8336   8333   8345     1  0.0000000  1.0460000  1
   8340   8336   8333   8345     1  0.0000000  0.0000000  3
   8340   8336   8337   8343     1  0.0000000  1.0460000  1
   8340   8336   8337   8343     1  0.0000000  0.0000000  3
   8340   8336   8344   8347     1  0.0000000  0.6973333  3
   8341   8338   8337   8343     1  0.0000000  0.6508444  3
   8350   8346   8332   8354     1  0.0000000  1.0460000  1
   8350   8346   8332   8354     1  0.0000000  0.0000000  3
   8350   8346   8352   8353     1  0.0000000  0.6973333  3
   8351   8346   8332   8354     1  0.0000000  1.0460000  1
   8351   8346   8332   8354     1  0.0000000  0.0000000  3
   8351   8346   8352   8353     1  0.0000000  0.6973333  3
   8355   8356   8359   8363     1  0.0000000  0.6508444  3
   8355   8356   8368   8371     1  0.0000000  1.0460000  1
   8355   8356   8368   8371     1  0.0000000  0.6694400  3
   8355   8369   8375   8376     1  0.0000000  1.0460000  1
   8355   8369   8375   8376     1  0.0000000  0.6694400  3
   8355   8377   8361   8364     1  0.0000000  1.6038667  3
   8356   8359   8360   8362     1  0.0000000  0.6508444  3
   8356   8359   8367   8370     1  0.0000000  1.0460000  1
   8356   8359   8367   8370     1  0.0000000  0.6694400  3
   8356   8355   8369   8373     1  0.0000000  0.6508444  3
   8356   8355   8369   8374     1  0.0000000  0.6508444  3
   8357   8355   8356   8359     1  0.0000000  0.6508444  3
   8357   8355   8356   8368     1  0.0000000  1.0460000  1
   8357   8355   8356   8368     1  0.0000000  0.0000000  3
   8357   8355   8356   8358     1  0.0000000  0.6508444  3
   8357   8355   8369   8375     1  0.0000000  1.0460000  1
   8357   8355   8369   8375     1  0.0000000  0.0000000  3
   8357   8355   8369   8373     1  0.0000000  0.6508444  3
   8357   8355   8369   8374     1  0.0000000  0.6508444  3
   8357   8355   8377   8361     1  0.0000000  1.6038667  3
   8358   8356   8359   8360     1  0.0000000  0.6508444  3
   8358   8356   8359   8367     1  0.0000000  1.0460000  1
   8358   8356   8359   8367     1  0.0000000  0.0000000  3
   8358   8356   8359   8363     1  0.0000000  0.6508444  3
   8358   8356   8368   8371     1  0.0000000  0.6973333  3
   8358   8356   8355   8369     1  0.0000000  0.6508444  3
   8358   8356   8355   8377     1  0.0000000  1.0460000  1
   8358   8356   8355   8377     1  0.0000000  0.0000000  3
   8359   8360   8361   8364     1  0.0000000  0.6508444  3
   8359   8360   8366   8372     1  0.0000000  1.0460000  1
   8359   8360   8366   8372     1  0.0000000  0.6694400  3
   8359   8356   8368   8371     1  0.0000000  1.0460000  1
   8359   8356   8368   8371     1  0.0000000  0.6694400  3
   8360   8359   8367   8370     1  0.0000000  1.0460000  1
   8360   8359   8367   8370     1  0.0000000  0.6694400  3
   8361   8360   8366   8372     1  0.0000000  1.0460000  1
   8361   8360   8366   8372     1  0.0000000  0.6694400  3
   8361   8360   8359   8363     1  0.0000000  0.6508444  3
   8362   8360   8361   8365     1  0.0000000  1.0460000  1
   8362   8360   8361   8365     1  0.0000000  0.0000000  3
   8362   8360   8361   8377     1  0.0000000  1.0460000  1
   8362   8360   8361   8377     1  0.0000000  0.0000000  3
   8362   8360   8361   8364     1  0.0000000  0.6508444  3
   8362   8360   8366   8372     1  0.0000000  0.6973333  3
   8362   8360   8359   8367     1  0.0000000  1.0460000  1
   8362   8360   8359   8367     1  0.0000000  0.0000000  3
   8362   8360   8359   8363     1  0.0000000  0.6508444  3
   8363   8359   8360   8366     1  0.0000000  1.0460000  1
   8363   8359   8360   8366     1  0.0000000  0.0000000  3
   8363   8359   8367   8370     1  0.0000000  0.6973333  3
   8363   8359   8356   8368     1  0.0000000  1.0460000  1
   8363   8359   8356   8368     1  0.0000000  0.0000000  3
   8364   8361   8360   8366     1  0.0000000  0.6508444  3
   8373   8369   8375   8376     1  0.0000000  0.6973333  3
   8373   8369   8355   8377     1  0.0000000  1.0460000  1
   8373   8369   8355   8377     1  0.0000000  0.0000000  3
   8374   8369   8375   8376     1  0.0000000  0.6973333  3
   8374   8369   8355   8377     1  0.0000000  1.0460000  1
   8374   8369   8355   8377     1  0.0000000  0.0000000  3
   8378   8379   8382   8386     1  0.0000000  0.6508444  3
   8378   8379   8391   8394     1  0.0000000  1.0460000  1
   8378   8379   8391   8394     1  0.0000000  0.6694400  3
   8378   8392   8398   8399     1  0.0000000  1.0460000  1
   8378   8392   8398   8399     1  0.0000000  0.6694400  3
   8378   8400   8384   8387     1  0.0000000  1.6038667  3
   8379   8378   8392   8396     1  0.0000000  0.6508444  3
   8379   8378   8392   8397     1  0.0000000  0.6508444  3
   8379   8382   8383   8385     1  0.0000000  0.6508444  3
   8379   8382   8390   8393     1  0.0000000  1.0460000  1
   8379   8382   8390   8393     1  0.0000000  0.6694400  3
   8380   8378   8379   8382     1  0.0000000  0.6508444  3
   8380   8378   8379   8391     1  0.0000000  1.0460000  1
   8380   8378   8379   8391     1  0.0000000  0.0000000  3
   8380   8378   8379   8381     1  0.0000000  0.6508444  3
   8380   8378   8392   8398     1  0.0000000  1.0460000  1
   8380   8378   8392   8398     1  0.0000000  0.0000000  3
   8380   8378   8392   8396     1  0.0000000  0.6508444  3
   8380   8378   8392   8397     1  0.0000000  0.6508444  3
   8380   8378   8400   8384     1  0.0000000  1.6038667  3
   8381   8379   8378   8392     1  0.0000000  0.6508444  3
   8381   8379   8378   8400     1  0.0000000  1.0460000  1
   8381   8379   8378   8400     1  0.0000000  0.0000000  3
   8381   8379   8382   8383     1  0.0000000  0.6508444  3
   8381   8379   8382   8390     1  0.0000000  1.0460000  1
   8381   8379   8382   8390     1  0.0000000  0.0000000  3
   8381   8379   8382   8386     1  0.0000000  0.6508444  3
   8381   8379   8391   8394     1  0.0000000  0.6973333  3
   8382   8379   8391   8394     1  0.0000000  1.0460000  1
   8382   8379   8391   8394     1  0.0000000  0.6694400  3
   8382   8383   8384   8387     1  0.0000000  0.6508444  3
   8382   8383   8389   8395     1  0.0000000  1.0460000  1
   8382   8383   8389   8395     1  0.0000000  0.6694400  3
   8383   8382   8390   8393     1  0.0000000  1.0460000  1
   8383   8382   8390   8393     1  0.0000000  0.6694400  3
   8384   8383   8382   8386     1  0.0000000  0.6508444  3
   8384   8383   8389   8395     1  0.0000000  1.0460000  1
   8384   8383   8389   8395     1  0.0000000  0.6694400  3
   8385   8383   8382   8390     1  0.0000000  1.0460000  1
   8385   8383   8382   8390     1  0.0000000  0.0000000  3
   8385   8383   8382   8386     1  0.0000000  0.6508444  3
   8385   8383   8384   8388     1  0.0000000  1.0460000  1
   8385   8383   8384   8388     1  0.0000000  0.0000000  3
   8385   8383   8384   8400     1  0.0000000  1.0460000  1
   8385   8383   8384   8400     1  0.0000000  0.0000000  3
   8385   8383   8384   8387     1  0.0000000  0.6508444  3
   8385   8383   8389   8395     1  0.0000000  0.6973333  3
   8386   8382   8379   8391     1  0.0000000  1.0460000  1
   8386   8382   8379   8391     1  0.0000000  0.0000000  3
   8386   8382   8383   8389     1  0.0000000  1.0460000  1
   8386   8382   8383   8389     1  0.0000000  0.0000000  3
   8386   8382   8390   8393     1  0.0000000  0.6973333  3
   8387   8384   8383   8389     1  0.0000000  0.6508444  3
   8396   8392   8378   8400     1  0.0000000  1.0460000  1
   8396   8392   8378   8400     1  0.0000000  0.0000000  3
   8396   8392   8398   8399     1  0.0000000  0.6973333  3
   8397   8392   8378   8400     1  0.0000000  1.0460000  1
   8397   8392   8378   8400     1  0.0000000  0.0000000  3
   8397   8392   8398   8399     1  0.0000000  0.6973333  3
   8401   8402   8405   8409     1  0.0000000  0.6508444  3
   8401   8402   8414   8417     1  0.0000000  1.0460000  1
   8401   8402   8414   8417     1  0.0000000  0.6694400  3
   8401   8415   8421   8422     1  0.0000000  1.0460000  1
   8401   8415   8421   8422     1  0.0000000  0.6694400  3
   8401   8423   8407   8410     1  0.0000000  1.6038667  3
   8402   8405   8406   8408     1  0.0000000  0.6508444  3
   8402   8405   8413   8416     1  0.0000000  1.0460000  1
   8402   8405   8413   8416     1  0.0000000  0.6694400  3
   8402   8401   8415   8419     1  0.0000000  0.6508444  3
   8402   8401   8415   8420     1  0.0000000  0.6508444  3
   8403   8401   8402   8405     1  0.0000000  0.6508444  3
   8403   8401   8402   8414     1  0.0000000  1.0460000  1
   8403   8401   8402   8414     1  0.0000000  0.0000000  3
   8403   8401   8402   8404     1  0.0000000  0.6508444  3
   8403   8401   8415   8421     1  0.0000000  1.0460000  1
   8403   8401   8415   8421     1  0.0000000  0.0000000  3
   8403   8401   8415   8419     1  0.0000000  0.6508444  3
   8403   8401   8415   8420     1  0.0000000  0.6508444  3
   8403   8401   8423   8407     1  0.0000000  1.6038667  3
   8404   8402   8405   8406     1  0.0000000  0.6508444  3
   8404   8402   8405   8413     1  0.0000000  1.0460000  1
   8404   8402   8405   8413     1  0.0000000  0.0000000  3
   8404   8402   8405   8409     1  0.0000000  0.6508444  3
   8404   8402   8414   8417     1  0.0000000  0.6973333  3
   8404   8402   8401   8415     1  0.0000000  0.6508444  3
   8404   8402   8401   8423     1  0.0000000  1.0460000  1
   8404   8402   8401   8423     1  0.0000000  0.0000000  3
   8405   8406   8407   8410     1  0.0000000  0.6508444  3
   8405   8406   8412   8418     1  0.0000000  1.0460000  1
   8405   8406   8412   8418     1  0.0000000  0.6694400  3
   8405   8402   8414   8417     1  0.0000000  1.0460000  1
   8405   8402   8414   8417     1  0.0000000  0.6694400  3
   8406   8405   8413   8416     1  0.0000000  1.0460000  1
   8406   8405   8413   8416     1  0.0000000  0.6694400  3
   8407   8406   8412   8418     1  0.0000000  1.0460000  1
   8407   8406   8412   8418     1  0.0000000  0.6694400  3
   8407   8406   8405   8409     1  0.0000000  0.6508444  3
   8408   8406   8407   8411     1  0.0000000  1.0460000  1
   8408   8406   8407   8411     1  0.0000000  0.0000000  3
   8408   8406   8407   8423     1  0.0000000  1.0460000  1
   8408   8406   8407   8423     1  0.0000000  0.0000000  3
   8408   8406   8407   8410     1  0.0000000  0.6508444  3
   8408   8406   8412   8418     1  0.0000000  0.6973333  3
   8408   8406   8405   8413     1  0.0000000  1.0460000  1
   8408   8406   8405   8413     1  0.0000000  0.0000000  3
   8408   8406   8405   8409     1  0.0000000  0.6508444  3
   8409   8405   8406   8412     1  0.0000000  1.0460000  1
   8409   8405   8406   8412     1  0.0000000  0.0000000  3
   8409   8405   8413   8416     1  0.0000000  0.6973333  3
   8409   8405   8402   8414     1  0.0000000  1.0460000  1
   8409   8405   8402   8414     1  0.0000000  0.0000000  3
   8410   8407   8406   8412     1  0.0000000  0.6508444  3
   8419   8415   8421   8422     1  0.0000000  0.6973333  3
   8419   8415   8401   8423     1  0.0000000  1.0460000  1
   8419   8415   8401   8423     1  0.0000000  0.0000000  3
   8420   8415   8421   8422     1  0.0000000  0.6973333  3
   8420   8415   8401   8423     1  0.0000000  1.0460000  1
   8420   8415   8401   8423     1  0.0000000  0.0000000  3
   8424   8425   8428   8432     1  0.0000000  0.6508444  3
   8424   8425   8437   8440     1  0.0000000  1.0460000  1
   8424   8425   8437   8440     1  0.0000000  0.6694400  3
   8424   8438   8444   8445     1  0.0000000  1.0460000  1
   8424   8438   8444   8445     1  0.0000000  0.6694400  3
   8424   8446   8430   8433     1  0.0000000  1.6038667  3
   8425   8424   8438   8442     1  0.0000000  0.6508444  3
   8425   8424   8438   8443     1  0.0000000  0.6508444  3
   8425   8428   8429   8431     1  0.0000000  0.6508444  3
   8425   8428   8436   8439     1  0.0000000  1.0460000  1
   8425   8428   8436   8439     1  0.0000000  0.6694400  3
   8426   8424   8425   8428     1  0.0000000  0.6508444  3
   8426   8424   8425   8437     1  0.0000000  1.0460000  1
   8426   8424   8425   8437     1  0.0000000  0.0000000  3
   8426   8424   8425   8427     1  0.0000000  0.6508444  3
   8426   8424   8438   8444     1  0.0000000  1.0460000  1
   8426   8424   8438   8444     1  0.0000000  0.0000000  3
   8426   8424   8438   8442     1  0.0000000  0.6508444  3
   8426   8424   8438   8443     1  0.0000000  0.6508444  3
   8426   8424   8446   8430     1  0.0000000  1.6038667  3
   8427   8425   8424   8438     1  0.0000000  0.6508444  3
   8427   8425   8424   8446     1  0.0000000  1.0460000  1
   8427   8425   8424   8446     1  0.0000000  0.0000000  3
   8427   8425   8428   8429     1  0.0000000  0.6508444  3
   8427   8425   8428   8436     1  0.0000000  1.0460000  1
   8427   8425   8428   8436     1  0.0000000  0.0000000  3
   8427   8425   8428   8432     1  0.0000000  0.6508444  3
   8427   8425   8437   8440     1  0.0000000  0.6973333  3
   8428   8425   8437   8440     1  0.0000000  1.0460000  1
   8428   8425   8437   8440     1  0.0000000  0.6694400  3
   8428   8429   8430   8433     1  0.0000000  0.6508444  3
   8428   8429   8435   8441     1  0.0000000  1.0460000  1
   8428   8429   8435   8441     1  0.0000000  0.6694400  3
   8429   8428   8436   8439     1  0.0000000  1.0460000  1
   8429   8428   8436   8439     1  0.0000000  0.6694400  3
   8430   8429   8428   8432     1  0.0000000  0.6508444  3
   8430   8429   8435   8441     1  0.0000000  1.0460000  1
   8430   8429   8435   8441     1  0.0000000  0.6694400  3
   8431   8429   8428   8436     1  0.0000000  1.0460000  1
   8431   8429   8428   8436     1  0.0000000  0.0000000  3
   8431   8429   8428   8432     1  0.0000000  0.6508444  3
   8431   8429   8430   8434     1  0.0000000  1.0460000  1
   8431   8429   8430   8434     1  0.0000000  0.0000000  3
   8431   8429   8430   8446     1  0.0000000  1.0460000  1
   8431   8429   8430   8446     1  0.0000000  0.0000000  3
   8431   8429   8430   8433     1  0.0000000  0.6508444  3
   8431   8429   8435   8441     1  0.0000000  0.6973333  3
   8432   8428   8425   8437     1  0.0000000  1.0460000  1
   8432   8428   8425   8437     1  0.0000000  0.0000000  3
   8432   8428   8429   8435     1  0.0000000  1.0460000  1
   8432   8428   8429   8435     1  0.0000000  0.0000000  3
   8432   8428   8436   8439     1  0.0000000  0.6973333  3
   8433   8430   8429   8435     1  0.0000000  0.6508444  3
   8442   8438   8424   8446     1  0.0000000  1.0460000  1
   8442   8438   8424   8446     1  0.0000000  0.0000000  3
   8442   8438   8444   8445     1  0.0000000  0.6973333  3
   8443   8438   8424   8446     1  0.0000000  1.0460000  1
   8443   8438   8424   8446     1  0.0000000  0.0000000  3
   8443   8438   8444   8445     1  0.0000000  0.6973333  3
   8447   8448   8451   8455     1  0.0000000  0.6508444  3
   8447   8448   8460   8463     1  0.0000000  1.0460000  1
   8447   8448   8460   8463     1  0.0000000  0.6694400  3
   8447   8461   8467   8468     1  0.0000000  1.0460000  1
   8447   8461   8467   8468     1  0.0000000  0.6694400  3
   8447   8469   8453   8456     1  0.0000000  1.6038667  3
   8448   8451   8452   8454     1  0.0000000  0.6508444  3
   8448   8451   8459   8462     1  0.0000000  1.0460000  1
   8448   8451   8459   8462     1  0.0000000  0.6694400  3
   8448   8447   8461   8465     1  0.0000000  0.6508444  3
   8448   8447   8461   8466     1  0.0000000  0.6508444  3
   8449   8447   8448   8451     1  0.0000000  0.6508444  3
   8449   8447   8448   8460     1  0.0000000  1.0460000  1
   8449   8447   8448   8460     1  0.0000000  0.0000000  3
   8449   8447   8448   8450     1  0.0000000  0.6508444  3
   8449   8447   8461   8467     1  0.0000000  1.0460000  1
   8449   8447   8461   8467     1  0.0000000  0.0000000  3
   8449   8447   8461   8465     1  0.0000000  0.6508444  3
   8449   8447   8461   8466     1  0.0000000  0.6508444  3
   8449   8447   8469   8453     1  0.0000000  1.6038667  3
   8450   8448   8451   8452     1  0.0000000  0.6508444  3
   8450   8448   8451   8459     1  0.0000000  1.0460000  1
   8450   8448   8451   8459     1  0.0000000  0.0000000  3
   8450   8448   8451   8455     1  0.0000000  0.6508444  3
   8450   8448   8460   8463     1  0.0000000  0.6973333  3
   8450   8448   8447   8461     1  0.0000000  0.6508444  3
   8450   8448   8447   8469     1  0.0000000  1.0460000  1
   8450   8448   8447   8469     1  0.0000000  0.0000000  3
   8451   8452   8453   8456     1  0.0000000  0.6508444  3
   8451   8452   8458   8464     1  0.0000000  1.0460000  1
   8451   8452   8458   8464     1  0.0000000  0.6694400  3
   8451   8448   8460   8463     1  0.0000000  1.0460000  1
   8451   8448   8460   8463     1  0.0000000  0.6694400  3
   8452   8451   8459   8462     1  0.0000000  1.0460000  1
   8452   8451   8459   8462     1  0.0000000  0.6694400  3
   8453   8452   8458   8464     1  0.0000000  1.0460000  1
   8453   8452   8458   8464     1  0.0000000  0.6694400  3
   8453   8452   8451   8455     1  0.0000000  0.6508444  3
   8454   8452   8453   8457     1  0.0000000  1.0460000  1
   8454   8452   8453   8457     1  0.0000000  0.0000000  3
   8454   8452   8453   8469     1  0.0000000  1.0460000  1
   8454   8452   8453   8469     1  0.0000000  0.0000000  3
   8454   8452   8453   8456     1  0.0000000  0.6508444  3
   8454   8452   8458   8464     1  0.0000000  0.6973333  3
   8454   8452   8451   8459     1  0.0000000  1.0460000  1
   8454   8452   8451   8459     1  0.0000000  0.0000000  3
   8454   8452   8451   8455     1  0.0000000  0.6508444  3
   8455   8451   8452   8458     1  0.0000000  1.0460000  1
   8455   8451   8452   8458     1  0.0000000  0.0000000  3
   8455   8451   8459   8462     1  0.0000000  0.6973333  3
   8455   8451   8448   8460     1  0.0000000  1.0460000  1
   8455   8451   8448   8460     1  0.0000000  0.0000000  3
   8456   8453   8452   8458     1  0.0000000  0.6508444  3
   8465   8461   8467   8468     1  0.0000000  0.6973333  3
   8465   8461   8447   8469     1  0.0000000  1.0460000  1
   8465   8461   8447   8469     1  0.0000000  0.0000000  3
   8466   8461   8467   8468     1  0.0000000  0.6973333  3
   8466   8461   8447   8469     1  0.0000000  1.0460000  1
   8466   8461   8447   8469     1  0.0000000  0.0000000  3
   8470   8471   8474   8478     1  0.0000000  0.6508444  3
   8470   8471   8483   8486     1  0.0000000  1.0460000  1
   8470   8471   8483   8486     1  0.0000000  0.6694400  3
   8470   8484   8490   8491     1  0.0000000  1.0460000  1
   8470   8484   8490   8491     1  0.0000000  0.6694400  3
   8470   8492   8476   8479     1  0.0000000  1.6038667  3
   8471   8470   8484   8488     1  0.0000000  0.6508444  3
   8471   8470   8484   8489     1  0.0000000  0.6508444  3
   8471   8474   8475   8477     1  0.0000000  0.6508444  3
   8471   8474   8482   8485     1  0.0000000  1.0460000  1
   8471   8474   8482   8485     1  0.0000000  0.6694400  3
   8472   8470   8471   8474     1  0.0000000  0.6508444  3
   8472   8470   8471   8483     1  0.0000000  1.0460000  1
   8472   8470   8471   8483     1  0.0000000  0.0000000  3
   8472   8470   8471   8473     1  0.0000000  0.6508444  3
   8472   8470   8484   8490     1  0.0000000  1.0460000  1
   8472   8470   8484   8490     1  0.0000000  0.0000000  3
   8472   8470   8484   8488     1  0.0000000  0.6508444  3
   8472   8470   8484   8489     1  0.0000000  0.6508444  3
   8472   8470   8492   8476     1  0.0000000  1.6038667  3
   8473   8471   8470   8484     1  0.0000000  0.6508444  3
   8473   8471   8470   8492     1  0.0000000  1.0460000  1
   8473   8471   8470   8492     1  0.0000000  0.0000000  3
   8473   8471   8474   8475     1  0.0000000  0.6508444  3
   8473   8471   8474   8482     1  0.0000000  1.0460000  1
   8473   8471   8474   8482     1  0.0000000  0.0000000  3
   8473   8471   8474   8478     1  0.0000000  0.6508444  3
   8473   8471   8483   8486     1  0.0000000  0.6973333  3
   8474   8471   8483   8486     1  0.0000000  1.0460000  1
   8474   8471   8483   8486     1  0.0000000  0.6694400  3
   8474   8475   8476   8479     1  0.0000000  0.6508444  3
   8474   8475   8481   8487     1  0.0000000  1.0460000  1
   8474   8475   8481   8487     1  0.0000000  0.6694400  3
   8475   8474   8482   8485     1  0.0000000  1.0460000  1
   8475   8474   8482   8485     1  0.0000000  0.6694400  3
   8476   8475   8474   8478     1  0.0000000  0.6508444  3
   8476   8475   8481   8487     1  0.0000000  1.0460000  1
   8476   8475   8481   8487     1  0.0000000  0.6694400  3
   8477   8475   8474   8482     1  0.0000000  1.0460000  1
   8477   8475   8474   8482     1  0.0000000  0.0000000  3
   8477   8475   8474   8478     1  0.0000000  0.6508444  3
   8477   8475   8476   8480     1  0.0000000  1.0460000  1
   8477   8475   8476   8480     1  0.0000000  0.0000000  3
   8477   8475   8476   8492     1  0.0000000  1.0460000  1
   8477   8475   8476   8492     1  0.0000000  0.0000000  3
   8477   8475   8476   8479     1  0.0000000  0.6508444  3
   8477   8475   8481   8487     1  0.0000000  0.6973333  3
   8478   8474   8471   8483     1  0.0000000  1.0460000  1
   8478   8474   8471   8483     1  0.0000000  0.0000000  3
   8478   8474   8475   8481     1  0.0000000  1.0460000  1
   8478   8474   8475   8481     1  0.0000000  0.0000000  3
   8478   8474   8482   8485     1  0.0000000  0.6973333  3
   8479   8476   8475   8481     1  0.0000000  0.6508444  3
   8488   8484   8470   8492     1  0.0000000  1.0460000  1
   8488   8484   8470   8492     1  0.0000000  0.0000000  3
   8488   8484   8490   8491     1  0.0000000  0.6973333  3
   8489   8484   8470   8492     1  0.0000000  1.0460000  1
   8489   8484   8470   8492     1  0.0000000  0.0000000  3
   8489   8484   8490   8491     1  0.0000000  0.6973333  3
   8493   8494   8497   8501     1  0.0000000  0.6508444  3
   8493   8494   8506   8509     1  0.0000000  1.0460000  1
   8493   8494   8506   8509     1  0.0000000  0.6694400  3
   8493   8507   8513   8514     1  0.0000000  1.0460000  1
   8493   8507   8513   8514     1  0.0000000  0.6694400  3
   8493   8515   8499   8502     1  0.0000000  1.6038667  3
   8494   8497   8498   8500     1  0.0000000  0.6508444  3
   8494   8497   8505   8508     1  0.0000000  1.0460000  1
   8494   8497   8505   8508     1  0.0000000  0.6694400  3
   8494   8493   8507   8511     1  0.0000000  0.6508444  3
   8494   8493   8507   8512     1  0.0000000  0.6508444  3
   8495   8493   8494   8497     1  0.0000000  0.6508444  3
   8495   8493   8494   8506     1  0.0000000  1.0460000  1
   8495   8493   8494   8506     1  0.0000000  0.0000000  3
   8495   8493   8494   8496     1  0.0000000  0.6508444  3
   8495   8493   8507   8513     1  0.0000000  1.0460000  1
   8495   8493   8507   8513     1  0.0000000  0.0000000  3
   8495   8493   8507   8511     1  0.0000000  0.6508444  3
   8495   8493   8507   8512     1  0.0000000  0.6508444  3
   8495   8493   8515   8499     1  0.0000000  1.6038667  3
   8496   8494   8497   8498     1  0.0000000  0.6508444  3
   8496   8494   8497   8505     1  0.0000000  1.0460000  1
   8496   8494   8497   8505     1  0.0000000  0.0000000  3
   8496   8494   8497   8501     1  0.0000000  0.6508444  3
   8496   8494   8506   8509     1  0.0000000  0.6973333  3
   8496   8494   8493   8507     1  0.0000000  0.6508444  3
   8496   8494   8493   8515     1  0.0000000  1.0460000  1
   8496   8494   8493   8515     1  0.0000000  0.0000000  3
   8497   8498   8499   8502     1  0.0000000  0.6508444  3
   8497   8498   8504   8510     1  0.0000000  1.0460000  1
   8497   8498   8504   8510     1  0.0000000  0.6694400  3
   8497   8494   8506   8509     1  0.0000000  1.0460000  1
   8497   8494   8506   8509     1  0.0000000  0.6694400  3
   8498   8497   8505   8508     1  0.0000000  1.0460000  1
   8498   8497   8505   8508     1  0.0000000  0.6694400  3
   8499   8498   8504   8510     1  0.0000000  1.0460000  1
   8499   8498   8504   8510     1  0.0000000  0.6694400  3
   8499   8498   8497   8501     1  0.0000000  0.6508444  3
   8500   8498   8499   8503     1  0.0000000  1.0460000  1
   8500   8498   8499   8503     1  0.0000000  0.0000000  3
   8500   8498   8499   8515     1  0.0000000  1.0460000  1
   8500   8498   8499   8515     1  0.0000000  0.0000000  3
   8500   8498   8499   8502     1  0.0000000  0.6508444  3
   8500   8498   8504   8510     1  0.0000000  0.6973333  3
   8500   8498   8497   8505     1  0.0000000  1.0460000  1
   8500   8498   8497   8505     1  0.0000000  0.0000000  3
   8500   8498   8497   8501     1  0.0000000  0.6508444  3
   8501   8497   8498   8504     1  0.0000000  1.0460000  1
   8501   8497   8498   8504     1  0.0000000  0.0000000  3
   8501   8497   8505   8508     1  0.0000000  0.6973333  3
   8501   8497   8494   8506     1  0.0000000  1.0460000  1
   8501   8497   8494   8506     1  0.0000000  0.0000000  3
   8502   8499   8498   8504     1  0.0000000  0.6508444  3
   8511   8507   8513   8514     1  0.0000000  0.6973333  3
   8511   8507   8493   8515     1  0.0000000  1.0460000  1
   8511   8507   8493   8515     1  0.0000000  0.0000000  3
   8512   8507   8513   8514     1  0.0000000  0.6973333  3
   8512   8507   8493   8515     1  0.0000000  1.0460000  1
   8512   8507   8493   8515     1  0.0000000  0.0000000  3
   8516   8517   8520   8524     1  0.0000000  0.6508444  3
   8516   8517   8529   8532     1  0.0000000  1.0460000  1
   8516   8517   8529   8532     1  0.0000000  0.6694400  3
   8516   8530   8536   8537     1  0.0000000  1.0460000  1
   8516   8530   8536   8537     1  0.0000000  0.6694400  3
   8516   8538   8522   8525     1  0.0000000  1.6038667  3
   8517   8516   8530   8534     1  0.0000000  0.6508444  3
   8517   8516   8530   8535     1  0.0000000  0.6508444  3
   8517   8520   8521   8523     1  0.0000000  0.6508444  3
   8517   8520   8528   8531     1  0.0000000  1.0460000  1
   8517   8520   8528   8531     1  0.0000000  0.6694400  3
   8518   8516   8517   8520     1  0.0000000  0.6508444  3
   8518   8516   8517   8529     1  0.0000000  1.0460000  1
   8518   8516   8517   8529     1  0.0000000  0.0000000  3
   8518   8516   8517   8519     1  0.0000000  0.6508444  3
   8518   8516   8530   8536     1  0.0000000  1.0460000  1
   8518   8516   8530   8536     1  0.0000000  0.0000000  3
   8518   8516   8530   8534     1  0.0000000  0.6508444  3
   8518   8516   8530   8535     1  0.0000000  0.6508444  3
   8518   8516   8538   8522     1  0.0000000  1.6038667  3
   8519   8517   8516   8530     1  0.0000000  0.6508444  3
   8519   8517   8516   8538     1  0.0000000  1.0460000  1
   8519   8517   8516   8538     1  0.0000000  0.0000000  3
   8519   8517   8520   8521     1  0.0000000  0.6508444  3
   8519   8517   8520   8528     1  0.0000000  1.0460000  1
   8519   8517   8520   8528     1  0.0000000  0.0000000  3
   8519   8517   8520   8524     1  0.0000000  0.6508444  3
   8519   8517   8529   8532     1  0.0000000  0.6973333  3
   8520   8517   8529   8532     1  0.0000000  1.0460000  1
   8520   8517   8529   8532     1  0.0000000  0.6694400  3
   8520   8521   8522   8525     1  0.0000000  0.6508444  3
   8520   8521   8527   8533     1  0.0000000  1.0460000  1
   8520   8521   8527   8533     1  0.0000000  0.6694400  3
   8521   8520   8528   8531     1  0.0000000  1.0460000  1
   8521   8520   8528   8531     1  0.0000000  0.6694400  3
   8522   8521   8520   8524     1  0.0000000  0.6508444  3
   8522   8521   8527   8533     1  0.0000000  1.0460000  1
   8522   8521   8527   8533     1  0.0000000  0.6694400  3
   8523   8521   8520   8528     1  0.0000000  1.0460000  1
   8523   8521   8520   8528     1  0.0000000  0.0000000  3
   8523   8521   8520   8524     1  0.0000000  0.6508444  3
   8523   8521   8522   8526     1  0.0000000  1.0460000  1
   8523   8521   8522   8526     1  0.0000000  0.0000000  3
   8523   8521   8522   8538     1  0.0000000  1.0460000  1
   8523   8521   8522   8538     1  0.0000000  0.0000000  3
   8523   8521   8522   8525     1  0.0000000  0.6508444  3
   8523   8521   8527   8533     1  0.0000000  0.6973333  3
   8524   8520   8517   8529     1  0.0000000  1.0460000  1
   8524   8520   8517   8529     1  0.0000000  0.0000000  3
   8524   8520   8521   8527     1  0.0000000  1.0460000  1
   8524   8520   8521   8527     1  0.0000000  0.0000000  3
   8524   8520   8528   8531     1  0.0000000  0.6973333  3
   8525   8522   8521   8527     1  0.0000000  0.6508444  3
   8534   8530   8516   8538     1  0.0000000  1.0460000  1
   8534   8530   8516   8538     1  0.0000000  0.0000000  3
   8534   8530   8536   8537     1  0.0000000  0.6973333  3
   8535   8530   8516   8538     1  0.0000000  1.0460000  1
   8535   8530   8516   8538     1  0.0000000  0.0000000  3
   8535   8530   8536   8537     1  0.0000000  0.6973333  3
   8539   8540   8543   8547     1  0.0000000  0.6508444  3
   8539   8540   8552   8555     1  0.0000000  1.0460000  1
   8539   8540   8552   8555     1  0.0000000  0.6694400  3
   8539   8553   8559   8560     1  0.0000000  1.0460000  1
   8539   8553   8559   8560     1  0.0000000  0.6694400  3
   8539   8561   8545   8548     1  0.0000000  1.6038667  3
   8540   8543   8544   8546     1  0.0000000  0.6508444  3
   8540   8543   8551   8554     1  0.0000000  1.0460000  1
   8540   8543   8551   8554     1  0.0000000  0.6694400  3
   8540   8539   8553   8557     1  0.0000000  0.6508444  3
   8540   8539   8553   8558     1  0.0000000  0.6508444  3
   8541   8539   8540   8543     1  0.0000000  0.6508444  3
   8541   8539   8540   8552     1  0.0000000  1.0460000  1
   8541   8539   8540   8552     1  0.0000000  0.0000000  3
   8541   8539   8540   8542     1  0.0000000  0.6508444  3
   8541   8539   8553   8559     1  0.0000000  1.0460000  1
   8541   8539   8553   8559     1  0.0000000  0.0000000  3
   8541   8539   8553   8557     1  0.0000000  0.6508444  3
   8541   8539   8553   8558     1  0.0000000  0.6508444  3
   8541   8539   8561   8545     1  0.0000000  1.6038667  3
   8542   8540   8543   8544     1  0.0000000  0.6508444  3
   8542   8540   8543   8551     1  0.0000000  1.0460000  1
   8542   8540   8543   8551     1  0.0000000  0.0000000  3
   8542   8540   8543   8547     1  0.0000000  0.6508444  3
   8542   8540   8552   8555     1  0.0000000  0.6973333  3
   8542   8540   8539   8553     1  0.0000000  0.6508444  3
   8542   8540   8539   8561     1  0.0000000  1.0460000  1
   8542   8540   8539   8561     1  0.0000000  0.0000000  3
   8543   8544   8545   8548     1  0.0000000  0.6508444  3
   8543   8544   8550   8556     1  0.0000000  1.0460000  1
   8543   8544   8550   8556     1  0.0000000  0.6694400  3
   8543   8540   8552   8555     1  0.0000000  1.0460000  1
   8543   8540   8552   8555     1  0.0000000  0.6694400  3
   8544   8543   8551   8554     1  0.0000000  1.0460000  1
   8544   8543   8551   8554     1  0.0000000  0.6694400  3
   8545   8544   8550   8556     1  0.0000000  1.0460000  1
   8545   8544   8550   8556     1  0.0000000  0.6694400  3
   8545   8544   8543   8547     1  0.0000000  0.6508444  3
   8546   8544   8545   8549     1  0.0000000  1.0460000  1
   8546   8544   8545   8549     1  0.0000000  0.0000000  3
   8546   8544   8545   8561     1  0.0000000  1.0460000  1
   8546   8544   8545   8561     1  0.0000000  0.0000000  3
   8546   8544   8545   8548     1  0.0000000  0.6508444  3
   8546   8544   8550   8556     1  0.0000000  0.6973333  3
   8546   8544   8543   8551     1  0.0000000  1.0460000  1
   8546   8544   8543   8551     1  0.0000000  0.0000000  3
   8546   8544   8543   8547     1  0.0000000  0.6508444  3
   8547   8543   8544   8550     1  0.0000000  1.0460000  1
   8547   8543   8544   8550     1  0.0000000  0.0000000  3
   8547   8543   8551   8554     1  0.0000000  0.6973333  3
   8547   8543   8540   8552     1  0.0000000  1.0460000  1
   8547   8543   8540   8552     1  0.0000000  0.0000000  3
   8548   8545   8544   8550     1  0.0000000  0.6508444  3
   8557   8553   8559   8560     1  0.0000000  0.6973333  3
   8557   8553   8539   8561     1  0.0000000  1.0460000  1
   8557   8553   8539   8561     1  0.0000000  0.0000000  3
   8558   8553   8559   8560     1  0.0000000  0.6973333  3
   8558   8553   8539   8561     1  0.0000000  1.0460000  1
   8558   8553   8539   8561     1  0.0000000  0.0000000  3
   8562   8563   8566   8570     1  0.0000000  0.6508444  3
   8562   8563   8575   8578     1  0.0000000  1.0460000  1
   8562   8563   8575   8578     1  0.0000000  0.6694400  3
   8562   8576   8582   8583     1  0.0000000  1.0460000  1
   8562   8576   8582   8583     1  0.0000000  0.6694400  3
   8562   8584   8568   8571     1  0.0000000  1.6038667  3
   8563   8562   8576   8580     1  0.0000000  0.6508444  3
   8563   8562   8576   8581     1  0.0000000  0.6508444  3
   8563   8566   8567   8569     1  0.0000000  0.6508444  3
   8563   8566   8574   8577     1  0.0000000  1.0460000  1
   8563   8566   8574   8577     1  0.0000000  0.6694400  3
   8564   8562   8563   8566     1  0.0000000  0.6508444  3
   8564   8562   8563   8575     1  0.0000000  1.0460000  1
   8564   8562   8563   8575     1  0.0000000  0.0000000  3
   8564   8562   8563   8565     1  0.0000000  0.6508444  3
   8564   8562   8576   8582     1  0.0000000  1.0460000  1
   8564   8562   8576   8582     1  0.0000000  0.0000000  3
   8564   8562   8576   8580     1  0.0000000  0.6508444  3
   8564   8562   8576   8581     1  0.0000000  0.6508444  3
   8564   8562   8584   8568     1  0.0000000  1.6038667  3
   8565   8563   8562   8576     1  0.0000000  0.6508444  3
   8565   8563   8562   8584     1  0.0000000  1.0460000  1
   8565   8563   8562   8584     1  0.0000000  0.0000000  3
   8565   8563   8566   8567     1  0.0000000  0.6508444  3
   8565   8563   8566   8574     1  0.0000000  1.0460000  1
   8565   8563   8566   8574     1  0.0000000  0.0000000  3
   8565   8563   8566   8570     1  0.0000000  0.6508444  3
   8565   8563   8575   8578     1  0.0000000  0.6973333  3
   8566   8563   8575   8578     1  0.0000000  1.0460000  1
   8566   8563   8575   8578     1  0.0000000  0.6694400  3
   8566   8567   8568   8571     1  0.0000000  0.6508444  3
   8566   8567   8573   8579     1  0.0000000  1.0460000  1
   8566   8567   8573   8579     1  0.0000000  0.6694400  3
   8567   8566   8574   8577     1  0.0000000  1.0460000  1
   8567   8566   8574   8577     1  0.0000000  0.6694400  3
   8568   8567   8566   8570     1  0.0000000  0.6508444  3
   8568   8567   8573   8579     1  0.0000000  1.0460000  1
   8568   8567   8573   8579     1  0.0000000  0.6694400  3
   8569   8567   8566   8574     1  0.0000000  1.0460000  1
   8569   8567   8566   8574     1  0.0000000  0.0000000  3
   8569   8567   8566   8570     1  0.0000000  0.6508444  3
   8569   8567   8568   8572     1  0.0000000  1.0460000  1
   8569   8567   8568   8572     1  0.0000000  0.0000000  3
   8569   8567   8568   8584     1  0.0000000  1.0460000  1
   8569   8567   8568   8584     1  0.0000000  0.0000000  3
   8569   8567   8568   8571     1  0.0000000  0.6508444  3
   8569   8567   8573   8579     1  0.0000000  0.6973333  3
   8570   8566   8563   8575     1  0.0000000  1.0460000  1
   8570   8566   8563   8575     1  0.0000000  0.0000000  3
   8570   8566   8567   8573     1  0.0000000  1.0460000  1
   8570   8566   8567   8573     1  0.0000000  0.0000000  3
   8570   8566   8574   8577     1  0.0000000  0.6973333  3
   8571   8568   8567   8573     1  0.0000000  0.6508444  3
   8580   8576   8562   8584     1  0.0000000  1.0460000  1
   8580   8576   8562   8584     1  0.0000000  0.0000000  3
   8580   8576   8582   8583     1  0.0000000  0.6973333  3
   8581   8576   8562   8584     1  0.0000000  1.0460000  1
   8581   8576   8562   8584     1  0.0000000  0.0000000  3
   8581   8576   8582   8583     1  0.0000000  0.6973333  3
   8585   8586   8589   8593     1  0.0000000  0.6508444  3
   8585   8586   8598   8601     1  0.0000000  1.0460000  1
   8585   8586   8598   8601     1  0.0000000  0.6694400  3
   8585   8599   8605   8606     1  0.0000000  1.0460000  1
   8585   8599   8605   8606     1  0.0000000  0.6694400  3
   8585   8607   8591   8594     1  0.0000000  1.6038667  3
   8586   8589   8590   8592     1  0.0000000  0.6508444  3
   8586   8589   8597   8600     1  0.0000000  1.0460000  1
   8586   8589   8597   8600     1  0.0000000  0.6694400  3
   8586   8585   8599   8603     1  0.0000000  0.6508444  3
   8586   8585   8599   8604     1  0.0000000  0.6508444  3
   8587   8585   8586   8589     1  0.0000000  0.6508444  3
   8587   8585   8586   8598     1  0.0000000  1.0460000  1
   8587   8585   8586   8598     1  0.0000000  0.0000000  3
   8587   8585   8586   8588     1  0.0000000  0.6508444  3
   8587   8585   8599   8605     1  0.0000000  1.0460000  1
   8587   8585   8599   8605     1  0.0000000  0.0000000  3
   8587   8585   8599   8603     1  0.0000000  0.6508444  3
   8587   8585   8599   8604     1  0.0000000  0.6508444  3
   8587   8585   8607   8591     1  0.0000000  1.6038667  3
   8588   8586   8589   8590     1  0.0000000  0.6508444  3
   8588   8586   8589   8597     1  0.0000000  1.0460000  1
   8588   8586   8589   8597     1  0.0000000  0.0000000  3
   8588   8586   8589   8593     1  0.0000000  0.6508444  3
   8588   8586   8598   8601     1  0.0000000  0.6973333  3
   8588   8586   8585   8599     1  0.0000000  0.6508444  3
   8588   8586   8585   8607     1  0.0000000  1.0460000  1
   8588   8586   8585   8607     1  0.0000000  0.0000000  3
   8589   8590   8591   8594     1  0.0000000  0.6508444  3
   8589   8590   8596   8602     1  0.0000000  1.0460000  1
   8589   8590   8596   8602     1  0.0000000  0.6694400  3
   8589   8586   8598   8601     1  0.0000000  1.0460000  1
   8589   8586   8598   8601     1  0.0000000  0.6694400  3
   8590   8589   8597   8600     1  0.0000000  1.0460000  1
   8590   8589   8597   8600     1  0.0000000  0.6694400  3
   8591   8590   8596   8602     1  0.0000000  1.0460000  1
   8591   8590   8596   8602     1  0.0000000  0.6694400  3
   8591   8590   8589   8593     1  0.0000000  0.6508444  3
   8592   8590   8591   8595     1  0.0000000  1.0460000  1
   8592   8590   8591   8595     1  0.0000000  0.0000000  3
   8592   8590   8591   8607     1  0.0000000  1.0460000  1
   8592   8590   8591   8607     1  0.0000000  0.0000000  3
   8592   8590   8591   8594     1  0.0000000  0.6508444  3
   8592   8590   8596   8602     1  0.0000000  0.6973333  3
   8592   8590   8589   8597     1  0.0000000  1.0460000  1
   8592   8590   8589   8597     1  0.0000000  0.0000000  3
   8592   8590   8589   8593     1  0.0000000  0.6508444  3
   8593   8589   8590   8596     1  0.0000000  1.0460000  1
   8593   8589   8590   8596     1  0.0000000  0.0000000  3
   8593   8589   8597   8600     1  0.0000000  0.6973333  3
   8593   8589   8586   8598     1  0.0000000  1.0460000  1
   8593   8589   8586   8598     1  0.0000000  0.0000000  3
   8594   8591   8590   8596     1  0.0000000  0.6508444  3
   8603   8599   8605   8606     1  0.0000000  0.6973333  3
   8603   8599   8585   8607     1  0.0000000  1.0460000  1
   8603   8599   8585   8607     1  0.0000000  0.0000000  3
   8604   8599   8605   8606     1  0.0000000  0.6973333  3
   8604   8599   8585   8607     1  0.0000000  1.0460000  1
   8604   8599   8585   8607     1  0.0000000  0.0000000  3
   8608   8609   8612   8616     1  0.0000000  0.6508444  3
   8608   8609   8621   8624     1  0.0000000  1.0460000  1
   8608   8609   8621   8624     1  0.0000000  0.6694400  3
   8608   8622   8628   8629     1  0.0000000  1.0460000  1
   8608   8622   8628   8629     1  0.0000000  0.6694400  3
   8608   8630   8614   8617     1  0.0000000  1.6038667  3
   8609   8608   8622   8626     1  0.0000000  0.6508444  3
   8609   8608   8622   8627     1  0.0000000  0.6508444  3
   8609   8612   8613   8615     1  0.0000000  0.6508444  3
   8609   8612   8620   8623     1  0.0000000  1.0460000  1
   8609   8612   8620   8623     1  0.0000000  0.6694400  3
   8610   8608   8609   8612     1  0.0000000  0.6508444  3
   8610   8608   8609   8621     1  0.0000000  1.0460000  1
   8610   8608   8609   8621     1  0.0000000  0.0000000  3
   8610   8608   8609   8611     1  0.0000000  0.6508444  3
   8610   8608   8622   8628     1  0.0000000  1.0460000  1
   8610   8608   8622   8628     1  0.0000000  0.0000000  3
   8610   8608   8622   8626     1  0.0000000  0.6508444  3
   8610   8608   8622   8627     1  0.0000000  0.6508444  3
   8610   8608   8630   8614     1  0.0000000  1.6038667  3
   8611   8609   8608   8622     1  0.0000000  0.6508444  3
   8611   8609   8608   8630     1  0.0000000  1.0460000  1
   8611   8609   8608   8630     1  0.0000000  0.0000000  3
   8611   8609   8612   8613     1  0.0000000  0.6508444  3
   8611   8609   8612   8620     1  0.0000000  1.0460000  1
   8611   8609   8612   8620     1  0.0000000  0.0000000  3
   8611   8609   8612   8616     1  0.0000000  0.6508444  3
   8611   8609   8621   8624     1  0.0000000  0.6973333  3
   8612   8609   8621   8624     1  0.0000000  1.0460000  1
   8612   8609   8621   8624     1  0.0000000  0.6694400  3
   8612   8613   8614   8617     1  0.0000000  0.6508444  3
   8612   8613   8619   8625     1  0.0000000  1.0460000  1
   8612   8613   8619   8625     1  0.0000000  0.6694400  3
   8613   8612   8620   8623     1  0.0000000  1.0460000  1
   8613   8612   8620   8623     1  0.0000000  0.6694400  3
   8614   8613   8612   8616     1  0.0000000  0.6508444  3
   8614   8613   8619   8625     1  0.0000000  1.0460000  1
   8614   8613   8619   8625     1  0.0000000  0.6694400  3
   8615   8613   8612   8620     1  0.0000000  1.0460000  1
   8615   8613   8612   8620     1  0.0000000  0.0000000  3
   8615   8613   8612   8616     1  0.0000000  0.6508444  3
   8615   8613   8614   8618     1  0.0000000  1.0460000  1
   8615   8613   8614   8618     1  0.0000000  0.0000000  3
   8615   8613   8614   8630     1  0.0000000  1.0460000  1
   8615   8613   8614   8630     1  0.0000000  0.0000000  3
   8615   8613   8614   8617     1  0.0000000  0.6508444  3
   8615   8613   8619   8625     1  0.0000000  0.6973333  3
   8616   8612   8609   8621     1  0.0000000  1.0460000  1
   8616   8612   8609   8621     1  0.0000000  0.0000000  3
   8616   8612   8613   8619     1  0.0000000  1.0460000  1
   8616   8612   8613   8619     1  0.0000000  0.0000000  3
   8616   8612   8620   8623     1  0.0000000  0.6973333  3
   8617   8614   8613   8619     1  0.0000000  0.6508444  3
   8626   8622   8608   8630     1  0.0000000  1.0460000  1
   8626   8622   8608   8630     1  0.0000000  0.0000000  3
   8626   8622   8628   8629     1  0.0000000  0.6973333  3
   8627   8622   8608   8630     1  0.0000000  1.0460000  1
   8627   8622   8608   8630     1  0.0000000  0.0000000  3
   8627   8622   8628   8629     1  0.0000000  0.6973333  3
   8631   8632   8635   8639     1  0.0000000  0.6508444  3
   8631   8632   8644   8647     1  0.0000000  1.0460000  1
   8631   8632   8644   8647     1  0.0000000  0.6694400  3
   8631   8645   8651   8652     1  0.0000000  1.0460000  1
   8631   8645   8651   8652     1  0.0000000  0.6694400  3
   8631   8653   8637   8640     1  0.0000000  1.6038667  3
   8632   8635   8636   8638     1  0.0000000  0.6508444  3
   8632   8635   8643   8646     1  0.0000000  1.0460000  1
   8632   8635   8643   8646     1  0.0000000  0.6694400  3
   8632   8631   8645   8649     1  0.0000000  0.6508444  3
   8632   8631   8645   8650     1  0.0000000  0.6508444  3
   8633   8631   8632   8635     1  0.0000000  0.6508444  3
   8633   8631   8632   8644     1  0.0000000  1.0460000  1
   8633   8631   8632   8644     1  0.0000000  0.0000000  3
   8633   8631   8632   8634     1  0.0000000  0.6508444  3
   8633   8631   8645   8651     1  0.0000000  1.0460000  1
   8633   8631   8645   8651     1  0.0000000  0.0000000  3
   8633   8631   8645   8649     1  0.0000000  0.6508444  3
   8633   8631   8645   8650     1  0.0000000  0.6508444  3
   8633   8631   8653   8637     1  0.0000000  1.6038667  3
   8634   8632   8635   8636     1  0.0000000  0.6508444  3
   8634   8632   8635   8643     1  0.0000000  1.0460000  1
   8634   8632   8635   8643     1  0.0000000  0.0000000  3
   8634   8632   8635   8639     1  0.0000000  0.6508444  3
   8634   8632   8644   8647     1  0.0000000  0.6973333  3
   8634   8632   8631   8645     1  0.0000000  0.6508444  3
   8634   8632   8631   8653     1  0.0000000  1.0460000  1
   8634   8632   8631   8653     1  0.0000000  0.0000000  3
   8635   8636   8637   8640     1  0.0000000  0.6508444  3
   8635   8636   8642   8648     1  0.0000000  1.0460000  1
   8635   8636   8642   8648     1  0.0000000  0.6694400  3
   8635   8632   8644   8647     1  0.0000000  1.0460000  1
   8635   8632   8644   8647     1  0.0000000  0.6694400  3
   8636   8635   8643   8646     1  0.0000000  1.0460000  1
   8636   8635   8643   8646     1  0.0000000  0.6694400  3
   8637   8636   8642   8648     1  0.0000000  1.0460000  1
   8637   8636   8642   8648     1  0.0000000  0.6694400  3
   8637   8636   8635   8639     1  0.0000000  0.6508444  3
   8638   8636   8637   8641     1  0.0000000  1.0460000  1
   8638   8636   8637   8641     1  0.0000000  0.0000000  3
   8638   8636   8637   8653     1  0.0000000  1.0460000  1
   8638   8636   8637   8653     1  0.0000000  0.0000000  3
   8638   8636   8637   8640     1  0.0000000  0.6508444  3
   8638   8636   8642   8648     1  0.0000000  0.6973333  3
   8638   8636   8635   8643     1  0.0000000  1.0460000  1
   8638   8636   8635   8643     1  0.0000000  0.0000000  3
   8638   8636   8635   8639     1  0.0000000  0.6508444  3
   8639   8635   8636   8642     1  0.0000000  1.0460000  1
   8639   8635   8636   8642     1  0.0000000  0.0000000  3
   8639   8635   8643   8646     1  0.0000000  0.6973333  3
   8639   8635   8632   8644     1  0.0000000  1.0460000  1
   8639   8635   8632   8644     1  0.0000000  0.0000000  3
   8640   8637   8636   8642     1  0.0000000  0.6508444  3
   8649   8645   8651   8652     1  0.0000000  0.6973333  3
   8649   8645   8631   8653     1  0.0000000  1.0460000  1
   8649   8645   8631   8653     1  0.0000000  0.0000000  3
   8650   8645   8651   8652     1  0.0000000  0.6973333  3
   8650   8645   8631   8653     1  0.0000000  1.0460000  1
   8650   8645   8631   8653     1  0.0000000  0.0000000  3
   8654   8655   8658   8662     1  0.0000000  0.6508444  3
   8654   8655   8667   8670     1  0.0000000  1.0460000  1
   8654   8655   8667   8670     1  0.0000000  0.6694400  3
   8654   8668   8674   8675     1  0.0000000  1.0460000  1
   8654   8668   8674   8675     1  0.0000000  0.6694400  3
   8654   8676   8660   8663     1  0.0000000  1.6038667  3
   8655   8654   8668   8672     1  0.0000000  0.6508444  3
   8655   8654   8668   8673     1  0.0000000  0.6508444  3
   8655   8658   8659   8661     1  0.0000000  0.6508444  3
   8655   8658   8666   8669     1  0.0000000  1.0460000  1
   8655   8658   8666   8669     1  0.0000000  0.6694400  3
   8656   8654   8655   8658     1  0.0000000  0.6508444  3
   8656   8654   8655   8667     1  0.0000000  1.0460000  1
   8656   8654   8655   8667     1  0.0000000  0.0000000  3
   8656   8654   8655   8657     1  0.0000000  0.6508444  3
   8656   8654   8668   8674     1  0.0000000  1.0460000  1
   8656   8654   8668   8674     1  0.0000000  0.0000000  3
   8656   8654   8668   8672     1  0.0000000  0.6508444  3
   8656   8654   8668   8673     1  0.0000000  0.6508444  3
   8656   8654   8676   8660     1  0.0000000  1.6038667  3
   8657   8655   8654   8668     1  0.0000000  0.6508444  3
   8657   8655   8654   8676     1  0.0000000  1.0460000  1
   8657   8655   8654   8676     1  0.0000000  0.0000000  3
   8657   8655   8658   8659     1  0.0000000  0.6508444  3
   8657   8655   8658   8666     1  0.0000000  1.0460000  1
   8657   8655   8658   8666     1  0.0000000  0.0000000  3
   8657   8655   8658   8662     1  0.0000000  0.6508444  3
   8657   8655   8667   8670     1  0.0000000  0.6973333  3
   8658   8655   8667   8670     1  0.0000000  1.0460000  1
   8658   8655   8667   8670     1  0.0000000  0.6694400  3
   8658   8659   8660   8663     1  0.0000000  0.6508444  3
   8658   8659   8665   8671     1  0.0000000  1.0460000  1
   8658   8659   8665   8671     1  0.0000000  0.6694400  3
   8659   8658   8666   8669     1  0.0000000  1.0460000  1
   8659   8658   8666   8669     1  0.0000000  0.6694400  3
   8660   8659   8658   8662     1  0.0000000  0.6508444  3
   8660   8659   8665   8671     1  0.0000000  1.0460000  1
   8660   8659   8665   8671     1  0.0000000  0.6694400  3
   8661   8659   8658   8666     1  0.0000000  1.0460000  1
   8661   8659   8658   8666     1  0.0000000  0.0000000  3
   8661   8659   8658   8662     1  0.0000000  0.6508444  3
   8661   8659   8660   8664     1  0.0000000  1.0460000  1
   8661   8659   8660   8664     1  0.0000000  0.0000000  3
   8661   8659   8660   8676     1  0.0000000  1.0460000  1
   8661   8659   8660   8676     1  0.0000000  0.0000000  3
   8661   8659   8660   8663     1  0.0000000  0.6508444  3
   8661   8659   8665   8671     1  0.0000000  0.6973333  3
   8662   8658   8655   8667     1  0.0000000  1.0460000  1
   8662   8658   8655   8667     1  0.0000000  0.0000000  3
   8662   8658   8659   8665     1  0.0000000  1.0460000  1
   8662   8658   8659   8665     1  0.0000000  0.0000000  3
   8662   8658   8666   8669     1  0.0000000  0.6973333  3
   8663   8660   8659   8665     1  0.0000000  0.6508444  3
   8672   8668   8654   8676     1  0.0000000  1.0460000  1
   8672   8668   8654   8676     1  0.0000000  0.0000000  3
   8672   8668   8674   8675     1  0.0000000  0.6973333  3
   8673   8668   8654   8676     1  0.0000000  1.0460000  1
   8673   8668   8654   8676     1  0.0000000  0.0000000  3
   8673   8668   8674   8675     1  0.0000000  0.6973333  3
   8677   8678   8681   8685     1  0.0000000  0.6508444  3
   8677   8678   8690   8693     1  0.0000000  1.0460000  1
   8677   8678   8690   8693     1  0.0000000  0.6694400  3
   8677   8691   8697   8698     1  0.0000000  1.0460000  1
   8677   8691   8697   8698     1  0.0000000  0.6694400  3
   8677   8699   8683   8686     1  0.0000000  1.6038667  3
   8678   8681   8682   8684     1  0.0000000  0.6508444  3
   8678   8681   8689   8692     1  0.0000000  1.0460000  1
   8678   8681   8689   8692     1  0.0000000  0.6694400  3
   8678   8677   8691   8695     1  0.0000000  0.6508444  3
   8678   8677   8691   8696     1  0.0000000  0.6508444  3
   8679   8677   8678   8681     1  0.0000000  0.6508444  3
   8679   8677   8678   8690     1  0.0000000  1.0460000  1
   8679   8677   8678   8690     1  0.0000000  0.0000000  3
   8679   8677   8678   8680     1  0.0000000  0.6508444  3
   8679   8677   8691   8697     1  0.0000000  1.0460000  1
   8679   8677   8691   8697     1  0.0000000  0.0000000  3
   8679   8677   8691   8695     1  0.0000000  0.6508444  3
   8679   8677   8691   8696     1  0.0000000  0.6508444  3
   8679   8677   8699   8683     1  0.0000000  1.6038667  3
   8680   8678   8681   8682     1  0.0000000  0.6508444  3
   8680   8678   8681   8689     1  0.0000000  1.0460000  1
   8680   8678   8681   8689     1  0.0000000  0.0000000  3
   8680   8678   8681   8685     1  0.0000000  0.6508444  3
   8680   8678   8690   8693     1  0.0000000  0.6973333  3
   8680   8678   8677   8691     1  0.0000000  0.6508444  3
   8680   8678   8677   8699     1  0.0000000  1.0460000  1
   8680   8678   8677   8699     1  0.0000000  0.0000000  3
   8681   8682   8683   8686     1  0.0000000  0.6508444  3
   8681   8682   8688   8694     1  0.0000000  1.0460000  1
   8681   8682   8688   8694     1  0.0000000  0.6694400  3
   8681   8678   8690   8693     1  0.0000000  1.0460000  1
   8681   8678   8690   8693     1  0.0000000  0.6694400  3
   8682   8681   8689   8692     1  0.0000000  1.0460000  1
   8682   8681   8689   8692     1  0.0000000  0.6694400  3
   8683   8682   8688   8694     1  0.0000000  1.0460000  1
   8683   8682   8688   8694     1  0.0000000  0.6694400  3
   8683   8682   8681   8685     1  0.0000000  0.6508444  3
   8684   8682   8683   8687     1  0.0000000  1.0460000  1
   8684   8682   8683   8687     1  0.0000000  0.0000000  3
   8684   8682   8683   8699     1  0.0000000  1.0460000  1
   8684   8682   8683   8699     1  0.0000000  0.0000000  3
   8684   8682   8683   8686     1  0.0000000  0.6508444  3
   8684   8682   8688   8694     1  0.0000000  0.6973333  3
   8684   8682   8681   8689     1  0.0000000  1.0460000  1
   8684   8682   8681   8689     1  0.0000000  0.0000000  3
   8684   8682   8681   8685     1  0.0000000  0.6508444  3
   8685   8681   8682   8688     1  0.0000000  1.0460000  1
   8685   8681   8682   8688     1  0.0000000  0.0000000  3
   8685   8681   8689   8692     1  0.0000000  0.6973333  3
   8685   8681   8678   8690     1  0.0000000  1.0460000  1
   8685   8681   8678   8690     1  0.0000000  0.0000000  3
   8686   8683   8682   8688     1  0.0000000  0.6508444  3
   8695   8691   8697   8698     1  0.0000000  0.6973333  3
   8695   8691   8677   8699     1  0.0000000  1.0460000  1
   8695   8691   8677   8699     1  0.0000000  0.0000000  3
   8696   8691   8697   8698     1  0.0000000  0.6973333  3
   8696   8691   8677   8699     1  0.0000000  1.0460000  1
   8696   8691   8677   8699     1  0.0000000  0.0000000  3
   8700   8701   8704   8708     1  0.0000000  0.6508444  3
   8700   8701   8713   8716     1  0.0000000  1.0460000  1
   8700   8701   8713   8716     1  0.0000000  0.6694400  3
   8700   8714   8720   8721     1  0.0000000  1.0460000  1
   8700   8714   8720   8721     1  0.0000000  0.6694400  3
   8700   8722   8706   8709     1  0.0000000  1.6038667  3
   8701   8700   8714   8718     1  0.0000000  0.6508444  3
   8701   8700   8714   8719     1  0.0000000  0.6508444  3
   8701   8704   8705   8707     1  0.0000000  0.6508444  3
   8701   8704   8712   8715     1  0.0000000  1.0460000  1
   8701   8704   8712   8715     1  0.0000000  0.6694400  3
   8702   8700   8701   8704     1  0.0000000  0.6508444  3
   8702   8700   8701   8713     1  0.0000000  1.0460000  1
   8702   8700   8701   8713     1  0.0000000  0.0000000  3
   8702   8700   8701   8703     1  0.0000000  0.6508444  3
   8702   8700   8714   8720     1  0.0000000  1.0460000  1
   8702   8700   8714   8720     1  0.0000000  0.0000000  3
   8702   8700   8714   8718     1  0.0000000  0.6508444  3
   8702   8700   8714   8719     1  0.0000000  0.6508444  3
   8702   8700   8722   8706     1  0.0000000  1.6038667  3
   8703   8701   8700   8714     1  0.0000000  0.6508444  3
   8703   8701   8700   8722     1  0.0000000  1.0460000  1
   8703   8701   8700   8722     1  0.0000000  0.0000000  3
   8703   8701   8704   8705     1  0.0000000  0.6508444  3
   8703   8701   8704   8712     1  0.0000000  1.0460000  1
   8703   8701   8704   8712     1  0.0000000  0.0000000  3
   8703   8701   8704   8708     1  0.0000000  0.6508444  3
   8703   8701   8713   8716     1  0.0000000  0.6973333  3
   8704   8701   8713   8716     1  0.0000000  1.0460000  1
   8704   8701   8713   8716     1  0.0000000  0.6694400  3
   8704   8705   8706   8709     1  0.0000000  0.6508444  3
   8704   8705   8711   8717     1  0.0000000  1.0460000  1
   8704   8705   8711   8717     1  0.0000000  0.6694400  3
   8705   8704   8712   8715     1  0.0000000  1.0460000  1
   8705   8704   8712   8715     1  0.0000000  0.6694400  3
   8706   8705   8704   8708     1  0.0000000  0.6508444  3
   8706   8705   8711   8717     1  0.0000000  1.0460000  1
   8706   8705   8711   8717     1  0.0000000  0.6694400  3
   8707   8705   8704   8712     1  0.0000000  1.0460000  1
   8707   8705   8704   8712     1  0.0000000  0.0000000  3
   8707   8705   8704   8708     1  0.0000000  0.6508444  3
   8707   8705   8706   8710     1  0.0000000  1.0460000  1
   8707   8705   8706   8710     1  0.0000000  0.0000000  3
   8707   8705   8706   8722     1  0.0000000  1.0460000  1
   8707   8705   8706   8722     1  0.0000000  0.0000000  3
   8707   8705   8706   8709     1  0.0000000  0.6508444  3
   8707   8705   8711   8717     1  0.0000000  0.6973333  3
   8708   8704   8701   8713     1  0.0000000  1.0460000  1
   8708   8704   8701   8713     1  0.0000000  0.0000000  3
   8708   8704   8705   8711     1  0.0000000  1.0460000  1
   8708   8704   8705   8711     1  0.0000000  0.0000000  3
   8708   8704   8712   8715     1  0.0000000  0.6973333  3
   8709   8706   8705   8711     1  0.0000000  0.6508444  3
   8718   8714   8700   8722     1  0.0000000  1.0460000  1
   8718   8714   8700   8722     1  0.0000000  0.0000000  3
   8718   8714   8720   8721     1  0.0000000  0.6973333  3
   8719   8714   8700   8722     1  0.0000000  1.0460000  1
   8719   8714   8700   8722     1  0.0000000  0.0000000  3
   8719   8714   8720   8721     1  0.0000000  0.6973333  3
   8723   8724   8727   8731     1  0.0000000  0.6508444  3
   8723   8724   8736   8739     1  0.0000000  1.0460000  1
   8723   8724   8736   8739     1  0.0000000  0.6694400  3
   8723   8737   8743   8744     1  0.0000000  1.0460000  1
   8723   8737   8743   8744     1  0.0000000  0.6694400  3
   8723   8745   8729   8732     1  0.0000000  1.6038667  3
   8724   8727   8728   8730     1  0.0000000  0.6508444  3
   8724   8727   8735   8738     1  0.0000000  1.0460000  1
   8724   8727   8735   8738     1  0.0000000  0.6694400  3
   8724   8723   8737   8741     1  0.0000000  0.6508444  3
   8724   8723   8737   8742     1  0.0000000  0.6508444  3
   8725   8723   8724   8727     1  0.0000000  0.6508444  3
   8725   8723   8724   8736     1  0.0000000  1.0460000  1
   8725   8723   8724   8736     1  0.0000000  0.0000000  3
   8725   8723   8724   8726     1  0.0000000  0.6508444  3
   8725   8723   8737   8743     1  0.0000000  1.0460000  1
   8725   8723   8737   8743     1  0.0000000  0.0000000  3
   8725   8723   8737   8741     1  0.0000000  0.6508444  3
   8725   8723   8737   8742     1  0.0000000  0.6508444  3
   8725   8723   8745   8729     1  0.0000000  1.6038667  3
   8726   8724   8727   8728     1  0.0000000  0.6508444  3
   8726   8724   8727   8735     1  0.0000000  1.0460000  1
   8726   8724   8727   8735     1  0.0000000  0.0000000  3
   8726   8724   8727   8731     1  0.0000000  0.6508444  3
   8726   8724   8736   8739     1  0.0000000  0.6973333  3
   8726   8724   8723   8737     1  0.0000000  0.6508444  3
   8726   8724   8723   8745     1  0.0000000  1.0460000  1
   8726   8724   8723   8745     1  0.0000000  0.0000000  3
   8727   8728   8729   8732     1  0.0000000  0.6508444  3
   8727   8728   8734   8740     1  0.0000000  1.0460000  1
   8727   8728   8734   8740     1  0.0000000  0.6694400  3
   8727   8724   8736   8739     1  0.0000000  1.0460000  1
   8727   8724   8736   8739     1  0.0000000  0.6694400  3
   8728   8727   8735   8738     1  0.0000000  1.0460000  1
   8728   8727   8735   8738     1  0.0000000  0.6694400  3
   8729   8728   8734   8740     1  0.0000000  1.0460000  1
   8729   8728   8734   8740     1  0.0000000  0.6694400  3
   8729   8728   8727   8731     1  0.0000000  0.6508444  3
   8730   8728   8729   8733     1  0.0000000  1.0460000  1
   8730   8728   8729   8733     1  0.0000000  0.0000000  3
   8730   8728   8729   8745     1  0.0000000  1.0460000  1
   8730   8728   8729   8745     1  0.0000000  0.0000000  3
   8730   8728   8729   8732     1  0.0000000  0.6508444  3
   8730   8728   8734   8740     1  0.0000000  0.6973333  3
   8730   8728   8727   8735     1  0.0000000  1.0460000  1
   8730   8728   8727   8735     1  0.0000000  0.0000000  3
   8730   8728   8727   8731     1  0.0000000  0.6508444  3
   8731   8727   8728   8734     1  0.0000000  1.0460000  1
   8731   8727   8728   8734     1  0.0000000  0.0000000  3
   8731   8727   8735   8738     1  0.0000000  0.6973333  3
   8731   8727   8724   8736     1  0.0000000  1.0460000  1
   8731   8727   8724   8736     1  0.0000000  0.0000000  3
   8732   8729   8728   8734     1  0.0000000  0.6508444  3
   8741   8737   8743   8744     1  0.0000000  0.6973333  3
   8741   8737   8723   8745     1  0.0000000  1.0460000  1
   8741   8737   8723   8745     1  0.0000000  0.0000000  3
   8742   8737   8743   8744     1  0.0000000  0.6973333  3
   8742   8737   8723   8745     1  0.0000000  1.0460000  1
   8742   8737   8723   8745     1  0.0000000  0.0000000  3
   8746   8747   8750   8754     1  0.0000000  0.6508444  3
   8746   8747   8759   8762     1  0.0000000  1.0460000  1
   8746   8747   8759   8762     1  0.0000000  0.6694400  3
   8746   8760   8766   8767     1  0.0000000  1.0460000  1
   8746   8760   8766   8767     1  0.0000000  0.6694400  3
   8746   8768   8752   8755     1  0.0000000  1.6038667  3
   8747   8746   8760   8764     1  0.0000000  0.6508444  3
   8747   8746   8760   8765     1  0.0000000  0.6508444  3
   8747   8750   8751   8753     1  0.0000000  0.6508444  3
   8747   8750   8758   8761     1  0.0000000  1.0460000  1
   8747   8750   8758   8761     1  0.0000000  0.6694400  3
   8748   8746   8747   8750     1  0.0000000  0.6508444  3
   8748   8746   8747   8759     1  0.0000000  1.0460000  1
   8748   8746   8747   8759     1  0.0000000  0.0000000  3
   8748   8746   8747   8749     1  0.0000000  0.6508444  3
   8748   8746   8760   8766     1  0.0000000  1.0460000  1
   8748   8746   8760   8766     1  0.0000000  0.0000000  3
   8748   8746   8760   8764     1  0.0000000  0.6508444  3
   8748   8746   8760   8765     1  0.0000000  0.6508444  3
   8748   8746   8768   8752     1  0.0000000  1.6038667  3
   8749   8747   8746   8760     1  0.0000000  0.6508444  3
   8749   8747   8746   8768     1  0.0000000  1.0460000  1
   8749   8747   8746   8768     1  0.0000000  0.0000000  3
   8749   8747   8750   8751     1  0.0000000  0.6508444  3
   8749   8747   8750   8758     1  0.0000000  1.0460000  1
   8749   8747   8750   8758     1  0.0000000  0.0000000  3
   8749   8747   8750   8754     1  0.0000000  0.6508444  3
   8749   8747   8759   8762     1  0.0000000  0.6973333  3
   8750   8747   8759   8762     1  0.0000000  1.0460000  1
   8750   8747   8759   8762     1  0.0000000  0.6694400  3
   8750   8751   8752   8755     1  0.0000000  0.6508444  3
   8750   8751   8757   8763     1  0.0000000  1.0460000  1
   8750   8751   8757   8763     1  0.0000000  0.6694400  3
   8751   8750   8758   8761     1  0.0000000  1.0460000  1
   8751   8750   8758   8761     1  0.0000000  0.6694400  3
   8752   8751   8750   8754     1  0.0000000  0.6508444  3
   8752   8751   8757   8763     1  0.0000000  1.0460000  1
   8752   8751   8757   8763     1  0.0000000  0.6694400  3
   8753   8751   8750   8758     1  0.0000000  1.0460000  1
   8753   8751   8750   8758     1  0.0000000  0.0000000  3
   8753   8751   8750   8754     1  0.0000000  0.6508444  3
   8753   8751   8752   8756     1  0.0000000  1.0460000  1
   8753   8751   8752   8756     1  0.0000000  0.0000000  3
   8753   8751   8752   8768     1  0.0000000  1.0460000  1
   8753   8751   8752   8768     1  0.0000000  0.0000000  3
   8753   8751   8752   8755     1  0.0000000  0.6508444  3
   8753   8751   8757   8763     1  0.0000000  0.6973333  3
   8754   8750   8747   8759     1  0.0000000  1.0460000  1
   8754   8750   8747   8759     1  0.0000000  0.0000000  3
   8754   8750   8751   8757     1  0.0000000  1.0460000  1
   8754   8750   8751   8757     1  0.0000000  0.0000000  3
   8754   8750   8758   8761     1  0.0000000  0.6973333  3
   8755   8752   8751   8757     1  0.0000000  0.6508444  3
   8764   8760   8746   8768     1  0.0000000  1.0460000  1
   8764   8760   8746   8768     1  0.0000000  0.0000000  3
   8764   8760   8766   8767     1  0.0000000  0.6973333  3
   8765   8760   8746   8768     1  0.0000000  1.0460000  1
   8765   8760   8746   8768     1  0.0000000  0.0000000  3
   8765   8760   8766   8767     1  0.0000000  0.6973333  3
   8769   8770   8773   8777     1  0.0000000  0.6508444  3
   8769   8770   8782   8785     1  0.0000000  1.0460000  1
   8769   8770   8782   8785     1  0.0000000  0.6694400  3
   8769   8783   8789   8790     1  0.0000000  1.0460000  1
   8769   8783   8789   8790     1  0.0000000  0.6694400  3
   8769   8791   8775   8778     1  0.0000000  1.6038667  3
   8770   8773   8774   8776     1  0.0000000  0.6508444  3
   8770   8773   8781   8784     1  0.0000000  1.0460000  1
   8770   8773   8781   8784     1  0.0000000  0.6694400  3
   8770   8769   8783   8787     1  0.0000000  0.6508444  3
   8770   8769   8783   8788     1  0.0000000  0.6508444  3
   8771   8769   8770   8773     1  0.0000000  0.6508444  3
   8771   8769   8770   8782     1  0.0000000  1.0460000  1
   8771   8769   8770   8782     1  0.0000000  0.0000000  3
   8771   8769   8770   8772     1  0.0000000  0.6508444  3
   8771   8769   8783   8789     1  0.0000000  1.0460000  1
   8771   8769   8783   8789     1  0.0000000  0.0000000  3
   8771   8769   8783   8787     1  0.0000000  0.6508444  3
   8771   8769   8783   8788     1  0.0000000  0.6508444  3
   8771   8769   8791   8775     1  0.0000000  1.6038667  3
   8772   8770   8773   8774     1  0.0000000  0.6508444  3
   8772   8770   8773   8781     1  0.0000000  1.0460000  1
   8772   8770   8773   8781     1  0.0000000  0.0000000  3
   8772   8770   8773   8777     1  0.0000000  0.6508444  3
   8772   8770   8782   8785     1  0.0000000  0.6973333  3
   8772   8770   8769   8783     1  0.0000000  0.6508444  3
   8772   8770   8769   8791     1  0.0000000  1.0460000  1
   8772   8770   8769   8791     1  0.0000000  0.0000000  3
   8773   8774   8775   8778     1  0.0000000  0.6508444  3
   8773   8774   8780   8786     1  0.0000000  1.0460000  1
   8773   8774   8780   8786     1  0.0000000  0.6694400  3
   8773   8770   8782   8785     1  0.0000000  1.0460000  1
   8773   8770   8782   8785     1  0.0000000  0.6694400  3
   8774   8773   8781   8784     1  0.0000000  1.0460000  1
   8774   8773   8781   8784     1  0.0000000  0.6694400  3
   8775   8774   8780   8786     1  0.0000000  1.0460000  1
   8775   8774   8780   8786     1  0.0000000  0.6694400  3
   8775   8774   8773   8777     1  0.0000000  0.6508444  3
   8776   8774   8775   8779     1  0.0000000  1.0460000  1
   8776   8774   8775   8779     1  0.0000000  0.0000000  3
   8776   8774   8775   8791     1  0.0000000  1.0460000  1
   8776   8774   8775   8791     1  0.0000000  0.0000000  3
   8776   8774   8775   8778     1  0.0000000  0.6508444  3
   8776   8774   8780   8786     1  0.0000000  0.6973333  3
   8776   8774   8773   8781     1  0.0000000  1.0460000  1
   8776   8774   8773   8781     1  0.0000000  0.0000000  3
   8776   8774   8773   8777     1  0.0000000  0.6508444  3
   8777   8773   8774   8780     1  0.0000000  1.0460000  1
   8777   8773   8774   8780     1  0.0000000  0.0000000  3
   8777   8773   8781   8784     1  0.0000000  0.6973333  3
   8777   8773   8770   8782     1  0.0000000  1.0460000  1
   8777   8773   8770   8782     1  0.0000000  0.0000000  3
   8778   8775   8774   8780     1  0.0000000  0.6508444  3
   8787   8783   8789   8790     1  0.0000000  0.6973333  3
   8787   8783   8769   8791     1  0.0000000  1.0460000  1
   8787   8783   8769   8791     1  0.0000000  0.0000000  3
   8788   8783   8789   8790     1  0.0000000  0.6973333  3
   8788   8783   8769   8791     1  0.0000000  1.0460000  1
   8788   8783   8769   8791     1  0.0000000  0.0000000  3
   8792   8793   8796   8800     1  0.0000000  0.6508444  3
   8792   8793   8805   8808     1  0.0000000  1.0460000  1
   8792   8793   8805   8808     1  0.0000000  0.6694400  3
   8792   8806   8812   8813     1  0.0000000  1.0460000  1
   8792   8806   8812   8813     1  0.0000000  0.6694400  3
   8792   8814   8798   8801     1  0.0000000  1.6038667  3
   8793   8792   8806   8810     1  0.0000000  0.6508444  3
   8793   8792   8806   8811     1  0.0000000  0.6508444  3
   8793   8796   8797   8799     1  0.0000000  0.6508444  3
   8793   8796   8804   8807     1  0.0000000  1.0460000  1
   8793   8796   8804   8807     1  0.0000000  0.6694400  3
   8794   8792   8793   8796     1  0.0000000  0.6508444  3
   8794   8792   8793   8805     1  0.0000000  1.0460000  1
   8794   8792   8793   8805     1  0.0000000  0.0000000  3
   8794   8792   8793   8795     1  0.0000000  0.6508444  3
   8794   8792   8806   8812     1  0.0000000  1.0460000  1
   8794   8792   8806   8812     1  0.0000000  0.0000000  3
   8794   8792   8806   8810     1  0.0000000  0.6508444  3
   8794   8792   8806   8811     1  0.0000000  0.6508444  3
   8794   8792   8814   8798     1  0.0000000  1.6038667  3
   8795   8793   8792   8806     1  0.0000000  0.6508444  3
   8795   8793   8792   8814     1  0.0000000  1.0460000  1
   8795   8793   8792   8814     1  0.0000000  0.0000000  3
   8795   8793   8796   8797     1  0.0000000  0.6508444  3
   8795   8793   8796   8804     1  0.0000000  1.0460000  1
   8795   8793   8796   8804     1  0.0000000  0.0000000  3
   8795   8793   8796   8800     1  0.0000000  0.6508444  3
   8795   8793   8805   8808     1  0.0000000  0.6973333  3
   8796   8793   8805   8808     1  0.0000000  1.0460000  1
   8796   8793   8805   8808     1  0.0000000  0.6694400  3
   8796   8797   8798   8801     1  0.0000000  0.6508444  3
   8796   8797   8803   8809     1  0.0000000  1.0460000  1
   8796   8797   8803   8809     1  0.0000000  0.6694400  3
   8797   8796   8804   8807     1  0.0000000  1.0460000  1
   8797   8796   8804   8807     1  0.0000000  0.6694400  3
   8798   8797   8796   8800     1  0.0000000  0.6508444  3
   8798   8797   8803   8809     1  0.0000000  1.0460000  1
   8798   8797   8803   8809     1  0.0000000  0.6694400  3
   8799   8797   8796   8804     1  0.0000000  1.0460000  1
   8799   8797   8796   8804     1  0.0000000  0.0000000  3
   8799   8797   8796   8800     1  0.0000000  0.6508444  3
   8799   8797   8798   8802     1  0.0000000  1.0460000  1
   8799   8797   8798   8802     1  0.0000000  0.0000000  3
   8799   8797   8798   8814     1  0.0000000  1.0460000  1
   8799   8797   8798   8814     1  0.0000000  0.0000000  3
   8799   8797   8798   8801     1  0.0000000  0.6508444  3
   8799   8797   8803   8809     1  0.0000000  0.6973333  3
   8800   8796   8793   8805     1  0.0000000  1.0460000  1
   8800   8796   8793   8805     1  0.0000000  0.0000000  3
   8800   8796   8797   8803     1  0.0000000  1.0460000  1
   8800   8796   8797   8803     1  0.0000000  0.0000000  3
   8800   8796   8804   8807     1  0.0000000  0.6973333  3
   8801   8798   8797   8803     1  0.0000000  0.6508444  3
   8810   8806   8792   8814     1  0.0000000  1.0460000  1
   8810   8806   8792   8814     1  0.0000000  0.0000000  3
   8810   8806   8812   8813     1  0.0000000  0.6973333  3
   8811   8806   8792   8814     1  0.0000000  1.0460000  1
   8811   8806   8792   8814     1  0.0000000  0.0000000  3
   8811   8806   8812   8813     1  0.0000000  0.6973333  3
   8815   8816   8819   8823     1  0.0000000  0.6508444  3
   8815   8816   8828   8831     1  0.0000000  1.0460000  1
   8815   8816   8828   8831     1  0.0000000  0.6694400  3
   8815   8829   8835   8836     1  0.0000000  1.0460000  1
   8815   8829   8835   8836     1  0.0000000  0.6694400  3
   8815   8837   8821   8824     1  0.0000000  1.6038667  3
   8816   8819   8820   8822     1  0.0000000  0.6508444  3
   8816   8819   8827   8830     1  0.0000000  1.0460000  1
   8816   8819   8827   8830     1  0.0000000  0.6694400  3
   8816   8815   8829   8833     1  0.0000000  0.6508444  3
   8816   8815   8829   8834     1  0.0000000  0.6508444  3
   8817   8815   8816   8819     1  0.0000000  0.6508444  3
   8817   8815   8816   8828     1  0.0000000  1.0460000  1
   8817   8815   8816   8828     1  0.0000000  0.0000000  3
   8817   8815   8816   8818     1  0.0000000  0.6508444  3
   8817   8815   8829   8835     1  0.0000000  1.0460000  1
   8817   8815   8829   8835     1  0.0000000  0.0000000  3
   8817   8815   8829   8833     1  0.0000000  0.6508444  3
   8817   8815   8829   8834     1  0.0000000  0.6508444  3
   8817   8815   8837   8821     1  0.0000000  1.6038667  3
   8818   8816   8819   8820     1  0.0000000  0.6508444  3
   8818   8816   8819   8827     1  0.0000000  1.0460000  1
   8818   8816   8819   8827     1  0.0000000  0.0000000  3
   8818   8816   8819   8823     1  0.0000000  0.6508444  3
   8818   8816   8828   8831     1  0.0000000  0.6973333  3
   8818   8816   8815   8829     1  0.0000000  0.6508444  3
   8818   8816   8815   8837     1  0.0000000  1.0460000  1
   8818   8816   8815   8837     1  0.0000000  0.0000000  3
   8819   8820   8821   8824     1  0.0000000  0.6508444  3
   8819   8820   8826   8832     1  0.0000000  1.0460000  1
   8819   8820   8826   8832     1  0.0000000  0.6694400  3
   8819   8816   8828   8831     1  0.0000000  1.0460000  1
   8819   8816   8828   8831     1  0.0000000  0.6694400  3
   8820   8819   8827   8830     1  0.0000000  1.0460000  1
   8820   8819   8827   8830     1  0.0000000  0.6694400  3
   8821   8820   8826   8832     1  0.0000000  1.0460000  1
   8821   8820   8826   8832     1  0.0000000  0.6694400  3
   8821   8820   8819   8823     1  0.0000000  0.6508444  3
   8822   8820   8821   8825     1  0.0000000  1.0460000  1
   8822   8820   8821   8825     1  0.0000000  0.0000000  3
   8822   8820   8821   8837     1  0.0000000  1.0460000  1
   8822   8820   8821   8837     1  0.0000000  0.0000000  3
   8822   8820   8821   8824     1  0.0000000  0.6508444  3
   8822   8820   8826   8832     1  0.0000000  0.6973333  3
   8822   8820   8819   8827     1  0.0000000  1.0460000  1
   8822   8820   8819   8827     1  0.0000000  0.0000000  3
   8822   8820   8819   8823     1  0.0000000  0.6508444  3
   8823   8819   8820   8826     1  0.0000000  1.0460000  1
   8823   8819   8820   8826     1  0.0000000  0.0000000  3
   8823   8819   8827   8830     1  0.0000000  0.6973333  3
   8823   8819   8816   8828     1  0.0000000  1.0460000  1
   8823   8819   8816   8828     1  0.0000000  0.0000000  3
   8824   8821   8820   8826     1  0.0000000  0.6508444  3
   8833   8829   8835   8836     1  0.0000000  0.6973333  3
   8833   8829   8815   8837     1  0.0000000  1.0460000  1
   8833   8829   8815   8837     1  0.0000000  0.0000000  3
   8834   8829   8835   8836     1  0.0000000  0.6973333  3
   8834   8829   8815   8837     1  0.0000000  1.0460000  1
   8834   8829   8815   8837     1  0.0000000  0.0000000  3
   8838   8839   8842   8846     1  0.0000000  0.6508444  3
   8838   8839   8851   8854     1  0.0000000  1.0460000  1
   8838   8839   8851   8854     1  0.0000000  0.6694400  3
   8838   8852   8858   8859     1  0.0000000  1.0460000  1
   8838   8852   8858   8859     1  0.0000000  0.6694400  3
   8838   8860   8844   8847     1  0.0000000  1.6038667  3
   8839   8838   8852   8856     1  0.0000000  0.6508444  3
   8839   8838   8852   8857     1  0.0000000  0.6508444  3
   8839   8842   8843   8845     1  0.0000000  0.6508444  3
   8839   8842   8850   8853     1  0.0000000  1.0460000  1
   8839   8842   8850   8853     1  0.0000000  0.6694400  3
   8840   8838   8839   8842     1  0.0000000  0.6508444  3
   8840   8838   8839   8851     1  0.0000000  1.0460000  1
   8840   8838   8839   8851     1  0.0000000  0.0000000  3
   8840   8838   8839   8841     1  0.0000000  0.6508444  3
   8840   8838   8852   8858     1  0.0000000  1.0460000  1
   8840   8838   8852   8858     1  0.0000000  0.0000000  3
   8840   8838   8852   8856     1  0.0000000  0.6508444  3
   8840   8838   8852   8857     1  0.0000000  0.6508444  3
   8840   8838   8860   8844     1  0.0000000  1.6038667  3
   8841   8839   8838   8852     1  0.0000000  0.6508444  3
   8841   8839   8838   8860     1  0.0000000  1.0460000  1
   8841   8839   8838   8860     1  0.0000000  0.0000000  3
   8841   8839   8842   8843     1  0.0000000  0.6508444  3
   8841   8839   8842   8850     1  0.0000000  1.0460000  1
   8841   8839   8842   8850     1  0.0000000  0.0000000  3
   8841   8839   8842   8846     1  0.0000000  0.6508444  3
   8841   8839   8851   8854     1  0.0000000  0.6973333  3
   8842   8839   8851   8854     1  0.0000000  1.0460000  1
   8842   8839   8851   8854     1  0.0000000  0.6694400  3
   8842   8843   8844   8847     1  0.0000000  0.6508444  3
   8842   8843   8849   8855     1  0.0000000  1.0460000  1
   8842   8843   8849   8855     1  0.0000000  0.6694400  3
   8843   8842   8850   8853     1  0.0000000  1.0460000  1
   8843   8842   8850   8853     1  0.0000000  0.6694400  3
   8844   8843   8842   8846     1  0.0000000  0.6508444  3
   8844   8843   8849   8855     1  0.0000000  1.0460000  1
   8844   8843   8849   8855     1  0.0000000  0.6694400  3
   8845   8843   8842   8850     1  0.0000000  1.0460000  1
   8845   8843   8842   8850     1  0.0000000  0.0000000  3
   8845   8843   8842   8846     1  0.0000000  0.6508444  3
   8845   8843   8844   8848     1  0.0000000  1.0460000  1
   8845   8843   8844   8848     1  0.0000000  0.0000000  3
   8845   8843   8844   8860     1  0.0000000  1.0460000  1
   8845   8843   8844   8860     1  0.0000000  0.0000000  3
   8845   8843   8844   8847     1  0.0000000  0.6508444  3
   8845   8843   8849   8855     1  0.0000000  0.6973333  3
   8846   8842   8839   8851     1  0.0000000  1.0460000  1
   8846   8842   8839   8851     1  0.0000000  0.0000000  3
   8846   8842   8843   8849     1  0.0000000  1.0460000  1
   8846   8842   8843   8849     1  0.0000000  0.0000000  3
   8846   8842   8850   8853     1  0.0000000  0.6973333  3
   8847   8844   8843   8849     1  0.0000000  0.6508444  3
   8856   8852   8838   8860     1  0.0000000  1.0460000  1
   8856   8852   8838   8860     1  0.0000000  0.0000000  3
   8856   8852   8858   8859     1  0.0000000  0.6973333  3
   8857   8852   8838   8860     1  0.0000000  1.0460000  1
   8857   8852   8838   8860     1  0.0000000  0.0000000  3
   8857   8852   8858   8859     1  0.0000000  0.6973333  3
   8861   8862   8865   8869     1  0.0000000  0.6508444  3
   8861   8862   8874   8877     1  0.0000000  1.0460000  1
   8861   8862   8874   8877     1  0.0000000  0.6694400  3
   8861   8875   8881   8882     1  0.0000000  1.0460000  1
   8861   8875   8881   8882     1  0.0000000  0.6694400  3
   8861   8883   8867   8870     1  0.0000000  1.6038667  3
   8862   8865   8866   8868     1  0.0000000  0.6508444  3
   8862   8865   8873   8876     1  0.0000000  1.0460000  1
   8862   8865   8873   8876     1  0.0000000  0.6694400  3
   8862   8861   8875   8879     1  0.0000000  0.6508444  3
   8862   8861   8875   8880     1  0.0000000  0.6508444  3
   8863   8861   8862   8865     1  0.0000000  0.6508444  3
   8863   8861   8862   8874     1  0.0000000  1.0460000  1
   8863   8861   8862   8874     1  0.0000000  0.0000000  3
   8863   8861   8862   8864     1  0.0000000  0.6508444  3
   8863   8861   8875   8881     1  0.0000000  1.0460000  1
   8863   8861   8875   8881     1  0.0000000  0.0000000  3
   8863   8861   8875   8879     1  0.0000000  0.6508444  3
   8863   8861   8875   8880     1  0.0000000  0.6508444  3
   8863   8861   8883   8867     1  0.0000000  1.6038667  3
   8864   8862   8865   8866     1  0.0000000  0.6508444  3
   8864   8862   8865   8873     1  0.0000000  1.0460000  1
   8864   8862   8865   8873     1  0.0000000  0.0000000  3
   8864   8862   8865   8869     1  0.0000000  0.6508444  3
   8864   8862   8874   8877     1  0.0000000  0.6973333  3
   8864   8862   8861   8875     1  0.0000000  0.6508444  3
   8864   8862   8861   8883     1  0.0000000  1.0460000  1
   8864   8862   8861   8883     1  0.0000000  0.0000000  3
   8865   8866   8867   8870     1  0.0000000  0.6508444  3
   8865   8866   8872   8878     1  0.0000000  1.0460000  1
   8865   8866   8872   8878     1  0.0000000  0.6694400  3
   8865   8862   8874   8877     1  0.0000000  1.0460000  1
   8865   8862   8874   8877     1  0.0000000  0.6694400  3
   8866   8865   8873   8876     1  0.0000000  1.0460000  1
   8866   8865   8873   8876     1  0.0000000  0.6694400  3
   8867   8866   8872   8878     1  0.0000000  1.0460000  1
   8867   8866   8872   8878     1  0.0000000  0.6694400  3
   8867   8866   8865   8869     1  0.0000000  0.6508444  3
   8868   8866   8867   8871     1  0.0000000  1.0460000  1
   8868   8866   8867   8871     1  0.0000000  0.0000000  3
   8868   8866   8867   8883     1  0.0000000  1.0460000  1
   8868   8866   8867   8883     1  0.0000000  0.0000000  3
   8868   8866   8867   8870     1  0.0000000  0.6508444  3
   8868   8866   8872   8878     1  0.0000000  0.6973333  3
   8868   8866   8865   8873     1  0.0000000  1.0460000  1
   8868   8866   8865   8873     1  0.0000000  0.0000000  3
   8868   8866   8865   8869     1  0.0000000  0.6508444  3
   8869   8865   8866   8872     1  0.0000000  1.0460000  1
   8869   8865   8866   8872     1  0.0000000  0.0000000  3
   8869   8865   8873   8876     1  0.0000000  0.6973333  3
   8869   8865   8862   8874     1  0.0000000  1.0460000  1
   8869   8865   8862   8874     1  0.0000000  0.0000000  3
   8870   8867   8866   8872     1  0.0000000  0.6508444  3
   8879   8875   8881   8882     1  0.0000000  0.6973333  3
   8879   8875   8861   8883     1  0.0000000  1.0460000  1
   8879   8875   8861   8883     1  0.0000000  0.0000000  3
   8880   8875   8881   8882     1  0.0000000  0.6973333  3
   8880   8875   8861   8883     1  0.0000000  1.0460000  1
   8880   8875   8861   8883     1  0.0000000  0.0000000  3
   8884   8885   8888   8892     1  0.0000000  0.6508444  3
   8884   8885   8897   8900     1  0.0000000  1.0460000  1
   8884   8885   8897   8900     1  0.0000000  0.6694400  3
   8884   8898   8904   8905     1  0.0000000  1.0460000  1
   8884   8898   8904   8905     1  0.0000000  0.6694400  3
   8884   8906   8890   8893     1  0.0000000  1.6038667  3
   8885   8884   8898   8902     1  0.0000000  0.6508444  3
   8885   8884   8898   8903     1  0.0000000  0.6508444  3
   8885   8888   8889   8891     1  0.0000000  0.6508444  3
   8885   8888   8896   8899     1  0.0000000  1.0460000  1
   8885   8888   8896   8899     1  0.0000000  0.6694400  3
   8886   8884   8885   8888     1  0.0000000  0.6508444  3
   8886   8884   8885   8897     1  0.0000000  1.0460000  1
   8886   8884   8885   8897     1  0.0000000  0.0000000  3
   8886   8884   8885   8887     1  0.0000000  0.6508444  3
   8886   8884   8898   8904     1  0.0000000  1.0460000  1
   8886   8884   8898   8904     1  0.0000000  0.0000000  3
   8886   8884   8898   8902     1  0.0000000  0.6508444  3
   8886   8884   8898   8903     1  0.0000000  0.6508444  3
   8886   8884   8906   8890     1  0.0000000  1.6038667  3
   8887   8885   8884   8898     1  0.0000000  0.6508444  3
   8887   8885   8884   8906     1  0.0000000  1.0460000  1
   8887   8885   8884   8906     1  0.0000000  0.0000000  3
   8887   8885   8888   8889     1  0.0000000  0.6508444  3
   8887   8885   8888   8896     1  0.0000000  1.0460000  1
   8887   8885   8888   8896     1  0.0000000  0.0000000  3
   8887   8885   8888   8892     1  0.0000000  0.6508444  3
   8887   8885   8897   8900     1  0.0000000  0.6973333  3
   8888   8885   8897   8900     1  0.0000000  1.0460000  1
   8888   8885   8897   8900     1  0.0000000  0.6694400  3
   8888   8889   8890   8893     1  0.0000000  0.6508444  3
   8888   8889   8895   8901     1  0.0000000  1.0460000  1
   8888   8889   8895   8901     1  0.0000000  0.6694400  3
   8889   8888   8896   8899     1  0.0000000  1.0460000  1
   8889   8888   8896   8899     1  0.0000000  0.6694400  3
   8890   8889   8888   8892     1  0.0000000  0.6508444  3
   8890   8889   8895   8901     1  0.0000000  1.0460000  1
   8890   8889   8895   8901     1  0.0000000  0.6694400  3
   8891   8889   8888   8896     1  0.0000000  1.0460000  1
   8891   8889   8888   8896     1  0.0000000  0.0000000  3
   8891   8889   8888   8892     1  0.0000000  0.6508444  3
   8891   8889   8890   8894     1  0.0000000  1.0460000  1
   8891   8889   8890   8894     1  0.0000000  0.0000000  3
   8891   8889   8890   8906     1  0.0000000  1.0460000  1
   8891   8889   8890   8906     1  0.0000000  0.0000000  3
   8891   8889   8890   8893     1  0.0000000  0.6508444  3
   8891   8889   8895   8901     1  0.0000000  0.6973333  3
   8892   8888   8885   8897     1  0.0000000  1.0460000  1
   8892   8888   8885   8897     1  0.0000000  0.0000000  3
   8892   8888   8889   8895     1  0.0000000  1.0460000  1
   8892   8888   8889   8895     1  0.0000000  0.0000000  3
   8892   8888   8896   8899     1  0.0000000  0.6973333  3
   8893   8890   8889   8895     1  0.0000000  0.6508444  3
   8902   8898   8884   8906     1  0.0000000  1.0460000  1
   8902   8898   8884   8906     1  0.0000000  0.0000000  3
   8902   8898   8904   8905     1  0.0000000  0.6973333  3
   8903   8898   8884   8906     1  0.0000000  1.0460000  1
   8903   8898   8884   8906     1  0.0000000  0.0000000  3
   8903   8898   8904   8905     1  0.0000000  0.6973333  3
   8907   8908   8911   8915     1  0.0000000  0.6508444  3
   8907   8908   8920   8923     1  0.0000000  1.0460000  1
   8907   8908   8920   8923     1  0.0000000  0.6694400  3
   8907   8921   8927   8928     1  0.0000000  1.0460000  1
   8907   8921   8927   8928     1  0.0000000  0.6694400  3
   8907   8929   8913   8916     1  0.0000000  1.6038667  3
   8908   8911   8912   8914     1  0.0000000  0.6508444  3
   8908   8911   8919   8922     1  0.0000000  1.0460000  1
   8908   8911   8919   8922     1  0.0000000  0.6694400  3
   8908   8907   8921   8925     1  0.0000000  0.6508444  3
   8908   8907   8921   8926     1  0.0000000  0.6508444  3
   8909   8907   8908   8911     1  0.0000000  0.6508444  3
   8909   8907   8908   8920     1  0.0000000  1.0460000  1
   8909   8907   8908   8920     1  0.0000000  0.0000000  3
   8909   8907   8908   8910     1  0.0000000  0.6508444  3
   8909   8907   8921   8927     1  0.0000000  1.0460000  1
   8909   8907   8921   8927     1  0.0000000  0.0000000  3
   8909   8907   8921   8925     1  0.0000000  0.6508444  3
   8909   8907   8921   8926     1  0.0000000  0.6508444  3
   8909   8907   8929   8913     1  0.0000000  1.6038667  3
   8910   8908   8911   8912     1  0.0000000  0.6508444  3
   8910   8908   8911   8919     1  0.0000000  1.0460000  1
   8910   8908   8911   8919     1  0.0000000  0.0000000  3
   8910   8908   8911   8915     1  0.0000000  0.6508444  3
   8910   8908   8920   8923     1  0.0000000  0.6973333  3
   8910   8908   8907   8921     1  0.0000000  0.6508444  3
   8910   8908   8907   8929     1  0.0000000  1.0460000  1
   8910   8908   8907   8929     1  0.0000000  0.0000000  3
   8911   8912   8913   8916     1  0.0000000  0.6508444  3
   8911   8912   8918   8924     1  0.0000000  1.0460000  1
   8911   8912   8918   8924     1  0.0000000  0.6694400  3
   8911   8908   8920   8923     1  0.0000000  1.0460000  1
   8911   8908   8920   8923     1  0.0000000  0.6694400  3
   8912   8911   8919   8922     1  0.0000000  1.0460000  1
   8912   8911   8919   8922     1  0.0000000  0.6694400  3
   8913   8912   8918   8924     1  0.0000000  1.0460000  1
   8913   8912   8918   8924     1  0.0000000  0.6694400  3
   8913   8912   8911   8915     1  0.0000000  0.6508444  3
   8914   8912   8913   8917     1  0.0000000  1.0460000  1
   8914   8912   8913   8917     1  0.0000000  0.0000000  3
   8914   8912   8913   8929     1  0.0000000  1.0460000  1
   8914   8912   8913   8929     1  0.0000000  0.0000000  3
   8914   8912   8913   8916     1  0.0000000  0.6508444  3
   8914   8912   8918   8924     1  0.0000000  0.6973333  3
   8914   8912   8911   8919     1  0.0000000  1.0460000  1
   8914   8912   8911   8919     1  0.0000000  0.0000000  3
   8914   8912   8911   8915     1  0.0000000  0.6508444  3
   8915   8911   8912   8918     1  0.0000000  1.0460000  1
   8915   8911   8912   8918     1  0.0000000  0.0000000  3
   8915   8911   8919   8922     1  0.0000000  0.6973333  3
   8915   8911   8908   8920     1  0.0000000  1.0460000  1
   8915   8911   8908   8920     1  0.0000000  0.0000000  3
   8916   8913   8912   8918     1  0.0000000  0.6508444  3
   8925   8921   8927   8928     1  0.0000000  0.6973333  3
   8925   8921   8907   8929     1  0.0000000  1.0460000  1
   8925   8921   8907   8929     1  0.0000000  0.0000000  3
   8926   8921   8927   8928     1  0.0000000  0.6973333  3
   8926   8921   8907   8929     1  0.0000000  1.0460000  1
   8926   8921   8907   8929     1  0.0000000  0.0000000  3
   8930   8931   8934   8938     1  0.0000000  0.6508444  3
   8930   8931   8943   8946     1  0.0000000  1.0460000  1
   8930   8931   8943   8946     1  0.0000000  0.6694400  3
   8930   8944   8950   8951     1  0.0000000  1.0460000  1
   8930   8944   8950   8951     1  0.0000000  0.6694400  3
   8930   8952   8936   8939     1  0.0000000  1.6038667  3
   8931   8930   8944   8948     1  0.0000000  0.6508444  3
   8931   8930   8944   8949     1  0.0000000  0.6508444  3
   8931   8934   8935   8937     1  0.0000000  0.6508444  3
   8931   8934   8942   8945     1  0.0000000  1.0460000  1
   8931   8934   8942   8945     1  0.0000000  0.6694400  3
   8932   8930   8931   8934     1  0.0000000  0.6508444  3
   8932   8930   8931   8943     1  0.0000000  1.0460000  1
   8932   8930   8931   8943     1  0.0000000  0.0000000  3
   8932   8930   8931   8933     1  0.0000000  0.6508444  3
   8932   8930   8944   8950     1  0.0000000  1.0460000  1
   8932   8930   8944   8950     1  0.0000000  0.0000000  3
   8932   8930   8944   8948     1  0.0000000  0.6508444  3
   8932   8930   8944   8949     1  0.0000000  0.6508444  3
   8932   8930   8952   8936     1  0.0000000  1.6038667  3
   8933   8931   8930   8944     1  0.0000000  0.6508444  3
   8933   8931   8930   8952     1  0.0000000  1.0460000  1
   8933   8931   8930   8952     1  0.0000000  0.0000000  3
   8933   8931   8934   8935     1  0.0000000  0.6508444  3
   8933   8931   8934   8942     1  0.0000000  1.0460000  1
   8933   8931   8934   8942     1  0.0000000  0.0000000  3
   8933   8931   8934   8938     1  0.0000000  0.6508444  3
   8933   8931   8943   8946     1  0.0000000  0.6973333  3
   8934   8931   8943   8946     1  0.0000000  1.0460000  1
   8934   8931   8943   8946     1  0.0000000  0.6694400  3
   8934   8935   8936   8939     1  0.0000000  0.6508444  3
   8934   8935   8941   8947     1  0.0000000  1.0460000  1
   8934   8935   8941   8947     1  0.0000000  0.6694400  3
   8935   8934   8942   8945     1  0.0000000  1.0460000  1
   8935   8934   8942   8945     1  0.0000000  0.6694400  3
   8936   8935   8934   8938     1  0.0000000  0.6508444  3
   8936   8935   8941   8947     1  0.0000000  1.0460000  1
   8936   8935   8941   8947     1  0.0000000  0.6694400  3
   8937   8935   8934   8942     1  0.0000000  1.0460000  1
   8937   8935   8934   8942     1  0.0000000  0.0000000  3
   8937   8935   8934   8938     1  0.0000000  0.6508444  3
   8937   8935   8936   8940     1  0.0000000  1.0460000  1
   8937   8935   8936   8940     1  0.0000000  0.0000000  3
   8937   8935   8936   8952     1  0.0000000  1.0460000  1
   8937   8935   8936   8952     1  0.0000000  0.0000000  3
   8937   8935   8936   8939     1  0.0000000  0.6508444  3
   8937   8935   8941   8947     1  0.0000000  0.6973333  3
   8938   8934   8931   8943     1  0.0000000  1.0460000  1
   8938   8934   8931   8943     1  0.0000000  0.0000000  3
   8938   8934   8935   8941     1  0.0000000  1.0460000  1
   8938   8934   8935   8941     1  0.0000000  0.0000000  3
   8938   8934   8942   8945     1  0.0000000  0.6973333  3
   8939   8936   8935   8941     1  0.0000000  0.6508444  3
   8948   8944   8930   8952     1  0.0000000  1.0460000  1
   8948   8944   8930   8952     1  0.0000000  0.0000000  3
   8948   8944   8950   8951     1  0.0000000  0.6973333  3
   8949   8944   8930   8952     1  0.0000000  1.0460000  1
   8949   8944   8930   8952     1  0.0000000  0.0000000  3
   8949   8944   8950   8951     1  0.0000000  0.6973333  3
   8953   8954   8957   8961     1  0.0000000  0.6508444  3
   8953   8954   8966   8969     1  0.0000000  1.0460000  1
   8953   8954   8966   8969     1  0.0000000  0.6694400  3
   8953   8967   8973   8974     1  0.0000000  1.0460000  1
   8953   8967   8973   8974     1  0.0000000  0.6694400  3
   8953   8975   8959   8962     1  0.0000000  1.6038667  3
   8954   8957   8958   8960     1  0.0000000  0.6508444  3
   8954   8957   8965   8968     1  0.0000000  1.0460000  1
   8954   8957   8965   8968     1  0.0000000  0.6694400  3
   8954   8953   8967   8971     1  0.0000000  0.6508444  3
   8954   8953   8967   8972     1  0.0000000  0.6508444  3
   8955   8953   8954   8957     1  0.0000000  0.6508444  3
   8955   8953   8954   8966     1  0.0000000  1.0460000  1
   8955   8953   8954   8966     1  0.0000000  0.0000000  3
   8955   8953   8954   8956     1  0.0000000  0.6508444  3
   8955   8953   8967   8973     1  0.0000000  1.0460000  1
   8955   8953   8967   8973     1  0.0000000  0.0000000  3
   8955   8953   8967   8971     1  0.0000000  0.6508444  3
   8955   8953   8967   8972     1  0.0000000  0.6508444  3
   8955   8953   8975   8959     1  0.0000000  1.6038667  3
   8956   8954   8957   8958     1  0.0000000  0.6508444  3
   8956   8954   8957   8965     1  0.0000000  1.0460000  1
   8956   8954   8957   8965     1  0.0000000  0.0000000  3
   8956   8954   8957   8961     1  0.0000000  0.6508444  3
   8956   8954   8966   8969     1  0.0000000  0.6973333  3
   8956   8954   8953   8967     1  0.0000000  0.6508444  3
   8956   8954   8953   8975     1  0.0000000  1.0460000  1
   8956   8954   8953   8975     1  0.0000000  0.0000000  3
   8957   8958   8959   8962     1  0.0000000  0.6508444  3
   8957   8958   8964   8970     1  0.0000000  1.0460000  1
   8957   8958   8964   8970     1  0.0000000  0.6694400  3
   8957   8954   8966   8969     1  0.0000000  1.0460000  1
   8957   8954   8966   8969     1  0.0000000  0.6694400  3
   8958   8957   8965   8968     1  0.0000000  1.0460000  1
   8958   8957   8965   8968     1  0.0000000  0.6694400  3
   8959   8958   8964   8970     1  0.0000000  1.0460000  1
   8959   8958   8964   8970     1  0.0000000  0.6694400  3
   8959   8958   8957   8961     1  0.0000000  0.6508444  3
   8960   8958   8959   8963     1  0.0000000  1.0460000  1
   8960   8958   8959   8963     1  0.0000000  0.0000000  3
   8960   8958   8959   8975     1  0.0000000  1.0460000  1
   8960   8958   8959   8975     1  0.0000000  0.0000000  3
   8960   8958   8959   8962     1  0.0000000  0.6508444  3
   8960   8958   8964   8970     1  0.0000000  0.6973333  3
   8960   8958   8957   8965     1  0.0000000  1.0460000  1
   8960   8958   8957   8965     1  0.0000000  0.0000000  3
   8960   8958   8957   8961     1  0.0000000  0.6508444  3
   8961   8957   8958   8964     1  0.0000000  1.0460000  1
   8961   8957   8958   8964     1  0.0000000  0.0000000  3
   8961   8957   8965   8968     1  0.0000000  0.6973333  3
   8961   8957   8954   8966     1  0.0000000  1.0460000  1
   8961   8957   8954   8966     1  0.0000000  0.0000000  3
   8962   8959   8958   8964     1  0.0000000  0.6508444  3
   8971   8967   8973   8974     1  0.0000000  0.6973333  3
   8971   8967   8953   8975     1  0.0000000  1.0460000  1
   8971   8967   8953   8975     1  0.0000000  0.0000000  3
   8972   8967   8973   8974     1  0.0000000  0.6973333  3
   8972   8967   8953   8975     1  0.0000000  1.0460000  1
   8972   8967   8953   8975     1  0.0000000  0.0000000  3
   8976   8977   8980   8984     1  0.0000000  0.6508444  3
   8976   8977   8989   8992     1  0.0000000  1.0460000  1
   8976   8977   8989   8992     1  0.0000000  0.6694400  3
   8976   8990   8996   8997     1  0.0000000  1.0460000  1
   8976   8990   8996   8997     1  0.0000000  0.6694400  3
   8976   8998   8982   8985     1  0.0000000  1.6038667  3
   8977   8976   8990   8994     1  0.0000000  0.6508444  3
   8977   8976   8990   8995     1  0.0000000  0.6508444  3
   8977   8980   8981   8983     1  0.0000000  0.6508444  3
   8977   8980   8988   8991     1  0.0000000  1.0460000  1
   8977   8980   8988   8991     1  0.0000000  0.6694400  3
   8978   8976   8977   8980     1  0.0000000  0.6508444  3
   8978   8976   8977   8989     1  0.0000000  1.0460000  1
   8978   8976   8977   8989     1  0.0000000  0.0000000  3
   8978   8976   8977   8979     1  0.0000000  0.6508444  3
   8978   8976   8990   8996     1  0.0000000  1.0460000  1
   8978   8976   8990   8996     1  0.0000000  0.0000000  3
   8978   8976   8990   8994     1  0.0000000  0.6508444  3
   8978   8976   8990   8995     1  0.0000000  0.6508444  3
   8978   8976   8998   8982     1  0.0000000  1.6038667  3
   8979   8977   8976   8990     1  0.0000000  0.6508444  3
   8979   8977   8976   8998     1  0.0000000  1.0460000  1
   8979   8977   8976   8998     1  0.0000000  0.0000000  3
   8979   8977   8980   8981     1  0.0000000  0.6508444  3
   8979   8977   8980   8988     1  0.0000000  1.0460000  1
   8979   8977   8980   8988     1  0.0000000  0.0000000  3
   8979   8977   8980   8984     1  0.0000000  0.6508444  3
   8979   8977   8989   8992     1  0.0000000  0.6973333  3
   8980   8977   8989   8992     1  0.0000000  1.0460000  1
   8980   8977   8989   8992     1  0.0000000  0.6694400  3
   8980   8981   8982   8985     1  0.0000000  0.6508444  3
   8980   8981   8987   8993     1  0.0000000  1.0460000  1
   8980   8981   8987   8993     1  0.0000000  0.6694400  3
   8981   8980   8988   8991     1  0.0000000  1.0460000  1
   8981   8980   8988   8991     1  0.0000000  0.6694400  3
   8982   8981   8980   8984     1  0.0000000  0.6508444  3
   8982   8981   8987   8993     1  0.0000000  1.0460000  1
   8982   8981   8987   8993     1  0.0000000  0.6694400  3
   8983   8981   8980   8988     1  0.0000000  1.0460000  1
   8983   8981   8980   8988     1  0.0000000  0.0000000  3
   8983   8981   8980   8984     1  0.0000000  0.6508444  3
   8983   8981   8982   8986     1  0.0000000  1.0460000  1
   8983   8981   8982   8986     1  0.0000000  0.0000000  3
   8983   8981   8982   8998     1  0.0000000  1.0460000  1
   8983   8981   8982   8998     1  0.0000000  0.0000000  3
   8983   8981   8982   8985     1  0.0000000  0.6508444  3
   8983   8981   8987   8993     1  0.0000000  0.6973333  3
   8984   8980   8977   8989     1  0.0000000  1.0460000  1
   8984   8980   8977   8989     1  0.0000000  0.0000000  3
   8984   8980   8981   8987     1  0.0000000  1.0460000  1
   8984   8980   8981   8987     1  0.0000000  0.0000000  3
   8984   8980   8988   8991     1  0.0000000  0.6973333  3
   8985   8982   8981   8987     1  0.0000000  0.6508444  3
   8994   8990   8976   8998     1  0.0000000  1.0460000  1
   8994   8990   8976   8998     1  0.0000000  0.0000000  3
   8994   8990   8996   8997     1  0.0000000  0.6973333  3
   8995   8990   8976   8998     1  0.0000000  1.0460000  1
   8995   8990   8976   8998     1  0.0000000  0.0000000  3
   8995   8990   8996   8997     1  0.0000000  0.6973333  3
   8999   9000   9003   9007     1  0.0000000  0.6508444  3
   8999   9000   9012   9015     1  0.0000000  1.0460000  1
   8999   9000   9012   9015     1  0.0000000  0.6694400  3
   8999   9013   9019   9020     1  0.0000000  1.0460000  1
   8999   9013   9019   9020     1  0.0000000  0.6694400  3
   8999   9021   9005   9008     1  0.0000000  1.6038667  3
   9000   9003   9004   9006     1  0.0000000  0.6508444  3
   9000   9003   9011   9014     1  0.0000000  1.0460000  1
   9000   9003   9011   9014     1  0.0000000  0.6694400  3
   9000   8999   9013   9017     1  0.0000000  0.6508444  3
   9000   8999   9013   9018     1  0.0000000  0.6508444  3
   9001   8999   9000   9003     1  0.0000000  0.6508444  3
   9001   8999   9000   9012     1  0.0000000  1.0460000  1
   9001   8999   9000   9012     1  0.0000000  0.0000000  3
   9001   8999   9000   9002     1  0.0000000  0.6508444  3
   9001   8999   9013   9019     1  0.0000000  1.0460000  1
   9001   8999   9013   9019     1  0.0000000  0.0000000  3
   9001   8999   9013   9017     1  0.0000000  0.6508444  3
   9001   8999   9013   9018     1  0.0000000  0.6508444  3
   9001   8999   9021   9005     1  0.0000000  1.6038667  3
   9002   9000   9003   9004     1  0.0000000  0.6508444  3
   9002   9000   9003   9011     1  0.0000000  1.0460000  1
   9002   9000   9003   9011     1  0.0000000  0.0000000  3
   9002   9000   9003   9007     1  0.0000000  0.6508444  3
   9002   9000   9012   9015     1  0.0000000  0.6973333  3
   9002   9000   8999   9013     1  0.0000000  0.6508444  3
   9002   9000   8999   9021     1  0.0000000  1.0460000  1
   9002   9000   8999   9021     1  0.0000000  0.0000000  3
   9003   9004   9005   9008     1  0.0000000  0.6508444  3
   9003   9004   9010   9016     1  0.0000000  1.0460000  1
   9003   9004   9010   9016     1  0.0000000  0.6694400  3
   9003   9000   9012   9015     1  0.0000000  1.0460000  1
   9003   9000   9012   9015     1  0.0000000  0.6694400  3
   9004   9003   9011   9014     1  0.0000000  1.0460000  1
   9004   9003   9011   9014     1  0.0000000  0.6694400  3
   9005   9004   9010   9016     1  0.0000000  1.0460000  1
   9005   9004   9010   9016     1  0.0000000  0.6694400  3
   9005   9004   9003   9007     1  0.0000000  0.6508444  3
   9006   9004   9005   9009     1  0.0000000  1.0460000  1
   9006   9004   9005   9009     1  0.0000000  0.0000000  3
   9006   9004   9005   9021     1  0.0000000  1.0460000  1
   9006   9004   9005   9021     1  0.0000000  0.0000000  3
   9006   9004   9005   9008     1  0.0000000  0.6508444  3
   9006   9004   9010   9016     1  0.0000000  0.6973333  3
   9006   9004   9003   9011     1  0.0000000  1.0460000  1
   9006   9004   9003   9011     1  0.0000000  0.0000000  3
   9006   9004   9003   9007     1  0.0000000  0.6508444  3
   9007   9003   9004   9010     1  0.0000000  1.0460000  1
   9007   9003   9004   9010     1  0.0000000  0.0000000  3
   9007   9003   9011   9014     1  0.0000000  0.6973333  3
   9007   9003   9000   9012     1  0.0000000  1.0460000  1
   9007   9003   9000   9012     1  0.0000000  0.0000000  3
   9008   9005   9004   9010     1  0.0000000  0.6508444  3
   9017   9013   9019   9020     1  0.0000000  0.6973333  3
   9017   9013   8999   9021     1  0.0000000  1.0460000  1
   9017   9013   8999   9021     1  0.0000000  0.0000000  3
   9018   9013   9019   9020     1  0.0000000  0.6973333  3
   9018   9013   8999   9021     1  0.0000000  1.0460000  1
   9018   9013   8999   9021     1  0.0000000  0.0000000  3
   9022   9023   9026   9030     1  0.0000000  0.6508444  3
   9022   9023   9035   9038     1  0.0000000  1.0460000  1
   9022   9023   9035   9038     1  0.0000000  0.6694400  3
   9022   9036   9042   9043     1  0.0000000  1.0460000  1
   9022   9036   9042   9043     1  0.0000000  0.6694400  3
   9022   9044   9028   9031     1  0.0000000  1.6038667  3
   9023   9022   9036   9040     1  0.0000000  0.6508444  3
   9023   9022   9036   9041     1  0.0000000  0.6508444  3
   9023   9026   9027   9029     1  0.0000000  0.6508444  3
   9023   9026   9034   9037     1  0.0000000  1.0460000  1
   9023   9026   9034   9037     1  0.0000000  0.6694400  3
   9024   9022   9023   9026     1  0.0000000  0.6508444  3
   9024   9022   9023   9035     1  0.0000000  1.0460000  1
   9024   9022   9023   9035     1  0.0000000  0.0000000  3
   9024   9022   9023   9025     1  0.0000000  0.6508444  3
   9024   9022   9036   9042     1  0.0000000  1.0460000  1
   9024   9022   9036   9042     1  0.0000000  0.0000000  3
   9024   9022   9036   9040     1  0.0000000  0.6508444  3
   9024   9022   9036   9041     1  0.0000000  0.6508444  3
   9024   9022   9044   9028     1  0.0000000  1.6038667  3
   9025   9023   9022   9036     1  0.0000000  0.6508444  3
   9025   9023   9022   9044     1  0.0000000  1.0460000  1
   9025   9023   9022   9044     1  0.0000000  0.0000000  3
   9025   9023   9026   9027     1  0.0000000  0.6508444  3
   9025   9023   9026   9034     1  0.0000000  1.0460000  1
   9025   9023   9026   9034     1  0.0000000  0.0000000  3
   9025   9023   9026   9030     1  0.0000000  0.6508444  3
   9025   9023   9035   9038     1  0.0000000  0.6973333  3
   9026   9023   9035   9038     1  0.0000000  1.0460000  1
   9026   9023   9035   9038     1  0.0000000  0.6694400  3
   9026   9027   9028   9031     1  0.0000000  0.6508444  3
   9026   9027   9033   9039     1  0.0000000  1.0460000  1
   9026   9027   9033   9039     1  0.0000000  0.6694400  3
   9027   9026   9034   9037     1  0.0000000  1.0460000  1
   9027   9026   9034   9037     1  0.0000000  0.6694400  3
   9028   9027   9026   9030     1  0.0000000  0.6508444  3
   9028   9027   9033   9039     1  0.0000000  1.0460000  1
   9028   9027   9033   9039     1  0.0000000  0.6694400  3
   9029   9027   9026   9034     1  0.0000000  1.0460000  1
   9029   9027   9026   9034     1  0.0000000  0.0000000  3
   9029   9027   9026   9030     1  0.0000000  0.6508444  3
   9029   9027   9028   9032     1  0.0000000  1.0460000  1
   9029   9027   9028   9032     1  0.0000000  0.0000000  3
   9029   9027   9028   9044     1  0.0000000  1.0460000  1
   9029   9027   9028   9044     1  0.0000000  0.0000000  3
   9029   9027   9028   9031     1  0.0000000  0.6508444  3
   9029   9027   9033   9039     1  0.0000000  0.6973333  3
   9030   9026   9023   9035     1  0.0000000  1.0460000  1
   9030   9026   9023   9035     1  0.0000000  0.0000000  3
   9030   9026   9027   9033     1  0.0000000  1.0460000  1
   9030   9026   9027   9033     1  0.0000000  0.0000000  3
   9030   9026   9034   9037     1  0.0000000  0.6973333  3
   9031   9028   9027   9033     1  0.0000000  0.6508444  3
   9040   9036   9022   9044     1  0.0000000  1.0460000  1
   9040   9036   9022   9044     1  0.0000000  0.0000000  3
   9040   9036   9042   9043     1  0.0000000  0.6973333  3
   9041   9036   9022   9044     1  0.0000000  1.0460000  1
   9041   9036   9022   9044     1  0.0000000  0.0000000  3
   9041   9036   9042   9043     1  0.0000000  0.6973333  3
   9045   9046   9049   9053     1  0.0000000  0.6508444  3
   9045   9046   9058   9061     1  0.0000000  1.0460000  1
   9045   9046   9058   9061     1  0.0000000  0.6694400  3
   9045   9059   9065   9066     1  0.0000000  1.0460000  1
   9045   9059   9065   9066     1  0.0000000  0.6694400  3
   9045   9067   9051   9054     1  0.0000000  1.6038667  3
   9046   9049   9050   9052     1  0.0000000  0.6508444  3
   9046   9049   9057   9060     1  0.0000000  1.0460000  1
   9046   9049   9057   9060     1  0.0000000  0.6694400  3
   9046   9045   9059   9063     1  0.0000000  0.6508444  3
   9046   9045   9059   9064     1  0.0000000  0.6508444  3
   9047   9045   9046   9049     1  0.0000000  0.6508444  3
   9047   9045   9046   9058     1  0.0000000  1.0460000  1
   9047   9045   9046   9058     1  0.0000000  0.0000000  3
   9047   9045   9046   9048     1  0.0000000  0.6508444  3
   9047   9045   9059   9065     1  0.0000000  1.0460000  1
   9047   9045   9059   9065     1  0.0000000  0.0000000  3
   9047   9045   9059   9063     1  0.0000000  0.6508444  3
   9047   9045   9059   9064     1  0.0000000  0.6508444  3
   9047   9045   9067   9051     1  0.0000000  1.6038667  3
   9048   9046   9049   9050     1  0.0000000  0.6508444  3
   9048   9046   9049   9057     1  0.0000000  1.0460000  1
   9048   9046   9049   9057     1  0.0000000  0.0000000  3
   9048   9046   9049   9053     1  0.0000000  0.6508444  3
   9048   9046   9058   9061     1  0.0000000  0.6973333  3
   9048   9046   9045   9059     1  0.0000000  0.6508444  3
   9048   9046   9045   9067     1  0.0000000  1.0460000  1
   9048   9046   9045   9067     1  0.0000000  0.0000000  3
   9049   9050   9051   9054     1  0.0000000  0.6508444  3
   9049   9050   9056   9062     1  0.0000000  1.0460000  1
   9049   9050   9056   9062     1  0.0000000  0.6694400  3
   9049   9046   9058   9061     1  0.0000000  1.0460000  1
   9049   9046   9058   9061     1  0.0000000  0.6694400  3
   9050   9049   9057   9060     1  0.0000000  1.0460000  1
   9050   9049   9057   9060     1  0.0000000  0.6694400  3
   9051   9050   9056   9062     1  0.0000000  1.0460000  1
   9051   9050   9056   9062     1  0.0000000  0.6694400  3
   9051   9050   9049   9053     1  0.0000000  0.6508444  3
   9052   9050   9051   9055     1  0.0000000  1.0460000  1
   9052   9050   9051   9055     1  0.0000000  0.0000000  3
   9052   9050   9051   9067     1  0.0000000  1.0460000  1
   9052   9050   9051   9067     1  0.0000000  0.0000000  3
   9052   9050   9051   9054     1  0.0000000  0.6508444  3
   9052   9050   9056   9062     1  0.0000000  0.6973333  3
   9052   9050   9049   9057     1  0.0000000  1.0460000  1
   9052   9050   9049   9057     1  0.0000000  0.0000000  3
   9052   9050   9049   9053     1  0.0000000  0.6508444  3
   9053   9049   9050   9056     1  0.0000000  1.0460000  1
   9053   9049   9050   9056     1  0.0000000  0.0000000  3
   9053   9049   9057   9060     1  0.0000000  0.6973333  3
   9053   9049   9046   9058     1  0.0000000  1.0460000  1
   9053   9049   9046   9058     1  0.0000000  0.0000000  3
   9054   9051   9050   9056     1  0.0000000  0.6508444  3
   9063   9059   9065   9066     1  0.0000000  0.6973333  3
   9063   9059   9045   9067     1  0.0000000  1.0460000  1
   9063   9059   9045   9067     1  0.0000000  0.0000000  3
   9064   9059   9065   9066     1  0.0000000  0.6973333  3
   9064   9059   9045   9067     1  0.0000000  1.0460000  1
   9064   9059   9045   9067     1  0.0000000  0.0000000  3
   9068   9069   9072   9076     1  0.0000000  0.6508444  3
   9068   9069   9081   9084     1  0.0000000  1.0460000  1
   9068   9069   9081   9084     1  0.0000000  0.6694400  3
   9068   9082   9088   9089     1  0.0000000  1.0460000  1
   9068   9082   9088   9089     1  0.0000000  0.6694400  3
   9068   9090   9074   9077     1  0.0000000  1.6038667  3
   9069   9068   9082   9086     1  0.0000000  0.6508444  3
   9069   9068   9082   9087     1  0.0000000  0.6508444  3
   9069   9072   9073   9075     1  0.0000000  0.6508444  3
   9069   9072   9080   9083     1  0.0000000  1.0460000  1
   9069   9072   9080   9083     1  0.0000000  0.6694400  3
   9070   9068   9069   9072     1  0.0000000  0.6508444  3
   9070   9068   9069   9081     1  0.0000000  1.0460000  1
   9070   9068   9069   9081     1  0.0000000  0.0000000  3
   9070   9068   9069   9071     1  0.0000000  0.6508444  3
   9070   9068   9082   9088     1  0.0000000  1.0460000  1
   9070   9068   9082   9088     1  0.0000000  0.0000000  3
   9070   9068   9082   9086     1  0.0000000  0.6508444  3
   9070   9068   9082   9087     1  0.0000000  0.6508444  3
   9070   9068   9090   9074     1  0.0000000  1.6038667  3
   9071   9069   9068   9082     1  0.0000000  0.6508444  3
   9071   9069   9068   9090     1  0.0000000  1.0460000  1
   9071   9069   9068   9090     1  0.0000000  0.0000000  3
   9071   9069   9072   9073     1  0.0000000  0.6508444  3
   9071   9069   9072   9080     1  0.0000000  1.0460000  1
   9071   9069   9072   9080     1  0.0000000  0.0000000  3
   9071   9069   9072   9076     1  0.0000000  0.6508444  3
   9071   9069   9081   9084     1  0.0000000  0.6973333  3
   9072   9069   9081   9084     1  0.0000000  1.0460000  1
   9072   9069   9081   9084     1  0.0000000  0.6694400  3
   9072   9073   9074   9077     1  0.0000000  0.6508444  3
   9072   9073   9079   9085     1  0.0000000  1.0460000  1
   9072   9073   9079   9085     1  0.0000000  0.6694400  3
   9073   9072   9080   9083     1  0.0000000  1.0460000  1
   9073   9072   9080   9083     1  0.0000000  0.6694400  3
   9074   9073   9072   9076     1  0.0000000  0.6508444  3
   9074   9073   9079   9085     1  0.0000000  1.0460000  1
   9074   9073   9079   9085     1  0.0000000  0.6694400  3
   9075   9073   9072   9080     1  0.0000000  1.0460000  1
   9075   9073   9072   9080     1  0.0000000  0.0000000  3
   9075   9073   9072   9076     1  0.0000000  0.6508444  3
   9075   9073   9074   9078     1  0.0000000  1.0460000  1
   9075   9073   9074   9078     1  0.0000000  0.0000000  3
   9075   9073   9074   9090     1  0.0000000  1.0460000  1
   9075   9073   9074   9090     1  0.0000000  0.0000000  3
   9075   9073   9074   9077     1  0.0000000  0.6508444  3
   9075   9073   9079   9085     1  0.0000000  0.6973333  3
   9076   9072   9069   9081     1  0.0000000  1.0460000  1
   9076   9072   9069   9081     1  0.0000000  0.0000000  3
   9076   9072   9073   9079     1  0.0000000  1.0460000  1
   9076   9072   9073   9079     1  0.0000000  0.0000000  3
   9076   9072   9080   9083     1  0.0000000  0.6973333  3
   9077   9074   9073   9079     1  0.0000000  0.6508444  3
   9086   9082   9068   9090     1  0.0000000  1.0460000  1
   9086   9082   9068   9090     1  0.0000000  0.0000000  3
   9086   9082   9088   9089     1  0.0000000  0.6973333  3
   9087   9082   9068   9090     1  0.0000000  1.0460000  1
   9087   9082   9068   9090     1  0.0000000  0.0000000  3
   9087   9082   9088   9089     1  0.0000000  0.6973333  3
   9091   9092   9095   9099     1  0.0000000  0.6508444  3
   9091   9092   9104   9107     1  0.0000000  1.0460000  1
   9091   9092   9104   9107     1  0.0000000  0.6694400  3
   9091   9105   9111   9112     1  0.0000000  1.0460000  1
   9091   9105   9111   9112     1  0.0000000  0.6694400  3
   9091   9113   9097   9100     1  0.0000000  1.6038667  3
   9092   9095   9096   9098     1  0.0000000  0.6508444  3
   9092   9095   9103   9106     1  0.0000000  1.0460000  1
   9092   9095   9103   9106     1  0.0000000  0.6694400  3
   9092   9091   9105   9109     1  0.0000000  0.6508444  3
   9092   9091   9105   9110     1  0.0000000  0.6508444  3
   9093   9091   9092   9095     1  0.0000000  0.6508444  3
   9093   9091   9092   9104     1  0.0000000  1.0460000  1
   9093   9091   9092   9104     1  0.0000000  0.0000000  3
   9093   9091   9092   9094     1  0.0000000  0.6508444  3
   9093   9091   9105   9111     1  0.0000000  1.0460000  1
   9093   9091   9105   9111     1  0.0000000  0.0000000  3
   9093   9091   9105   9109     1  0.0000000  0.6508444  3
   9093   9091   9105   9110     1  0.0000000  0.6508444  3
   9093   9091   9113   9097     1  0.0000000  1.6038667  3
   9094   9092   9095   9096     1  0.0000000  0.6508444  3
   9094   9092   9095   9103     1  0.0000000  1.0460000  1
   9094   9092   9095   9103     1  0.0000000  0.0000000  3
   9094   9092   9095   9099     1  0.0000000  0.6508444  3
   9094   9092   9104   9107     1  0.0000000  0.6973333  3
   9094   9092   9091   9105     1  0.0000000  0.6508444  3
   9094   9092   9091   9113     1  0.0000000  1.0460000  1
   9094   9092   9091   9113     1  0.0000000  0.0000000  3
   9095   9096   9097   9100     1  0.0000000  0.6508444  3
   9095   9096   9102   9108     1  0.0000000  1.0460000  1
   9095   9096   9102   9108     1  0.0000000  0.6694400  3
   9095   9092   9104   9107     1  0.0000000  1.0460000  1
   9095   9092   9104   9107     1  0.0000000  0.6694400  3
   9096   9095   9103   9106     1  0.0000000  1.0460000  1
   9096   9095   9103   9106     1  0.0000000  0.6694400  3
   9097   9096   9102   9108     1  0.0000000  1.0460000  1
   9097   9096   9102   9108     1  0.0000000  0.6694400  3
   9097   9096   9095   9099     1  0.0000000  0.6508444  3
   9098   9096   9097   9101     1  0.0000000  1.0460000  1
   9098   9096   9097   9101     1  0.0000000  0.0000000  3
   9098   9096   9097   9113     1  0.0000000  1.0460000  1
   9098   9096   9097   9113     1  0.0000000  0.0000000  3
   9098   9096   9097   9100     1  0.0000000  0.6508444  3
   9098   9096   9102   9108     1  0.0000000  0.6973333  3
   9098   9096   9095   9103     1  0.0000000  1.0460000  1
   9098   9096   9095   9103     1  0.0000000  0.0000000  3
   9098   9096   9095   9099     1  0.0000000  0.6508444  3
   9099   9095   9096   9102     1  0.0000000  1.0460000  1
   9099   9095   9096   9102     1  0.0000000  0.0000000  3
   9099   9095   9103   9106     1  0.0000000  0.6973333  3
   9099   9095   9092   9104     1  0.0000000  1.0460000  1
   9099   9095   9092   9104     1  0.0000000  0.0000000  3
   9100   9097   9096   9102     1  0.0000000  0.6508444  3
   9109   9105   9111   9112     1  0.0000000  0.6973333  3
   9109   9105   9091   9113     1  0.0000000  1.0460000  1
   9109   9105   9091   9113     1  0.0000000  0.0000000  3
   9110   9105   9111   9112     1  0.0000000  0.6973333  3
   9110   9105   9091   9113     1  0.0000000  1.0460000  1
   9110   9105   9091   9113     1  0.0000000  0.0000000  3
   9114   9115   9118   9122     1  0.0000000  0.6508444  3
   9114   9115   9127   9130     1  0.0000000  1.0460000  1
   9114   9115   9127   9130     1  0.0000000  0.6694400  3
   9114   9128   9134   9135     1  0.0000000  1.0460000  1
   9114   9128   9134   9135     1  0.0000000  0.6694400  3
   9114   9136   9120   9123     1  0.0000000  1.6038667  3
   9115   9114   9128   9132     1  0.0000000  0.6508444  3
   9115   9114   9128   9133     1  0.0000000  0.6508444  3
   9115   9118   9119   9121     1  0.0000000  0.6508444  3
   9115   9118   9126   9129     1  0.0000000  1.0460000  1
   9115   9118   9126   9129     1  0.0000000  0.6694400  3
   9116   9114   9115   9118     1  0.0000000  0.6508444  3
   9116   9114   9115   9127     1  0.0000000  1.0460000  1
   9116   9114   9115   9127     1  0.0000000  0.0000000  3
   9116   9114   9115   9117     1  0.0000000  0.6508444  3
   9116   9114   9128   9134     1  0.0000000  1.0460000  1
   9116   9114   9128   9134     1  0.0000000  0.0000000  3
   9116   9114   9128   9132     1  0.0000000  0.6508444  3
   9116   9114   9128   9133     1  0.0000000  0.6508444  3
   9116   9114   9136   9120     1  0.0000000  1.6038667  3
   9117   9115   9114   9128     1  0.0000000  0.6508444  3
   9117   9115   9114   9136     1  0.0000000  1.0460000  1
   9117   9115   9114   9136     1  0.0000000  0.0000000  3
   9117   9115   9118   9119     1  0.0000000  0.6508444  3
   9117   9115   9118   9126     1  0.0000000  1.0460000  1
   9117   9115   9118   9126     1  0.0000000  0.0000000  3
   9117   9115   9118   9122     1  0.0000000  0.6508444  3
   9117   9115   9127   9130     1  0.0000000  0.6973333  3
   9118   9115   9127   9130     1  0.0000000  1.0460000  1
   9118   9115   9127   9130     1  0.0000000  0.6694400  3
   9118   9119   9120   9123     1  0.0000000  0.6508444  3
   9118   9119   9125   9131     1  0.0000000  1.0460000  1
   9118   9119   9125   9131     1  0.0000000  0.6694400  3
   9119   9118   9126   9129     1  0.0000000  1.0460000  1
   9119   9118   9126   9129     1  0.0000000  0.6694400  3
   9120   9119   9118   9122     1  0.0000000  0.6508444  3
   9120   9119   9125   9131     1  0.0000000  1.0460000  1
   9120   9119   9125   9131     1  0.0000000  0.6694400  3
   9121   9119   9118   9126     1  0.0000000  1.0460000  1
   9121   9119   9118   9126     1  0.0000000  0.0000000  3
   9121   9119   9118   9122     1  0.0000000  0.6508444  3
   9121   9119   9120   9124     1  0.0000000  1.0460000  1
   9121   9119   9120   9124     1  0.0000000  0.0000000  3
   9121   9119   9120   9136     1  0.0000000  1.0460000  1
   9121   9119   9120   9136     1  0.0000000  0.0000000  3
   9121   9119   9120   9123     1  0.0000000  0.6508444  3
   9121   9119   9125   9131     1  0.0000000  0.6973333  3
   9122   9118   9115   9127     1  0.0000000  1.0460000  1
   9122   9118   9115   9127     1  0.0000000  0.0000000  3
   9122   9118   9119   9125     1  0.0000000  1.0460000  1
   9122   9118   9119   9125     1  0.0000000  0.0000000  3
   9122   9118   9126   9129     1  0.0000000  0.6973333  3
   9123   9120   9119   9125     1  0.0000000  0.6508444  3
   9132   9128   9114   9136     1  0.0000000  1.0460000  1
   9132   9128   9114   9136     1  0.0000000  0.0000000  3
   9132   9128   9134   9135     1  0.0000000  0.6973333  3
   9133   9128   9114   9136     1  0.0000000  1.0460000  1
   9133   9128   9114   9136     1  0.0000000  0.0000000  3
   9133   9128   9134   9135     1  0.0000000  0.6973333  3
   9137   9138   9141   9145     1  0.0000000  0.6508444  3
   9137   9138   9150   9153     1  0.0000000  1.0460000  1
   9137   9138   9150   9153     1  0.0000000  0.6694400  3
   9137   9151   9157   9158     1  0.0000000  1.0460000  1
   9137   9151   9157   9158     1  0.0000000  0.6694400  3
   9137   9159   9143   9146     1  0.0000000  1.6038667  3
   9138   9141   9142   9144     1  0.0000000  0.6508444  3
   9138   9141   9149   9152     1  0.0000000  1.0460000  1
   9138   9141   9149   9152     1  0.0000000  0.6694400  3
   9138   9137   9151   9155     1  0.0000000  0.6508444  3
   9138   9137   9151   9156     1  0.0000000  0.6508444  3
   9139   9137   9138   9141     1  0.0000000  0.6508444  3
   9139   9137   9138   9150     1  0.0000000  1.0460000  1
   9139   9137   9138   9150     1  0.0000000  0.0000000  3
   9139   9137   9138   9140     1  0.0000000  0.6508444  3
   9139   9137   9151   9157     1  0.0000000  1.0460000  1
   9139   9137   9151   9157     1  0.0000000  0.0000000  3
   9139   9137   9151   9155     1  0.0000000  0.6508444  3
   9139   9137   9151   9156     1  0.0000000  0.6508444  3
   9139   9137   9159   9143     1  0.0000000  1.6038667  3
   9140   9138   9141   9142     1  0.0000000  0.6508444  3
   9140   9138   9141   9149     1  0.0000000  1.0460000  1
   9140   9138   9141   9149     1  0.0000000  0.0000000  3
   9140   9138   9141   9145     1  0.0000000  0.6508444  3
   9140   9138   9150   9153     1  0.0000000  0.6973333  3
   9140   9138   9137   9151     1  0.0000000  0.6508444  3
   9140   9138   9137   9159     1  0.0000000  1.0460000  1
   9140   9138   9137   9159     1  0.0000000  0.0000000  3
   9141   9142   9143   9146     1  0.0000000  0.6508444  3
   9141   9142   9148   9154     1  0.0000000  1.0460000  1
   9141   9142   9148   9154     1  0.0000000  0.6694400  3
   9141   9138   9150   9153     1  0.0000000  1.0460000  1
   9141   9138   9150   9153     1  0.0000000  0.6694400  3
   9142   9141   9149   9152     1  0.0000000  1.0460000  1
   9142   9141   9149   9152     1  0.0000000  0.6694400  3
   9143   9142   9148   9154     1  0.0000000  1.0460000  1
   9143   9142   9148   9154     1  0.0000000  0.6694400  3
   9143   9142   9141   9145     1  0.0000000  0.6508444  3
   9144   9142   9143   9147     1  0.0000000  1.0460000  1
   9144   9142   9143   9147     1  0.0000000  0.0000000  3
   9144   9142   9143   9159     1  0.0000000  1.0460000  1
   9144   9142   9143   9159     1  0.0000000  0.0000000  3
   9144   9142   9143   9146     1  0.0000000  0.6508444  3
   9144   9142   9148   9154     1  0.0000000  0.6973333  3
   9144   9142   9141   9149     1  0.0000000  1.0460000  1
   9144   9142   9141   9149     1  0.0000000  0.0000000  3
   9144   9142   9141   9145     1  0.0000000  0.6508444  3
   9145   9141   9142   9148     1  0.0000000  1.0460000  1
   9145   9141   9142   9148     1  0.0000000  0.0000000  3
   9145   9141   9149   9152     1  0.0000000  0.6973333  3
   9145   9141   9138   9150     1  0.0000000  1.0460000  1
   9145   9141   9138   9150     1  0.0000000  0.0000000  3
   9146   9143   9142   9148     1  0.0000000  0.6508444  3
   9155   9151   9157   9158     1  0.0000000  0.6973333  3
   9155   9151   9137   9159     1  0.0000000  1.0460000  1
   9155   9151   9137   9159     1  0.0000000  0.0000000  3
   9156   9151   9157   9158     1  0.0000000  0.6973333  3
   9156   9151   9137   9159     1  0.0000000  1.0460000  1
   9156   9151   9137   9159     1  0.0000000  0.0000000  3
   9160   9161   9164   9168     1  0.0000000  0.6508444  3
   9160   9161   9173   9176     1  0.0000000  1.0460000  1
   9160   9161   9173   9176     1  0.0000000  0.6694400  3
   9160   9174   9180   9181     1  0.0000000  1.0460000  1
   9160   9174   9180   9181     1  0.0000000  0.6694400  3
   9160   9182   9166   9169     1  0.0000000  1.6038667  3
   9161   9160   9174   9178     1  0.0000000  0.6508444  3
   9161   9160   9174   9179     1  0.0000000  0.6508444  3
   9161   9164   9165   9167     1  0.0000000  0.6508444  3
   9161   9164   9172   9175     1  0.0000000  1.0460000  1
   9161   9164   9172   9175     1  0.0000000  0.6694400  3
   9162   9160   9161   9164     1  0.0000000  0.6508444  3
   9162   9160   9161   9173     1  0.0000000  1.0460000  1
   9162   9160   9161   9173     1  0.0000000  0.0000000  3
   9162   9160   9161   9163     1  0.0000000  0.6508444  3
   9162   9160   9174   9180     1  0.0000000  1.0460000  1
   9162   9160   9174   9180     1  0.0000000  0.0000000  3
   9162   9160   9174   9178     1  0.0000000  0.6508444  3
   9162   9160   9174   9179     1  0.0000000  0.6508444  3
   9162   9160   9182   9166     1  0.0000000  1.6038667  3
   9163   9161   9160   9174     1  0.0000000  0.6508444  3
   9163   9161   9160   9182     1  0.0000000  1.0460000  1
   9163   9161   9160   9182     1  0.0000000  0.0000000  3
   9163   9161   9164   9165     1  0.0000000  0.6508444  3
   9163   9161   9164   9172     1  0.0000000  1.0460000  1
   9163   9161   9164   9172     1  0.0000000  0.0000000  3
   9163   9161   9164   9168     1  0.0000000  0.6508444  3
   9163   9161   9173   9176     1  0.0000000  0.6973333  3
   9164   9161   9173   9176     1  0.0000000  1.0460000  1
   9164   9161   9173   9176     1  0.0000000  0.6694400  3
   9164   9165   9166   9169     1  0.0000000  0.6508444  3
   9164   9165   9171   9177     1  0.0000000  1.0460000  1
   9164   9165   9171   9177     1  0.0000000  0.6694400  3
   9165   9164   9172   9175     1  0.0000000  1.0460000  1
   9165   9164   9172   9175     1  0.0000000  0.6694400  3
   9166   9165   9164   9168     1  0.0000000  0.6508444  3
   9166   9165   9171   9177     1  0.0000000  1.0460000  1
   9166   9165   9171   9177     1  0.0000000  0.6694400  3
   9167   9165   9164   9172     1  0.0000000  1.0460000  1
   9167   9165   9164   9172     1  0.0000000  0.0000000  3
   9167   9165   9164   9168     1  0.0000000  0.6508444  3
   9167   9165   9166   9170     1  0.0000000  1.0460000  1
   9167   9165   9166   9170     1  0.0000000  0.0000000  3
   9167   9165   9166   9182     1  0.0000000  1.0460000  1
   9167   9165   9166   9182     1  0.0000000  0.0000000  3
   9167   9165   9166   9169     1  0.0000000  0.6508444  3
   9167   9165   9171   9177     1  0.0000000  0.6973333  3
   9168   9164   9161   9173     1  0.0000000  1.0460000  1
   9168   9164   9161   9173     1  0.0000000  0.0000000  3
   9168   9164   9165   9171     1  0.0000000  1.0460000  1
   9168   9164   9165   9171     1  0.0000000  0.0000000  3
   9168   9164   9172   9175     1  0.0000000  0.6973333  3
   9169   9166   9165   9171     1  0.0000000  0.6508444  3
   9178   9174   9160   9182     1  0.0000000  1.0460000  1
   9178   9174   9160   9182     1  0.0000000  0.0000000  3
   9178   9174   9180   9181     1  0.0000000  0.6973333  3
   9179   9174   9160   9182     1  0.0000000  1.0460000  1
   9179   9174   9160   9182     1  0.0000000  0.0000000  3
   9179   9174   9180   9181     1  0.0000000  0.6973333  3
   9183   9184   9187   9191     1  0.0000000  0.6508444  3
   9183   9184   9196   9199     1  0.0000000  1.0460000  1
   9183   9184   9196   9199     1  0.0000000  0.6694400  3
   9183   9197   9203   9204     1  0.0000000  1.0460000  1
   9183   9197   9203   9204     1  0.0000000  0.6694400  3
   9183   9205   9189   9192     1  0.0000000  1.6038667  3
   9184   9187   9188   9190     1  0.0000000  0.6508444  3
   9184   9187   9195   9198     1  0.0000000  1.0460000  1
   9184   9187   9195   9198     1  0.0000000  0.6694400  3
   9184   9183   9197   9201     1  0.0000000  0.6508444  3
   9184   9183   9197   9202     1  0.0000000  0.6508444  3
   9185   9183   9184   9187     1  0.0000000  0.6508444  3
   9185   9183   9184   9196     1  0.0000000  1.0460000  1
   9185   9183   9184   9196     1  0.0000000  0.0000000  3
   9185   9183   9184   9186     1  0.0000000  0.6508444  3
   9185   9183   9197   9203     1  0.0000000  1.0460000  1
   9185   9183   9197   9203     1  0.0000000  0.0000000  3
   9185   9183   9197   9201     1  0.0000000  0.6508444  3
   9185   9183   9197   9202     1  0.0000000  0.6508444  3
   9185   9183   9205   9189     1  0.0000000  1.6038667  3
   9186   9184   9187   9188     1  0.0000000  0.6508444  3
   9186   9184   9187   9195     1  0.0000000  1.0460000  1
   9186   9184   9187   9195     1  0.0000000  0.0000000  3
   9186   9184   9187   9191     1  0.0000000  0.6508444  3
   9186   9184   9196   9199     1  0.0000000  0.6973333  3
   9186   9184   9183   9197     1  0.0000000  0.6508444  3
   9186   9184   9183   9205     1  0.0000000  1.0460000  1
   9186   9184   9183   9205     1  0.0000000  0.0000000  3
   9187   9188   9189   9192     1  0.0000000  0.6508444  3
   9187   9188   9194   9200     1  0.0000000  1.0460000  1
   9187   9188   9194   9200     1  0.0000000  0.6694400  3
   9187   9184   9196   9199     1  0.0000000  1.0460000  1
   9187   9184   9196   9199     1  0.0000000  0.6694400  3
   9188   9187   9195   9198     1  0.0000000  1.0460000  1
   9188   9187   9195   9198     1  0.0000000  0.6694400  3
   9189   9188   9194   9200     1  0.0000000  1.0460000  1
   9189   9188   9194   9200     1  0.0000000  0.6694400  3
   9189   9188   9187   9191     1  0.0000000  0.6508444  3
   9190   9188   9189   9193     1  0.0000000  1.0460000  1
   9190   9188   9189   9193     1  0.0000000  0.0000000  3
   9190   9188   9189   9205     1  0.0000000  1.0460000  1
   9190   9188   9189   9205     1  0.0000000  0.0000000  3
   9190   9188   9189   9192     1  0.0000000  0.6508444  3
   9190   9188   9194   9200     1  0.0000000  0.6973333  3
   9190   9188   9187   9195     1  0.0000000  1.0460000  1
   9190   9188   9187   9195     1  0.0000000  0.0000000  3
   9190   9188   9187   9191     1  0.0000000  0.6508444  3
   9191   9187   9188   9194     1  0.0000000  1.0460000  1
   9191   9187   9188   9194     1  0.0000000  0.0000000  3
   9191   9187   9195   9198     1  0.0000000  0.6973333  3
   9191   9187   9184   9196     1  0.0000000  1.0460000  1
   9191   9187   9184   9196     1  0.0000000  0.0000000  3
   9192   9189   9188   9194     1  0.0000000  0.6508444  3
   9201   9197   9203   9204     1  0.0000000  0.6973333  3
   9201   9197   9183   9205     1  0.0000000  1.0460000  1
   9201   9197   9183   9205     1  0.0000000  0.0000000  3
   9202   9197   9203   9204     1  0.0000000  0.6973333  3
   9202   9197   9183   9205     1  0.0000000  1.0460000  1
   9202   9197   9183   9205     1  0.0000000  0.0000000  3
   9206   9207   9210   9214     1  0.0000000  0.6508444  3
   9206   9207   9219   9222     1  0.0000000  1.0460000  1
   9206   9207   9219   9222     1  0.0000000  0.6694400  3
   9206   9220   9226   9227     1  0.0000000  1.0460000  1
   9206   9220   9226   9227     1  0.0000000  0.6694400  3
   9206   9228   9212   9215     1  0.0000000  1.6038667  3
   9207   9206   9220   9224     1  0.0000000  0.6508444  3
   9207   9206   9220   9225     1  0.0000000  0.6508444  3
   9207   9210   9211   9213     1  0.0000000  0.6508444  3
   9207   9210   9218   9221     1  0.0000000  1.0460000  1
   9207   9210   9218   9221     1  0.0000000  0.6694400  3
   9208   9206   9207   9210     1  0.0000000  0.6508444  3
   9208   9206   9207   9219     1  0.0000000  1.0460000  1
   9208   9206   9207   9219     1  0.0000000  0.0000000  3
   9208   9206   9207   9209     1  0.0000000  0.6508444  3
   9208   9206   9220   9226     1  0.0000000  1.0460000  1
   9208   9206   9220   9226     1  0.0000000  0.0000000  3
   9208   9206   9220   9224     1  0.0000000  0.6508444  3
   9208   9206   9220   9225     1  0.0000000  0.6508444  3
   9208   9206   9228   9212     1  0.0000000  1.6038667  3
   9209   9207   9206   9220     1  0.0000000  0.6508444  3
   9209   9207   9206   9228     1  0.0000000  1.0460000  1
   9209   9207   9206   9228     1  0.0000000  0.0000000  3
   9209   9207   9210   9211     1  0.0000000  0.6508444  3
   9209   9207   9210   9218     1  0.0000000  1.0460000  1
   9209   9207   9210   9218     1  0.0000000  0.0000000  3
   9209   9207   9210   9214     1  0.0000000  0.6508444  3
   9209   9207   9219   9222     1  0.0000000  0.6973333  3
   9210   9207   9219   9222     1  0.0000000  1.0460000  1
   9210   9207   9219   9222     1  0.0000000  0.6694400  3
   9210   9211   9212   9215     1  0.0000000  0.6508444  3
   9210   9211   9217   9223     1  0.0000000  1.0460000  1
   9210   9211   9217   9223     1  0.0000000  0.6694400  3
   9211   9210   9218   9221     1  0.0000000  1.0460000  1
   9211   9210   9218   9221     1  0.0000000  0.6694400  3
   9212   9211   9210   9214     1  0.0000000  0.6508444  3
   9212   9211   9217   9223     1  0.0000000  1.0460000  1
   9212   9211   9217   9223     1  0.0000000  0.6694400  3
   9213   9211   9210   9218     1  0.0000000  1.0460000  1
   9213   9211   9210   9218     1  0.0000000  0.0000000  3
   9213   9211   9210   9214     1  0.0000000  0.6508444  3
   9213   9211   9212   9216     1  0.0000000  1.0460000  1
   9213   9211   9212   9216     1  0.0000000  0.0000000  3
   9213   9211   9212   9228     1  0.0000000  1.0460000  1
   9213   9211   9212   9228     1  0.0000000  0.0000000  3
   9213   9211   9212   9215     1  0.0000000  0.6508444  3
   9213   9211   9217   9223     1  0.0000000  0.6973333  3
   9214   9210   9207   9219     1  0.0000000  1.0460000  1
   9214   9210   9207   9219     1  0.0000000  0.0000000  3
   9214   9210   9211   9217     1  0.0000000  1.0460000  1
   9214   9210   9211   9217     1  0.0000000  0.0000000  3
   9214   9210   9218   9221     1  0.0000000  0.6973333  3
   9215   9212   9211   9217     1  0.0000000  0.6508444  3
   9224   9220   9206   9228     1  0.0000000  1.0460000  1
   9224   9220   9206   9228     1  0.0000000  0.0000000  3
   9224   9220   9226   9227     1  0.0000000  0.6973333  3
   9225   9220   9206   9228     1  0.0000000  1.0460000  1
   9225   9220   9206   9228     1  0.0000000  0.0000000  3
   9225   9220   9226   9227     1  0.0000000  0.6973333  3
   9229   9230   9233   9237     1  0.0000000  0.6508444  3
   9229   9230   9242   9245     1  0.0000000  1.0460000  1
   9229   9230   9242   9245     1  0.0000000  0.6694400  3
   9229   9243   9249   9250     1  0.0000000  1.0460000  1
   9229   9243   9249   9250     1  0.0000000  0.6694400  3
   9229   9251   9235   9238     1  0.0000000  1.6038667  3
   9230   9233   9234   9236     1  0.0000000  0.6508444  3
   9230   9233   9241   9244     1  0.0000000  1.0460000  1
   9230   9233   9241   9244     1  0.0000000  0.6694400  3
   9230   9229   9243   9247     1  0.0000000  0.6508444  3
   9230   9229   9243   9248     1  0.0000000  0.6508444  3
   9231   9229   9230   9233     1  0.0000000  0.6508444  3
   9231   9229   9230   9242     1  0.0000000  1.0460000  1
   9231   9229   9230   9242     1  0.0000000  0.0000000  3
   9231   9229   9230   9232     1  0.0000000  0.6508444  3
   9231   9229   9243   9249     1  0.0000000  1.0460000  1
   9231   9229   9243   9249     1  0.0000000  0.0000000  3
   9231   9229   9243   9247     1  0.0000000  0.6508444  3
   9231   9229   9243   9248     1  0.0000000  0.6508444  3
   9231   9229   9251   9235     1  0.0000000  1.6038667  3
   9232   9230   9233   9234     1  0.0000000  0.6508444  3
   9232   9230   9233   9241     1  0.0000000  1.0460000  1
   9232   9230   9233   9241     1  0.0000000  0.0000000  3
   9232   9230   9233   9237     1  0.0000000  0.6508444  3
   9232   9230   9242   9245     1  0.0000000  0.6973333  3
   9232   9230   9229   9243     1  0.0000000  0.6508444  3
   9232   9230   9229   9251     1  0.0000000  1.0460000  1
   9232   9230   9229   9251     1  0.0000000  0.0000000  3
   9233   9234   9235   9238     1  0.0000000  0.6508444  3
   9233   9234   9240   9246     1  0.0000000  1.0460000  1
   9233   9234   9240   9246     1  0.0000000  0.6694400  3
   9233   9230   9242   9245     1  0.0000000  1.0460000  1
   9233   9230   9242   9245     1  0.0000000  0.6694400  3
   9234   9233   9241   9244     1  0.0000000  1.0460000  1
   9234   9233   9241   9244     1  0.0000000  0.6694400  3
   9235   9234   9240   9246     1  0.0000000  1.0460000  1
   9235   9234   9240   9246     1  0.0000000  0.6694400  3
   9235   9234   9233   9237     1  0.0000000  0.6508444  3
   9236   9234   9235   9239     1  0.0000000  1.0460000  1
   9236   9234   9235   9239     1  0.0000000  0.0000000  3
   9236   9234   9235   9251     1  0.0000000  1.0460000  1
   9236   9234   9235   9251     1  0.0000000  0.0000000  3
   9236   9234   9235   9238     1  0.0000000  0.6508444  3
   9236   9234   9240   9246     1  0.0000000  0.6973333  3
   9236   9234   9233   9241     1  0.0000000  1.0460000  1
   9236   9234   9233   9241     1  0.0000000  0.0000000  3
   9236   9234   9233   9237     1  0.0000000  0.6508444  3
   9237   9233   9234   9240     1  0.0000000  1.0460000  1
   9237   9233   9234   9240     1  0.0000000  0.0000000  3
   9237   9233   9241   9244     1  0.0000000  0.6973333  3
   9237   9233   9230   9242     1  0.0000000  1.0460000  1
   9237   9233   9230   9242     1  0.0000000  0.0000000  3
   9238   9235   9234   9240     1  0.0000000  0.6508444  3
   9247   9243   9249   9250     1  0.0000000  0.6973333  3
   9247   9243   9229   9251     1  0.0000000  1.0460000  1
   9247   9243   9229   9251     1  0.0000000  0.0000000  3
   9248   9243   9249   9250     1  0.0000000  0.6973333  3
   9248   9243   9229   9251     1  0.0000000  1.0460000  1
   9248   9243   9229   9251     1  0.0000000  0.0000000  3
   9252   9253   9256   9260     1  0.0000000  0.6508444  3
   9252   9253   9265   9268     1  0.0000000  1.0460000  1
   9252   9253   9265   9268     1  0.0000000  0.6694400  3
   9252   9266   9272   9273     1  0.0000000  1.0460000  1
   9252   9266   9272   9273     1  0.0000000  0.6694400  3
   9252   9274   9258   9261     1  0.0000000  1.6038667  3
   9253   9252   9266   9270     1  0.0000000  0.6508444  3
   9253   9252   9266   9271     1  0.0000000  0.6508444  3
   9253   9256   9257   9259     1  0.0000000  0.6508444  3
   9253   9256   9264   9267     1  0.0000000  1.0460000  1
   9253   9256   9264   9267     1  0.0000000  0.6694400  3
   9254   9252   9253   9256     1  0.0000000  0.6508444  3
   9254   9252   9253   9265     1  0.0000000  1.0460000  1
   9254   9252   9253   9265     1  0.0000000  0.0000000  3
   9254   9252   9253   9255     1  0.0000000  0.6508444  3
   9254   9252   9266   9272     1  0.0000000  1.0460000  1
   9254   9252   9266   9272     1  0.0000000  0.0000000  3
   9254   9252   9266   9270     1  0.0000000  0.6508444  3
   9254   9252   9266   9271     1  0.0000000  0.6508444  3
   9254   9252   9274   9258     1  0.0000000  1.6038667  3
   9255   9253   9252   9266     1  0.0000000  0.6508444  3
   9255   9253   9252   9274     1  0.0000000  1.0460000  1
   9255   9253   9252   9274     1  0.0000000  0.0000000  3
   9255   9253   9256   9257     1  0.0000000  0.6508444  3
   9255   9253   9256   9264     1  0.0000000  1.0460000  1
   9255   9253   9256   9264     1  0.0000000  0.0000000  3
   9255   9253   9256   9260     1  0.0000000  0.6508444  3
   9255   9253   9265   9268     1  0.0000000  0.6973333  3
   9256   9253   9265   9268     1  0.0000000  1.0460000  1
   9256   9253   9265   9268     1  0.0000000  0.6694400  3
   9256   9257   9258   9261     1  0.0000000  0.6508444  3
   9256   9257   9263   9269     1  0.0000000  1.0460000  1
   9256   9257   9263   9269     1  0.0000000  0.6694400  3
   9257   9256   9264   9267     1  0.0000000  1.0460000  1
   9257   9256   9264   9267     1  0.0000000  0.6694400  3
   9258   9257   9256   9260     1  0.0000000  0.6508444  3
   9258   9257   9263   9269     1  0.0000000  1.0460000  1
   9258   9257   9263   9269     1  0.0000000  0.6694400  3
   9259   9257   9256   9264     1  0.0000000  1.0460000  1
   9259   9257   9256   9264     1  0.0000000  0.0000000  3
   9259   9257   9256   9260     1  0.0000000  0.6508444  3
   9259   9257   9258   9262     1  0.0000000  1.0460000  1
   9259   9257   9258   9262     1  0.0000000  0.0000000  3
   9259   9257   9258   9274     1  0.0000000  1.0460000  1
   9259   9257   9258   9274     1  0.0000000  0.0000000  3
   9259   9257   9258   9261     1  0.0000000  0.6508444  3
   9259   9257   9263   9269     1  0.0000000  0.6973333  3
   9260   9256   9253   9265     1  0.0000000  1.0460000  1
   9260   9256   9253   9265     1  0.0000000  0.0000000  3
   9260   9256   9257   9263     1  0.0000000  1.0460000  1
   9260   9256   9257   9263     1  0.0000000  0.0000000  3
   9260   9256   9264   9267     1  0.0000000  0.6973333  3
   9261   9258   9257   9263     1  0.0000000  0.6508444  3
   9270   9266   9252   9274     1  0.0000000  1.0460000  1
   9270   9266   9252   9274     1  0.0000000  0.0000000  3
   9270   9266   9272   9273     1  0.0000000  0.6973333  3
   9271   9266   9252   9274     1  0.0000000  1.0460000  1
   9271   9266   9252   9274     1  0.0000000  0.0000000  3
   9271   9266   9272   9273     1  0.0000000  0.6973333  3
   9275   9276   9279   9283     1  0.0000000  0.6508444  3
   9275   9276   9288   9291     1  0.0000000  1.0460000  1
   9275   9276   9288   9291     1  0.0000000  0.6694400  3
   9275   9289   9295   9296     1  0.0000000  1.0460000  1
   9275   9289   9295   9296     1  0.0000000  0.6694400  3
   9275   9297   9281   9284     1  0.0000000  1.6038667  3
   9276   9279   9280   9282     1  0.0000000  0.6508444  3
   9276   9279   9287   9290     1  0.0000000  1.0460000  1
   9276   9279   9287   9290     1  0.0000000  0.6694400  3
   9276   9275   9289   9293     1  0.0000000  0.6508444  3
   9276   9275   9289   9294     1  0.0000000  0.6508444  3
   9277   9275   9276   9279     1  0.0000000  0.6508444  3
   9277   9275   9276   9288     1  0.0000000  1.0460000  1
   9277   9275   9276   9288     1  0.0000000  0.0000000  3
   9277   9275   9276   9278     1  0.0000000  0.6508444  3
   9277   9275   9289   9295     1  0.0000000  1.0460000  1
   9277   9275   9289   9295     1  0.0000000  0.0000000  3
   9277   9275   9289   9293     1  0.0000000  0.6508444  3
   9277   9275   9289   9294     1  0.0000000  0.6508444  3
   9277   9275   9297   9281     1  0.0000000  1.6038667  3
   9278   9276   9279   9280     1  0.0000000  0.6508444  3
   9278   9276   9279   9287     1  0.0000000  1.0460000  1
   9278   9276   9279   9287     1  0.0000000  0.0000000  3
   9278   9276   9279   9283     1  0.0000000  0.6508444  3
   9278   9276   9288   9291     1  0.0000000  0.6973333  3
   9278   9276   9275   9289     1  0.0000000  0.6508444  3
   9278   9276   9275   9297     1  0.0000000  1.0460000  1
   9278   9276   9275   9297     1  0.0000000  0.0000000  3
   9279   9280   9281   9284     1  0.0000000  0.6508444  3
   9279   9280   9286   9292     1  0.0000000  1.0460000  1
   9279   9280   9286   9292     1  0.0000000  0.6694400  3
   9279   9276   9288   9291     1  0.0000000  1.0460000  1
   9279   9276   9288   9291     1  0.0000000  0.6694400  3
   9280   9279   9287   9290     1  0.0000000  1.0460000  1
   9280   9279   9287   9290     1  0.0000000  0.6694400  3
   9281   9280   9286   9292     1  0.0000000  1.0460000  1
   9281   9280   9286   9292     1  0.0000000  0.6694400  3
   9281   9280   9279   9283     1  0.0000000  0.6508444  3
   9282   9280   9281   9285     1  0.0000000  1.0460000  1
   9282   9280   9281   9285     1  0.0000000  0.0000000  3
   9282   9280   9281   9297     1  0.0000000  1.0460000  1
   9282   9280   9281   9297     1  0.0000000  0.0000000  3
   9282   9280   9281   9284     1  0.0000000  0.6508444  3
   9282   9280   9286   9292     1  0.0000000  0.6973333  3
   9282   9280   9279   9287     1  0.0000000  1.0460000  1
   9282   9280   9279   9287     1  0.0000000  0.0000000  3
   9282   9280   9279   9283     1  0.0000000  0.6508444  3
   9283   9279   9280   9286     1  0.0000000  1.0460000  1
   9283   9279   9280   9286     1  0.0000000  0.0000000  3
   9283   9279   9287   9290     1  0.0000000  0.6973333  3
   9283   9279   9276   9288     1  0.0000000  1.0460000  1
   9283   9279   9276   9288     1  0.0000000  0.0000000  3
   9284   9281   9280   9286     1  0.0000000  0.6508444  3
   9293   9289   9295   9296     1  0.0000000  0.6973333  3
   9293   9289   9275   9297     1  0.0000000  1.0460000  1
   9293   9289   9275   9297     1  0.0000000  0.0000000  3
   9294   9289   9295   9296     1  0.0000000  0.6973333  3
   9294   9289   9275   9297     1  0.0000000  1.0460000  1
   9294   9289   9275   9297     1  0.0000000  0.0000000  3
   9298   9299   9302   9306     1  0.0000000  0.6508444  3
   9298   9299   9311   9314     1  0.0000000  1.0460000  1
   9298   9299   9311   9314     1  0.0000000  0.6694400  3
   9298   9312   9318   9319     1  0.0000000  1.0460000  1
   9298   9312   9318   9319     1  0.0000000  0.6694400  3
   9298   9320   9304   9307     1  0.0000000  1.6038667  3
   9299   9298   9312   9316     1  0.0000000  0.6508444  3
   9299   9298   9312   9317     1  0.0000000  0.6508444  3
   9299   9302   9303   9305     1  0.0000000  0.6508444  3
   9299   9302   9310   9313     1  0.0000000  1.0460000  1
   9299   9302   9310   9313     1  0.0000000  0.6694400  3
   9300   9298   9299   9302     1  0.0000000  0.6508444  3
   9300   9298   9299   9311     1  0.0000000  1.0460000  1
   9300   9298   9299   9311     1  0.0000000  0.0000000  3
   9300   9298   9299   9301     1  0.0000000  0.6508444  3
   9300   9298   9312   9318     1  0.0000000  1.0460000  1
   9300   9298   9312   9318     1  0.0000000  0.0000000  3
   9300   9298   9312   9316     1  0.0000000  0.6508444  3
   9300   9298   9312   9317     1  0.0000000  0.6508444  3
   9300   9298   9320   9304     1  0.0000000  1.6038667  3
   9301   9299   9298   9312     1  0.0000000  0.6508444  3
   9301   9299   9298   9320     1  0.0000000  1.0460000  1
   9301   9299   9298   9320     1  0.0000000  0.0000000  3
   9301   9299   9302   9303     1  0.0000000  0.6508444  3
   9301   9299   9302   9310     1  0.0000000  1.0460000  1
   9301   9299   9302   9310     1  0.0000000  0.0000000  3
   9301   9299   9302   9306     1  0.0000000  0.6508444  3
   9301   9299   9311   9314     1  0.0000000  0.6973333  3
   9302   9299   9311   9314     1  0.0000000  1.0460000  1
   9302   9299   9311   9314     1  0.0000000  0.6694400  3
   9302   9303   9304   9307     1  0.0000000  0.6508444  3
   9302   9303   9309   9315     1  0.0000000  1.0460000  1
   9302   9303   9309   9315     1  0.0000000  0.6694400  3
   9303   9302   9310   9313     1  0.0000000  1.0460000  1
   9303   9302   9310   9313     1  0.0000000  0.6694400  3
   9304   9303   9302   9306     1  0.0000000  0.6508444  3
   9304   9303   9309   9315     1  0.0000000  1.0460000  1
   9304   9303   9309   9315     1  0.0000000  0.6694400  3
   9305   9303   9302   9310     1  0.0000000  1.0460000  1
   9305   9303   9302   9310     1  0.0000000  0.0000000  3
   9305   9303   9302   9306     1  0.0000000  0.6508444  3
   9305   9303   9304   9308     1  0.0000000  1.0460000  1
   9305   9303   9304   9308     1  0.0000000  0.0000000  3
   9305   9303   9304   9320     1  0.0000000  1.0460000  1
   9305   9303   9304   9320     1  0.0000000  0.0000000  3
   9305   9303   9304   9307     1  0.0000000  0.6508444  3
   9305   9303   9309   9315     1  0.0000000  0.6973333  3
   9306   9302   9299   9311     1  0.0000000  1.0460000  1
   9306   9302   9299   9311     1  0.0000000  0.0000000  3
   9306   9302   9303   9309     1  0.0000000  1.0460000  1
   9306   9302   9303   9309     1  0.0000000  0.0000000  3
   9306   9302   9310   9313     1  0.0000000  0.6973333  3
   9307   9304   9303   9309     1  0.0000000  0.6508444  3
   9316   9312   9298   9320     1  0.0000000  1.0460000  1
   9316   9312   9298   9320     1  0.0000000  0.0000000  3
   9316   9312   9318   9319     1  0.0000000  0.6973333  3
   9317   9312   9298   9320     1  0.0000000  1.0460000  1
   9317   9312   9298   9320     1  0.0000000  0.0000000  3
   9317   9312   9318   9319     1  0.0000000  0.6973333  3
   9321   9322   9325   9329     1  0.0000000  0.6508444  3
   9321   9322   9334   9337     1  0.0000000  1.0460000  1
   9321   9322   9334   9337     1  0.0000000  0.6694400  3
   9321   9335   9341   9342     1  0.0000000  1.0460000  1
   9321   9335   9341   9342     1  0.0000000  0.6694400  3
   9321   9343   9327   9330     1  0.0000000  1.6038667  3
   9322   9325   9326   9328     1  0.0000000  0.6508444  3
   9322   9325   9333   9336     1  0.0000000  1.0460000  1
   9322   9325   9333   9336     1  0.0000000  0.6694400  3
   9322   9321   9335   9339     1  0.0000000  0.6508444  3
   9322   9321   9335   9340     1  0.0000000  0.6508444  3
   9323   9321   9322   9325     1  0.0000000  0.6508444  3
   9323   9321   9322   9334     1  0.0000000  1.0460000  1
   9323   9321   9322   9334     1  0.0000000  0.0000000  3
   9323   9321   9322   9324     1  0.0000000  0.6508444  3
   9323   9321   9335   9341     1  0.0000000  1.0460000  1
   9323   9321   9335   9341     1  0.0000000  0.0000000  3
   9323   9321   9335   9339     1  0.0000000  0.6508444  3
   9323   9321   9335   9340     1  0.0000000  0.6508444  3
   9323   9321   9343   9327     1  0.0000000  1.6038667  3
   9324   9322   9325   9326     1  0.0000000  0.6508444  3
   9324   9322   9325   9333     1  0.0000000  1.0460000  1
   9324   9322   9325   9333     1  0.0000000  0.0000000  3
   9324   9322   9325   9329     1  0.0000000  0.6508444  3
   9324   9322   9334   9337     1  0.0000000  0.6973333  3
   9324   9322   9321   9335     1  0.0000000  0.6508444  3
   9324   9322   9321   9343     1  0.0000000  1.0460000  1
   9324   9322   9321   9343     1  0.0000000  0.0000000  3
   9325   9326   9327   9330     1  0.0000000  0.6508444  3
   9325   9326   9332   9338     1  0.0000000  1.0460000  1
   9325   9326   9332   9338     1  0.0000000  0.6694400  3
   9325   9322   9334   9337     1  0.0000000  1.0460000  1
   9325   9322   9334   9337     1  0.0000000  0.6694400  3
   9326   9325   9333   9336     1  0.0000000  1.0460000  1
   9326   9325   9333   9336     1  0.0000000  0.6694400  3
   9327   9326   9332   9338     1  0.0000000  1.0460000  1
   9327   9326   9332   9338     1  0.0000000  0.6694400  3
   9327   9326   9325   9329     1  0.0000000  0.6508444  3
   9328   9326   9327   9331     1  0.0000000  1.0460000  1
   9328   9326   9327   9331     1  0.0000000  0.0000000  3
   9328   9326   9327   9343     1  0.0000000  1.0460000  1
   9328   9326   9327   9343     1  0.0000000  0.0000000  3
   9328   9326   9327   9330     1  0.0000000  0.6508444  3
   9328   9326   9332   9338     1  0.0000000  0.6973333  3
   9328   9326   9325   9333     1  0.0000000  1.0460000  1
   9328   9326   9325   9333     1  0.0000000  0.0000000  3
   9328   9326   9325   9329     1  0.0000000  0.6508444  3
   9329   9325   9326   9332     1  0.0000000  1.0460000  1
   9329   9325   9326   9332     1  0.0000000  0.0000000  3
   9329   9325   9333   9336     1  0.0000000  0.6973333  3
   9329   9325   9322   9334     1  0.0000000  1.0460000  1
   9329   9325   9322   9334     1  0.0000000  0.0000000  3
   9330   9327   9326   9332     1  0.0000000  0.6508444  3
   9339   9335   9341   9342     1  0.0000000  0.6973333  3
   9339   9335   9321   9343     1  0.0000000  1.0460000  1
   9339   9335   9321   9343     1  0.0000000  0.0000000  3
   9340   9335   9341   9342     1  0.0000000  0.6973333  3
   9340   9335   9321   9343     1  0.0000000  1.0460000  1
   9340   9335   9321   9343     1  0.0000000  0.0000000  3
   9344   9345   9348   9352     1  0.0000000  0.6508444  3
   9344   9345   9357   9360     1  0.0000000  1.0460000  1
   9344   9345   9357   9360     1  0.0000000  0.6694400  3
   9344   9358   9364   9365     1  0.0000000  1.0460000  1
   9344   9358   9364   9365     1  0.0000000  0.6694400  3
   9344   9366   9350   9353     1  0.0000000  1.6038667  3
   9345   9344   9358   9362     1  0.0000000  0.6508444  3
   9345   9344   9358   9363     1  0.0000000  0.6508444  3
   9345   9348   9349   9351     1  0.0000000  0.6508444  3
   9345   9348   9356   9359     1  0.0000000  1.0460000  1
   9345   9348   9356   9359     1  0.0000000  0.6694400  3
   9346   9344   9345   9348     1  0.0000000  0.6508444  3
   9346   9344   9345   9357     1  0.0000000  1.0460000  1
   9346   9344   9345   9357     1  0.0000000  0.0000000  3
   9346   9344   9345   9347     1  0.0000000  0.6508444  3
   9346   9344   9358   9364     1  0.0000000  1.0460000  1
   9346   9344   9358   9364     1  0.0000000  0.0000000  3
   9346   9344   9358   9362     1  0.0000000  0.6508444  3
   9346   9344   9358   9363     1  0.0000000  0.6508444  3
   9346   9344   9366   9350     1  0.0000000  1.6038667  3
   9347   9345   9344   9358     1  0.0000000  0.6508444  3
   9347   9345   9344   9366     1  0.0000000  1.0460000  1
   9347   9345   9344   9366     1  0.0000000  0.0000000  3
   9347   9345   9348   9349     1  0.0000000  0.6508444  3
   9347   9345   9348   9356     1  0.0000000  1.0460000  1
   9347   9345   9348   9356     1  0.0000000  0.0000000  3
   9347   9345   9348   9352     1  0.0000000  0.6508444  3
   9347   9345   9357   9360     1  0.0000000  0.6973333  3
   9348   9345   9357   9360     1  0.0000000  1.0460000  1
   9348   9345   9357   9360     1  0.0000000  0.6694400  3
   9348   9349   9350   9353     1  0.0000000  0.6508444  3
   9348   9349   9355   9361     1  0.0000000  1.0460000  1
   9348   9349   9355   9361     1  0.0000000  0.6694400  3
   9349   9348   9356   9359     1  0.0000000  1.0460000  1
   9349   9348   9356   9359     1  0.0000000  0.6694400  3
   9350   9349   9348   9352     1  0.0000000  0.6508444  3
   9350   9349   9355   9361     1  0.0000000  1.0460000  1
   9350   9349   9355   9361     1  0.0000000  0.6694400  3
   9351   9349   9348   9356     1  0.0000000  1.0460000  1
   9351   9349   9348   9356     1  0.0000000  0.0000000  3
   9351   9349   9348   9352     1  0.0000000  0.6508444  3
   9351   9349   9350   9354     1  0.0000000  1.0460000  1
   9351   9349   9350   9354     1  0.0000000  0.0000000  3
   9351   9349   9350   9366     1  0.0000000  1.0460000  1
   9351   9349   9350   9366     1  0.0000000  0.0000000  3
   9351   9349   9350   9353     1  0.0000000  0.6508444  3
   9351   9349   9355   9361     1  0.0000000  0.6973333  3
   9352   9348   9345   9357     1  0.0000000  1.0460000  1
   9352   9348   9345   9357     1  0.0000000  0.0000000  3
   9352   9348   9349   9355     1  0.0000000  1.0460000  1
   9352   9348   9349   9355     1  0.0000000  0.0000000  3
   9352   9348   9356   9359     1  0.0000000  0.6973333  3
   9353   9350   9349   9355     1  0.0000000  0.6508444  3
   9362   9358   9344   9366     1  0.0000000  1.0460000  1
   9362   9358   9344   9366     1  0.0000000  0.0000000  3
   9362   9358   9364   9365     1  0.0000000  0.6973333  3
   9363   9358   9344   9366     1  0.0000000  1.0460000  1
   9363   9358   9344   9366     1  0.0000000  0.0000000  3
   9363   9358   9364   9365     1  0.0000000  0.6973333  3
   9367   9368   9371   9375     1  0.0000000  0.6508444  3
   9367   9368   9380   9383     1  0.0000000  1.0460000  1
   9367   9368   9380   9383     1  0.0000000  0.6694400  3
   9367   9381   9387   9388     1  0.0000000  1.0460000  1
   9367   9381   9387   9388     1  0.0000000  0.6694400  3
   9367   9389   9373   9376     1  0.0000000  1.6038667  3
   9368   9371   9372   9374     1  0.0000000  0.6508444  3
   9368   9371   9379   9382     1  0.0000000  1.0460000  1
   9368   9371   9379   9382     1  0.0000000  0.6694400  3
   9368   9367   9381   9385     1  0.0000000  0.6508444  3
   9368   9367   9381   9386     1  0.0000000  0.6508444  3
   9369   9367   9368   9371     1  0.0000000  0.6508444  3
   9369   9367   9368   9380     1  0.0000000  1.0460000  1
   9369   9367   9368   9380     1  0.0000000  0.0000000  3
   9369   9367   9368   9370     1  0.0000000  0.6508444  3
   9369   9367   9381   9387     1  0.0000000  1.0460000  1
   9369   9367   9381   9387     1  0.0000000  0.0000000  3
   9369   9367   9381   9385     1  0.0000000  0.6508444  3
   9369   9367   9381   9386     1  0.0000000  0.6508444  3
   9369   9367   9389   9373     1  0.0000000  1.6038667  3
   9370   9368   9371   9372     1  0.0000000  0.6508444  3
   9370   9368   9371   9379     1  0.0000000  1.0460000  1
   9370   9368   9371   9379     1  0.0000000  0.0000000  3
   9370   9368   9371   9375     1  0.0000000  0.6508444  3
   9370   9368   9380   9383     1  0.0000000  0.6973333  3
   9370   9368   9367   9381     1  0.0000000  0.6508444  3
   9370   9368   9367   9389     1  0.0000000  1.0460000  1
   9370   9368   9367   9389     1  0.0000000  0.0000000  3
   9371   9372   9373   9376     1  0.0000000  0.6508444  3
   9371   9372   9378   9384     1  0.0000000  1.0460000  1
   9371   9372   9378   9384     1  0.0000000  0.6694400  3
   9371   9368   9380   9383     1  0.0000000  1.0460000  1
   9371   9368   9380   9383     1  0.0000000  0.6694400  3
   9372   9371   9379   9382     1  0.0000000  1.0460000  1
   9372   9371   9379   9382     1  0.0000000  0.6694400  3
   9373   9372   9378   9384     1  0.0000000  1.0460000  1
   9373   9372   9378   9384     1  0.0000000  0.6694400  3
   9373   9372   9371   9375     1  0.0000000  0.6508444  3
   9374   9372   9373   9377     1  0.0000000  1.0460000  1
   9374   9372   9373   9377     1  0.0000000  0.0000000  3
   9374   9372   9373   9389     1  0.0000000  1.0460000  1
   9374   9372   9373   9389     1  0.0000000  0.0000000  3
   9374   9372   9373   9376     1  0.0000000  0.6508444  3
   9374   9372   9378   9384     1  0.0000000  0.6973333  3
   9374   9372   9371   9379     1  0.0000000  1.0460000  1
   9374   9372   9371   9379     1  0.0000000  0.0000000  3
   9374   9372   9371   9375     1  0.0000000  0.6508444  3
   9375   9371   9372   9378     1  0.0000000  1.0460000  1
   9375   9371   9372   9378     1  0.0000000  0.0000000  3
   9375   9371   9379   9382     1  0.0000000  0.6973333  3
   9375   9371   9368   9380     1  0.0000000  1.0460000  1
   9375   9371   9368   9380     1  0.0000000  0.0000000  3
   9376   9373   9372   9378     1  0.0000000  0.6508444  3
   9385   9381   9387   9388     1  0.0000000  0.6973333  3
   9385   9381   9367   9389     1  0.0000000  1.0460000  1
   9385   9381   9367   9389     1  0.0000000  0.0000000  3
   9386   9381   9387   9388     1  0.0000000  0.6973333  3
   9386   9381   9367   9389     1  0.0000000  1.0460000  1
   9386   9381   9367   9389     1  0.0000000  0.0000000  3
   9390   9391   9394   9398     1  0.0000000  0.6508444  3
   9390   9391   9403   9406     1  0.0000000  1.0460000  1
   9390   9391   9403   9406     1  0.0000000  0.6694400  3
   9390   9404   9410   9411     1  0.0000000  1.0460000  1
   9390   9404   9410   9411     1  0.0000000  0.6694400  3
   9390   9412   9396   9399     1  0.0000000  1.6038667  3
   9391   9390   9404   9408     1  0.0000000  0.6508444  3
   9391   9390   9404   9409     1  0.0000000  0.6508444  3
   9391   9394   9395   9397     1  0.0000000  0.6508444  3
   9391   9394   9402   9405     1  0.0000000  1.0460000  1
   9391   9394   9402   9405     1  0.0000000  0.6694400  3
   9392   9390   9391   9394     1  0.0000000  0.6508444  3
   9392   9390   9391   9403     1  0.0000000  1.0460000  1
   9392   9390   9391   9403     1  0.0000000  0.0000000  3
   9392   9390   9391   9393     1  0.0000000  0.6508444  3
   9392   9390   9404   9410     1  0.0000000  1.0460000  1
   9392   9390   9404   9410     1  0.0000000  0.0000000  3
   9392   9390   9404   9408     1  0.0000000  0.6508444  3
   9392   9390   9404   9409     1  0.0000000  0.6508444  3
   9392   9390   9412   9396     1  0.0000000  1.6038667  3
   9393   9391   9390   9404     1  0.0000000  0.6508444  3
   9393   9391   9390   9412     1  0.0000000  1.0460000  1
   9393   9391   9390   9412     1  0.0000000  0.0000000  3
   9393   9391   9394   9395     1  0.0000000  0.6508444  3
   9393   9391   9394   9402     1  0.0000000  1.0460000  1
   9393   9391   9394   9402     1  0.0000000  0.0000000  3
   9393   9391   9394   9398     1  0.0000000  0.6508444  3
   9393   9391   9403   9406     1  0.0000000  0.6973333  3
   9394   9391   9403   9406     1  0.0000000  1.0460000  1
   9394   9391   9403   9406     1  0.0000000  0.6694400  3
   9394   9395   9396   9399     1  0.0000000  0.6508444  3
   9394   9395   9401   9407     1  0.0000000  1.0460000  1
   9394   9395   9401   9407     1  0.0000000  0.6694400  3
   9395   9394   9402   9405     1  0.0000000  1.0460000  1
   9395   9394   9402   9405     1  0.0000000  0.6694400  3
   9396   9395   9394   9398     1  0.0000000  0.6508444  3
   9396   9395   9401   9407     1  0.0000000  1.0460000  1
   9396   9395   9401   9407     1  0.0000000  0.6694400  3
   9397   9395   9394   9402     1  0.0000000  1.0460000  1
   9397   9395   9394   9402     1  0.0000000  0.0000000  3
   9397   9395   9394   9398     1  0.0000000  0.6508444  3
   9397   9395   9396   9400     1  0.0000000  1.0460000  1
   9397   9395   9396   9400     1  0.0000000  0.0000000  3
   9397   9395   9396   9412     1  0.0000000  1.0460000  1
   9397   9395   9396   9412     1  0.0000000  0.0000000  3
   9397   9395   9396   9399     1  0.0000000  0.6508444  3
   9397   9395   9401   9407     1  0.0000000  0.6973333  3
   9398   9394   9391   9403     1  0.0000000  1.0460000  1
   9398   9394   9391   9403     1  0.0000000  0.0000000  3
   9398   9394   9395   9401     1  0.0000000  1.0460000  1
   9398   9394   9395   9401     1  0.0000000  0.0000000  3
   9398   9394   9402   9405     1  0.0000000  0.6973333  3
   9399   9396   9395   9401     1  0.0000000  0.6508444  3
   9408   9404   9390   9412     1  0.0000000  1.0460000  1
   9408   9404   9390   9412     1  0.0000000  0.0000000  3
   9408   9404   9410   9411     1  0.0000000  0.6973333  3
   9409   9404   9390   9412     1  0.0000000  1.0460000  1
   9409   9404   9390   9412     1  0.0000000  0.0000000  3
   9409   9404   9410   9411     1  0.0000000  0.6973333  3
   9413   9414   9417   9421     1  0.0000000  0.6508444  3
   9413   9414   9426   9429     1  0.0000000  1.0460000  1
   9413   9414   9426   9429     1  0.0000000  0.6694400  3
   9413   9427   9433   9434     1  0.0000000  1.0460000  1
   9413   9427   9433   9434     1  0.0000000  0.6694400  3
   9413   9435   9419   9422     1  0.0000000  1.6038667  3
   9414   9417   9418   9420     1  0.0000000  0.6508444  3
   9414   9417   9425   9428     1  0.0000000  1.0460000  1
   9414   9417   9425   9428     1  0.0000000  0.6694400  3
   9414   9413   9427   9431     1  0.0000000  0.6508444  3
   9414   9413   9427   9432     1  0.0000000  0.6508444  3
   9415   9413   9414   9417     1  0.0000000  0.6508444  3
   9415   9413   9414   9426     1  0.0000000  1.0460000  1
   9415   9413   9414   9426     1  0.0000000  0.0000000  3
   9415   9413   9414   9416     1  0.0000000  0.6508444  3
   9415   9413   9427   9433     1  0.0000000  1.0460000  1
   9415   9413   9427   9433     1  0.0000000  0.0000000  3
   9415   9413   9427   9431     1  0.0000000  0.6508444  3
   9415   9413   9427   9432     1  0.0000000  0.6508444  3
   9415   9413   9435   9419     1  0.0000000  1.6038667  3
   9416   9414   9417   9418     1  0.0000000  0.6508444  3
   9416   9414   9417   9425     1  0.0000000  1.0460000  1
   9416   9414   9417   9425     1  0.0000000  0.0000000  3
   9416   9414   9417   9421     1  0.0000000  0.6508444  3
   9416   9414   9426   9429     1  0.0000000  0.6973333  3
   9416   9414   9413   9427     1  0.0000000  0.6508444  3
   9416   9414   9413   9435     1  0.0000000  1.0460000  1
   9416   9414   9413   9435     1  0.0000000  0.0000000  3
   9417   9418   9419   9422     1  0.0000000  0.6508444  3
   9417   9418   9424   9430     1  0.0000000  1.0460000  1
   9417   9418   9424   9430     1  0.0000000  0.6694400  3
   9417   9414   9426   9429     1  0.0000000  1.0460000  1
   9417   9414   9426   9429     1  0.0000000  0.6694400  3
   9418   9417   9425   9428     1  0.0000000  1.0460000  1
   9418   9417   9425   9428     1  0.0000000  0.6694400  3
   9419   9418   9424   9430     1  0.0000000  1.0460000  1
   9419   9418   9424   9430     1  0.0000000  0.6694400  3
   9419   9418   9417   9421     1  0.0000000  0.6508444  3
   9420   9418   9419   9423     1  0.0000000  1.0460000  1
   9420   9418   9419   9423     1  0.0000000  0.0000000  3
   9420   9418   9419   9435     1  0.0000000  1.0460000  1
   9420   9418   9419   9435     1  0.0000000  0.0000000  3
   9420   9418   9419   9422     1  0.0000000  0.6508444  3
   9420   9418   9424   9430     1  0.0000000  0.6973333  3
   9420   9418   9417   9425     1  0.0000000  1.0460000  1
   9420   9418   9417   9425     1  0.0000000  0.0000000  3
   9420   9418   9417   9421     1  0.0000000  0.6508444  3
   9421   9417   9418   9424     1  0.0000000  1.0460000  1
   9421   9417   9418   9424     1  0.0000000  0.0000000  3
   9421   9417   9425   9428     1  0.0000000  0.6973333  3
   9421   9417   9414   9426     1  0.0000000  1.0460000  1
   9421   9417   9414   9426     1  0.0000000  0.0000000  3
   9422   9419   9418   9424     1  0.0000000  0.6508444  3
   9431   9427   9433   9434     1  0.0000000  0.6973333  3
   9431   9427   9413   9435     1  0.0000000  1.0460000  1
   9431   9427   9413   9435     1  0.0000000  0.0000000  3
   9432   9427   9433   9434     1  0.0000000  0.6973333  3
   9432   9427   9413   9435     1  0.0000000  1.0460000  1
   9432   9427   9413   9435     1  0.0000000  0.0000000  3
   9436   9437   9440   9444     1  0.0000000  0.6508444  3
   9436   9437   9449   9452     1  0.0000000  1.0460000  1
   9436   9437   9449   9452     1  0.0000000  0.6694400  3
   9436   9450   9456   9457     1  0.0000000  1.0460000  1
   9436   9450   9456   9457     1  0.0000000  0.6694400  3
   9436   9458   9442   9445     1  0.0000000  1.6038667  3
   9437   9436   9450   9454     1  0.0000000  0.6508444  3
   9437   9436   9450   9455     1  0.0000000  0.6508444  3
   9437   9440   9441   9443     1  0.0000000  0.6508444  3
   9437   9440   9448   9451     1  0.0000000  1.0460000  1
   9437   9440   9448   9451     1  0.0000000  0.6694400  3
   9438   9436   9437   9440     1  0.0000000  0.6508444  3
   9438   9436   9437   9449     1  0.0000000  1.0460000  1
   9438   9436   9437   9449     1  0.0000000  0.0000000  3
   9438   9436   9437   9439     1  0.0000000  0.6508444  3
   9438   9436   9450   9456     1  0.0000000  1.0460000  1
   9438   9436   9450   9456     1  0.0000000  0.0000000  3
   9438   9436   9450   9454     1  0.0000000  0.6508444  3
   9438   9436   9450   9455     1  0.0000000  0.6508444  3
   9438   9436   9458   9442     1  0.0000000  1.6038667  3
   9439   9437   9436   9450     1  0.0000000  0.6508444  3
   9439   9437   9436   9458     1  0.0000000  1.0460000  1
   9439   9437   9436   9458     1  0.0000000  0.0000000  3
   9439   9437   9440   9441     1  0.0000000  0.6508444  3
   9439   9437   9440   9448     1  0.0000000  1.0460000  1
   9439   9437   9440   9448     1  0.0000000  0.0000000  3
   9439   9437   9440   9444     1  0.0000000  0.6508444  3
   9439   9437   9449   9452     1  0.0000000  0.6973333  3
   9440   9437   9449   9452     1  0.0000000  1.0460000  1
   9440   9437   9449   9452     1  0.0000000  0.6694400  3
   9440   9441   9442   9445     1  0.0000000  0.6508444  3
   9440   9441   9447   9453     1  0.0000000  1.0460000  1
   9440   9441   9447   9453     1  0.0000000  0.6694400  3
   9441   9440   9448   9451     1  0.0000000  1.0460000  1
   9441   9440   9448   9451     1  0.0000000  0.6694400  3
   9442   9441   9440   9444     1  0.0000000  0.6508444  3
   9442   9441   9447   9453     1  0.0000000  1.0460000  1
   9442   9441   9447   9453     1  0.0000000  0.6694400  3
   9443   9441   9440   9448     1  0.0000000  1.0460000  1
   9443   9441   9440   9448     1  0.0000000  0.0000000  3
   9443   9441   9440   9444     1  0.0000000  0.6508444  3
   9443   9441   9442   9446     1  0.0000000  1.0460000  1
   9443   9441   9442   9446     1  0.0000000  0.0000000  3
   9443   9441   9442   9458     1  0.0000000  1.0460000  1
   9443   9441   9442   9458     1  0.0000000  0.0000000  3
   9443   9441   9442   9445     1  0.0000000  0.6508444  3
   9443   9441   9447   9453     1  0.0000000  0.6973333  3
   9444   9440   9437   9449     1  0.0000000  1.0460000  1
   9444   9440   9437   9449     1  0.0000000  0.0000000  3
   9444   9440   9441   9447     1  0.0000000  1.0460000  1
   9444   9440   9441   9447     1  0.0000000  0.0000000  3
   9444   9440   9448   9451     1  0.0000000  0.6973333  3
   9445   9442   9441   9447     1  0.0000000  0.6508444  3
   9454   9450   9436   9458     1  0.0000000  1.0460000  1
   9454   9450   9436   9458     1  0.0000000  0.0000000  3
   9454   9450   9456   9457     1  0.0000000  0.6973333  3
   9455   9450   9436   9458     1  0.0000000  1.0460000  1
   9455   9450   9436   9458     1  0.0000000  0.0000000  3
   9455   9450   9456   9457     1  0.0000000  0.6973333  3
   9459   9460   9463   9467     1  0.0000000  0.6508444  3
   9459   9460   9472   9475     1  0.0000000  1.0460000  1
   9459   9460   9472   9475     1  0.0000000  0.6694400  3
   9459   9473   9479   9480     1  0.0000000  1.0460000  1
   9459   9473   9479   9480     1  0.0000000  0.6694400  3
   9459   9481   9465   9468     1  0.0000000  1.6038667  3
   9460   9463   9464   9466     1  0.0000000  0.6508444  3
   9460   9463   9471   9474     1  0.0000000  1.0460000  1
   9460   9463   9471   9474     1  0.0000000  0.6694400  3
   9460   9459   9473   9477     1  0.0000000  0.6508444  3
   9460   9459   9473   9478     1  0.0000000  0.6508444  3
   9461   9459   9460   9463     1  0.0000000  0.6508444  3
   9461   9459   9460   9472     1  0.0000000  1.0460000  1
   9461   9459   9460   9472     1  0.0000000  0.0000000  3
   9461   9459   9460   9462     1  0.0000000  0.6508444  3
   9461   9459   9473   9479     1  0.0000000  1.0460000  1
   9461   9459   9473   9479     1  0.0000000  0.0000000  3
   9461   9459   9473   9477     1  0.0000000  0.6508444  3
   9461   9459   9473   9478     1  0.0000000  0.6508444  3
   9461   9459   9481   9465     1  0.0000000  1.6038667  3
   9462   9460   9463   9464     1  0.0000000  0.6508444  3
   9462   9460   9463   9471     1  0.0000000  1.0460000  1
   9462   9460   9463   9471     1  0.0000000  0.0000000  3
   9462   9460   9463   9467     1  0.0000000  0.6508444  3
   9462   9460   9472   9475     1  0.0000000  0.6973333  3
   9462   9460   9459   9473     1  0.0000000  0.6508444  3
   9462   9460   9459   9481     1  0.0000000  1.0460000  1
   9462   9460   9459   9481     1  0.0000000  0.0000000  3
   9463   9464   9465   9468     1  0.0000000  0.6508444  3
   9463   9464   9470   9476     1  0.0000000  1.0460000  1
   9463   9464   9470   9476     1  0.0000000  0.6694400  3
   9463   9460   9472   9475     1  0.0000000  1.0460000  1
   9463   9460   9472   9475     1  0.0000000  0.6694400  3
   9464   9463   9471   9474     1  0.0000000  1.0460000  1
   9464   9463   9471   9474     1  0.0000000  0.6694400  3
   9465   9464   9470   9476     1  0.0000000  1.0460000  1
   9465   9464   9470   9476     1  0.0000000  0.6694400  3
   9465   9464   9463   9467     1  0.0000000  0.6508444  3
   9466   9464   9465   9469     1  0.0000000  1.0460000  1
   9466   9464   9465   9469     1  0.0000000  0.0000000  3
   9466   9464   9465   9481     1  0.0000000  1.0460000  1
   9466   9464   9465   9481     1  0.0000000  0.0000000  3
   9466   9464   9465   9468     1  0.0000000  0.6508444  3
   9466   9464   9470   9476     1  0.0000000  0.6973333  3
   9466   9464   9463   9471     1  0.0000000  1.0460000  1
   9466   9464   9463   9471     1  0.0000000  0.0000000  3
   9466   9464   9463   9467     1  0.0000000  0.6508444  3
   9467   9463   9464   9470     1  0.0000000  1.0460000  1
   9467   9463   9464   9470     1  0.0000000  0.0000000  3
   9467   9463   9471   9474     1  0.0000000  0.6973333  3
   9467   9463   9460   9472     1  0.0000000  1.0460000  1
   9467   9463   9460   9472     1  0.0000000  0.0000000  3
   9468   9465   9464   9470     1  0.0000000  0.6508444  3
   9477   9473   9479   9480     1  0.0000000  0.6973333  3
   9477   9473   9459   9481     1  0.0000000  1.0460000  1
   9477   9473   9459   9481     1  0.0000000  0.0000000  3
   9478   9473   9479   9480     1  0.0000000  0.6973333  3
   9478   9473   9459   9481     1  0.0000000  1.0460000  1
   9478   9473   9459   9481     1  0.0000000  0.0000000  3
   9482   9483   9486   9490     1  0.0000000  0.6508444  3
   9482   9483   9495   9498     1  0.0000000  1.0460000  1
   9482   9483   9495   9498     1  0.0000000  0.6694400  3
   9482   9496   9502   9503     1  0.0000000  1.0460000  1
   9482   9496   9502   9503     1  0.0000000  0.6694400  3
   9482   9504   9488   9491     1  0.0000000  1.6038667  3
   9483   9482   9496   9500     1  0.0000000  0.6508444  3
   9483   9482   9496   9501     1  0.0000000  0.6508444  3
   9483   9486   9487   9489     1  0.0000000  0.6508444  3
   9483   9486   9494   9497     1  0.0000000  1.0460000  1
   9483   9486   9494   9497     1  0.0000000  0.6694400  3
   9484   9482   9483   9486     1  0.0000000  0.6508444  3
   9484   9482   9483   9495     1  0.0000000  1.0460000  1
   9484   9482   9483   9495     1  0.0000000  0.0000000  3
   9484   9482   9483   9485     1  0.0000000  0.6508444  3
   9484   9482   9496   9502     1  0.0000000  1.0460000  1
   9484   9482   9496   9502     1  0.0000000  0.0000000  3
   9484   9482   9496   9500     1  0.0000000  0.6508444  3
   9484   9482   9496   9501     1  0.0000000  0.6508444  3
   9484   9482   9504   9488     1  0.0000000  1.6038667  3
   9485   9483   9482   9496     1  0.0000000  0.6508444  3
   9485   9483   9482   9504     1  0.0000000  1.0460000  1
   9485   9483   9482   9504     1  0.0000000  0.0000000  3
   9485   9483   9486   9487     1  0.0000000  0.6508444  3
   9485   9483   9486   9494     1  0.0000000  1.0460000  1
   9485   9483   9486   9494     1  0.0000000  0.0000000  3
   9485   9483   9486   9490     1  0.0000000  0.6508444  3
   9485   9483   9495   9498     1  0.0000000  0.6973333  3
   9486   9483   9495   9498     1  0.0000000  1.0460000  1
   9486   9483   9495   9498     1  0.0000000  0.6694400  3
   9486   9487   9488   9491     1  0.0000000  0.6508444  3
   9486   9487   9493   9499     1  0.0000000  1.0460000  1
   9486   9487   9493   9499     1  0.0000000  0.6694400  3
   9487   9486   9494   9497     1  0.0000000  1.0460000  1
   9487   9486   9494   9497     1  0.0000000  0.6694400  3
   9488   9487   9486   9490     1  0.0000000  0.6508444  3
   9488   9487   9493   9499     1  0.0000000  1.0460000  1
   9488   9487   9493   9499     1  0.0000000  0.6694400  3
   9489   9487   9486   9494     1  0.0000000  1.0460000  1
   9489   9487   9486   9494     1  0.0000000  0.0000000  3
   9489   9487   9486   9490     1  0.0000000  0.6508444  3
   9489   9487   9488   9492     1  0.0000000  1.0460000  1
   9489   9487   9488   9492     1  0.0000000  0.0000000  3
   9489   9487   9488   9504     1  0.0000000  1.0460000  1
   9489   9487   9488   9504     1  0.0000000  0.0000000  3
   9489   9487   9488   9491     1  0.0000000  0.6508444  3
   9489   9487   9493   9499     1  0.0000000  0.6973333  3
   9490   9486   9483   9495     1  0.0000000  1.0460000  1
   9490   9486   9483   9495     1  0.0000000  0.0000000  3
   9490   9486   9487   9493     1  0.0000000  1.0460000  1
   9490   9486   9487   9493     1  0.0000000  0.0000000  3
   9490   9486   9494   9497     1  0.0000000  0.6973333  3
   9491   9488   9487   9493     1  0.0000000  0.6508444  3
   9500   9496   9482   9504     1  0.0000000  1.0460000  1
   9500   9496   9482   9504     1  0.0000000  0.0000000  3
   9500   9496   9502   9503     1  0.0000000  0.6973333  3
   9501   9496   9482   9504     1  0.0000000  1.0460000  1
   9501   9496   9482   9504     1  0.0000000  0.0000000  3
   9501   9496   9502   9503     1  0.0000000  0.6973333  3
   9505   9506   9509   9513     1  0.0000000  0.6508444  3
   9505   9506   9518   9521     1  0.0000000  1.0460000  1
   9505   9506   9518   9521     1  0.0000000  0.6694400  3
   9505   9519   9525   9526     1  0.0000000  1.0460000  1
   9505   9519   9525   9526     1  0.0000000  0.6694400  3
   9505   9527   9511   9514     1  0.0000000  1.6038667  3
   9506   9509   9510   9512     1  0.0000000  0.6508444  3
   9506   9509   9517   9520     1  0.0000000  1.0460000  1
   9506   9509   9517   9520     1  0.0000000  0.6694400  3
   9506   9505   9519   9523     1  0.0000000  0.6508444  3
   9506   9505   9519   9524     1  0.0000000  0.6508444  3
   9507   9505   9506   9509     1  0.0000000  0.6508444  3
   9507   9505   9506   9518     1  0.0000000  1.0460000  1
   9507   9505   9506   9518     1  0.0000000  0.0000000  3
   9507   9505   9506   9508     1  0.0000000  0.6508444  3
   9507   9505   9519   9525     1  0.0000000  1.0460000  1
   9507   9505   9519   9525     1  0.0000000  0.0000000  3
   9507   9505   9519   9523     1  0.0000000  0.6508444  3
   9507   9505   9519   9524     1  0.0000000  0.6508444  3
   9507   9505   9527   9511     1  0.0000000  1.6038667  3
   9508   9506   9509   9510     1  0.0000000  0.6508444  3
   9508   9506   9509   9517     1  0.0000000  1.0460000  1
   9508   9506   9509   9517     1  0.0000000  0.0000000  3
   9508   9506   9509   9513     1  0.0000000  0.6508444  3
   9508   9506   9518   9521     1  0.0000000  0.6973333  3
   9508   9506   9505   9519     1  0.0000000  0.6508444  3
   9508   9506   9505   9527     1  0.0000000  1.0460000  1
   9508   9506   9505   9527     1  0.0000000  0.0000000  3
   9509   9510   9511   9514     1  0.0000000  0.6508444  3
   9509   9510   9516   9522     1  0.0000000  1.0460000  1
   9509   9510   9516   9522     1  0.0000000  0.6694400  3
   9509   9506   9518   9521     1  0.0000000  1.0460000  1
   9509   9506   9518   9521     1  0.0000000  0.6694400  3
   9510   9509   9517   9520     1  0.0000000  1.0460000  1
   9510   9509   9517   9520     1  0.0000000  0.6694400  3
   9511   9510   9516   9522     1  0.0000000  1.0460000  1
   9511   9510   9516   9522     1  0.0000000  0.6694400  3
   9511   9510   9509   9513     1  0.0000000  0.6508444  3
   9512   9510   9511   9515     1  0.0000000  1.0460000  1
   9512   9510   9511   9515     1  0.0000000  0.0000000  3
   9512   9510   9511   9527     1  0.0000000  1.0460000  1
   9512   9510   9511   9527     1  0.0000000  0.0000000  3
   9512   9510   9511   9514     1  0.0000000  0.6508444  3
   9512   9510   9516   9522     1  0.0000000  0.6973333  3
   9512   9510   9509   9517     1  0.0000000  1.0460000  1
   9512   9510   9509   9517     1  0.0000000  0.0000000  3
   9512   9510   9509   9513     1  0.0000000  0.6508444  3
   9513   9509   9510   9516     1  0.0000000  1.0460000  1
   9513   9509   9510   9516     1  0.0000000  0.0000000  3
   9513   9509   9517   9520     1  0.0000000  0.6973333  3
   9513   9509   9506   9518     1  0.0000000  1.0460000  1
   9513   9509   9506   9518     1  0.0000000  0.0000000  3
   9514   9511   9510   9516     1  0.0000000  0.6508444  3
   9523   9519   9525   9526     1  0.0000000  0.6973333  3
   9523   9519   9505   9527     1  0.0000000  1.0460000  1
   9523   9519   9505   9527     1  0.0000000  0.0000000  3
   9524   9519   9525   9526     1  0.0000000  0.6973333  3
   9524   9519   9505   9527     1  0.0000000  1.0460000  1
   9524   9519   9505   9527     1  0.0000000  0.0000000  3
   9528   9529   9532   9536     1  0.0000000  0.6508444  3
   9528   9529   9541   9544     1  0.0000000  1.0460000  1
   9528   9529   9541   9544     1  0.0000000  0.6694400  3
   9528   9542   9548   9549     1  0.0000000  1.0460000  1
   9528   9542   9548   9549     1  0.0000000  0.6694400  3
   9528   9550   9534   9537     1  0.0000000  1.6038667  3
   9529   9528   9542   9546     1  0.0000000  0.6508444  3
   9529   9528   9542   9547     1  0.0000000  0.6508444  3
   9529   9532   9533   9535     1  0.0000000  0.6508444  3
   9529   9532   9540   9543     1  0.0000000  1.0460000  1
   9529   9532   9540   9543     1  0.0000000  0.6694400  3
   9530   9528   9529   9532     1  0.0000000  0.6508444  3
   9530   9528   9529   9541     1  0.0000000  1.0460000  1
   9530   9528   9529   9541     1  0.0000000  0.0000000  3
   9530   9528   9529   9531     1  0.0000000  0.6508444  3
   9530   9528   9542   9548     1  0.0000000  1.0460000  1
   9530   9528   9542   9548     1  0.0000000  0.0000000  3
   9530   9528   9542   9546     1  0.0000000  0.6508444  3
   9530   9528   9542   9547     1  0.0000000  0.6508444  3
   9530   9528   9550   9534     1  0.0000000  1.6038667  3
   9531   9529   9528   9542     1  0.0000000  0.6508444  3
   9531   9529   9528   9550     1  0.0000000  1.0460000  1
   9531   9529   9528   9550     1  0.0000000  0.0000000  3
   9531   9529   9532   9533     1  0.0000000  0.6508444  3
   9531   9529   9532   9540     1  0.0000000  1.0460000  1
   9531   9529   9532   9540     1  0.0000000  0.0000000  3
   9531   9529   9532   9536     1  0.0000000  0.6508444  3
   9531   9529   9541   9544     1  0.0000000  0.6973333  3
   9532   9529   9541   9544     1  0.0000000  1.0460000  1
   9532   9529   9541   9544     1  0.0000000  0.6694400  3
   9532   9533   9534   9537     1  0.0000000  0.6508444  3
   9532   9533   9539   9545     1  0.0000000  1.0460000  1
   9532   9533   9539   9545     1  0.0000000  0.6694400  3
   9533   9532   9540   9543     1  0.0000000  1.0460000  1
   9533   9532   9540   9543     1  0.0000000  0.6694400  3
   9534   9533   9532   9536     1  0.0000000  0.6508444  3
   9534   9533   9539   9545     1  0.0000000  1.0460000  1
   9534   9533   9539   9545     1  0.0000000  0.6694400  3
   9535   9533   9532   9540     1  0.0000000  1.0460000  1
   9535   9533   9532   9540     1  0.0000000  0.0000000  3
   9535   9533   9532   9536     1  0.0000000  0.6508444  3
   9535   9533   9534   9538     1  0.0000000  1.0460000  1
   9535   9533   9534   9538     1  0.0000000  0.0000000  3
   9535   9533   9534   9550     1  0.0000000  1.0460000  1
   9535   9533   9534   9550     1  0.0000000  0.0000000  3
   9535   9533   9534   9537     1  0.0000000  0.6508444  3
   9535   9533   9539   9545     1  0.0000000  0.6973333  3
   9536   9532   9529   9541     1  0.0000000  1.0460000  1
   9536   9532   9529   9541     1  0.0000000  0.0000000  3
   9536   9532   9533   9539     1  0.0000000  1.0460000  1
   9536   9532   9533   9539     1  0.0000000  0.0000000  3
   9536   9532   9540   9543     1  0.0000000  0.6973333  3
   9537   9534   9533   9539     1  0.0000000  0.6508444  3
   9546   9542   9528   9550     1  0.0000000  1.0460000  1
   9546   9542   9528   9550     1  0.0000000  0.0000000  3
   9546   9542   9548   9549     1  0.0000000  0.6973333  3
   9547   9542   9528   9550     1  0.0000000  1.0460000  1
   9547   9542   9528   9550     1  0.0000000  0.0000000  3
   9547   9542   9548   9549     1  0.0000000  0.6973333  3
   9551   9552   9555   9559     1  0.0000000  0.6508444  3
   9551   9552   9564   9567     1  0.0000000  1.0460000  1
   9551   9552   9564   9567     1  0.0000000  0.6694400  3
   9551   9565   9571   9572     1  0.0000000  1.0460000  1
   9551   9565   9571   9572     1  0.0000000  0.6694400  3
   9551   9573   9557   9560     1  0.0000000  1.6038667  3
   9552   9555   9556   9558     1  0.0000000  0.6508444  3
   9552   9555   9563   9566     1  0.0000000  1.0460000  1
   9552   9555   9563   9566     1  0.0000000  0.6694400  3
   9552   9551   9565   9569     1  0.0000000  0.6508444  3
   9552   9551   9565   9570     1  0.0000000  0.6508444  3
   9553   9551   9552   9555     1  0.0000000  0.6508444  3
   9553   9551   9552   9564     1  0.0000000  1.0460000  1
   9553   9551   9552   9564     1  0.0000000  0.0000000  3
   9553   9551   9552   9554     1  0.0000000  0.6508444  3
   9553   9551   9565   9571     1  0.0000000  1.0460000  1
   9553   9551   9565   9571     1  0.0000000  0.0000000  3
   9553   9551   9565   9569     1  0.0000000  0.6508444  3
   9553   9551   9565   9570     1  0.0000000  0.6508444  3
   9553   9551   9573   9557     1  0.0000000  1.6038667  3
   9554   9552   9555   9556     1  0.0000000  0.6508444  3
   9554   9552   9555   9563     1  0.0000000  1.0460000  1
   9554   9552   9555   9563     1  0.0000000  0.0000000  3
   9554   9552   9555   9559     1  0.0000000  0.6508444  3
   9554   9552   9564   9567     1  0.0000000  0.6973333  3
   9554   9552   9551   9565     1  0.0000000  0.6508444  3
   9554   9552   9551   9573     1  0.0000000  1.0460000  1
   9554   9552   9551   9573     1  0.0000000  0.0000000  3
   9555   9556   9557   9560     1  0.0000000  0.6508444  3
   9555   9556   9562   9568     1  0.0000000  1.0460000  1
   9555   9556   9562   9568     1  0.0000000  0.6694400  3
   9555   9552   9564   9567     1  0.0000000  1.0460000  1
   9555   9552   9564   9567     1  0.0000000  0.6694400  3
   9556   9555   9563   9566     1  0.0000000  1.0460000  1
   9556   9555   9563   9566     1  0.0000000  0.6694400  3
   9557   9556   9562   9568     1  0.0000000  1.0460000  1
   9557   9556   9562   9568     1  0.0000000  0.6694400  3
   9557   9556   9555   9559     1  0.0000000  0.6508444  3
   9558   9556   9557   9561     1  0.0000000  1.0460000  1
   9558   9556   9557   9561     1  0.0000000  0.0000000  3
   9558   9556   9557   9573     1  0.0000000  1.0460000  1
   9558   9556   9557   9573     1  0.0000000  0.0000000  3
   9558   9556   9557   9560     1  0.0000000  0.6508444  3
   9558   9556   9562   9568     1  0.0000000  0.6973333  3
   9558   9556   9555   9563     1  0.0000000  1.0460000  1
   9558   9556   9555   9563     1  0.0000000  0.0000000  3
   9558   9556   9555   9559     1  0.0000000  0.6508444  3
   9559   9555   9556   9562     1  0.0000000  1.0460000  1
   9559   9555   9556   9562     1  0.0000000  0.0000000  3
   9559   9555   9563   9566     1  0.0000000  0.6973333  3
   9559   9555   9552   9564     1  0.0000000  1.0460000  1
   9559   9555   9552   9564     1  0.0000000  0.0000000  3
   9560   9557   9556   9562     1  0.0000000  0.6508444  3
   9569   9565   9571   9572     1  0.0000000  0.6973333  3
   9569   9565   9551   9573     1  0.0000000  1.0460000  1
   9569   9565   9551   9573     1  0.0000000  0.0000000  3
   9570   9565   9571   9572     1  0.0000000  0.6973333  3
   9570   9565   9551   9573     1  0.0000000  1.0460000  1
   9570   9565   9551   9573     1  0.0000000  0.0000000  3
   9574   9575   9578   9582     1  0.0000000  0.6508444  3
   9574   9575   9587   9590     1  0.0000000  1.0460000  1
   9574   9575   9587   9590     1  0.0000000  0.6694400  3
   9574   9588   9594   9595     1  0.0000000  1.0460000  1
   9574   9588   9594   9595     1  0.0000000  0.6694400  3
   9574   9596   9580   9583     1  0.0000000  1.6038667  3
   9575   9574   9588   9592     1  0.0000000  0.6508444  3
   9575   9574   9588   9593     1  0.0000000  0.6508444  3
   9575   9578   9579   9581     1  0.0000000  0.6508444  3
   9575   9578   9586   9589     1  0.0000000  1.0460000  1
   9575   9578   9586   9589     1  0.0000000  0.6694400  3
   9576   9574   9575   9578     1  0.0000000  0.6508444  3
   9576   9574   9575   9587     1  0.0000000  1.0460000  1
   9576   9574   9575   9587     1  0.0000000  0.0000000  3
   9576   9574   9575   9577     1  0.0000000  0.6508444  3
   9576   9574   9588   9594     1  0.0000000  1.0460000  1
   9576   9574   9588   9594     1  0.0000000  0.0000000  3
   9576   9574   9588   9592     1  0.0000000  0.6508444  3
   9576   9574   9588   9593     1  0.0000000  0.6508444  3
   9576   9574   9596   9580     1  0.0000000  1.6038667  3
   9577   9575   9574   9588     1  0.0000000  0.6508444  3
   9577   9575   9574   9596     1  0.0000000  1.0460000  1
   9577   9575   9574   9596     1  0.0000000  0.0000000  3
   9577   9575   9578   9579     1  0.0000000  0.6508444  3
   9577   9575   9578   9586     1  0.0000000  1.0460000  1
   9577   9575   9578   9586     1  0.0000000  0.0000000  3
   9577   9575   9578   9582     1  0.0000000  0.6508444  3
   9577   9575   9587   9590     1  0.0000000  0.6973333  3
   9578   9575   9587   9590     1  0.0000000  1.0460000  1
   9578   9575   9587   9590     1  0.0000000  0.6694400  3
   9578   9579   9580   9583     1  0.0000000  0.6508444  3
   9578   9579   9585   9591     1  0.0000000  1.0460000  1
   9578   9579   9585   9591     1  0.0000000  0.6694400  3
   9579   9578   9586   9589     1  0.0000000  1.0460000  1
   9579   9578   9586   9589     1  0.0000000  0.6694400  3
   9580   9579   9578   9582     1  0.0000000  0.6508444  3
   9580   9579   9585   9591     1  0.0000000  1.0460000  1
   9580   9579   9585   9591     1  0.0000000  0.6694400  3
   9581   9579   9578   9586     1  0.0000000  1.0460000  1
   9581   9579   9578   9586     1  0.0000000  0.0000000  3
   9581   9579   9578   9582     1  0.0000000  0.6508444  3
   9581   9579   9580   9584     1  0.0000000  1.0460000  1
   9581   9579   9580   9584     1  0.0000000  0.0000000  3
   9581   9579   9580   9596     1  0.0000000  1.0460000  1
   9581   9579   9580   9596     1  0.0000000  0.0000000  3
   9581   9579   9580   9583     1  0.0000000  0.6508444  3
   9581   9579   9585   9591     1  0.0000000  0.6973333  3
   9582   9578   9575   9587     1  0.0000000  1.0460000  1
   9582   9578   9575   9587     1  0.0000000  0.0000000  3
   9582   9578   9579   9585     1  0.0000000  1.0460000  1
   9582   9578   9579   9585     1  0.0000000  0.0000000  3
   9582   9578   9586   9589     1  0.0000000  0.6973333  3
   9583   9580   9579   9585     1  0.0000000  0.6508444  3
   9592   9588   9574   9596     1  0.0000000  1.0460000  1
   9592   9588   9574   9596     1  0.0000000  0.0000000  3
   9592   9588   9594   9595     1  0.0000000  0.6973333  3
   9593   9588   9574   9596     1  0.0000000  1.0460000  1
   9593   9588   9574   9596     1  0.0000000  0.0000000  3
   9593   9588   9594   9595     1  0.0000000  0.6973333  3
   9597   9598   9601   9605     1  0.0000000  0.6508444  3
   9597   9598   9610   9613     1  0.0000000  1.0460000  1
   9597   9598   9610   9613     1  0.0000000  0.6694400  3
   9597   9611   9617   9618     1  0.0000000  1.0460000  1
   9597   9611   9617   9618     1  0.0000000  0.6694400  3
   9597   9619   9603   9606     1  0.0000000  1.6038667  3
   9598   9601   9602   9604     1  0.0000000  0.6508444  3
   9598   9601   9609   9612     1  0.0000000  1.0460000  1
   9598   9601   9609   9612     1  0.0000000  0.6694400  3
   9598   9597   9611   9615     1  0.0000000  0.6508444  3
   9598   9597   9611   9616     1  0.0000000  0.6508444  3
   9599   9597   9598   9601     1  0.0000000  0.6508444  3
   9599   9597   9598   9610     1  0.0000000  1.0460000  1
   9599   9597   9598   9610     1  0.0000000  0.0000000  3
   9599   9597   9598   9600     1  0.0000000  0.6508444  3
   9599   9597   9611   9617     1  0.0000000  1.0460000  1
   9599   9597   9611   9617     1  0.0000000  0.0000000  3
   9599   9597   9611   9615     1  0.0000000  0.6508444  3
   9599   9597   9611   9616     1  0.0000000  0.6508444  3
   9599   9597   9619   9603     1  0.0000000  1.6038667  3
   9600   9598   9601   9602     1  0.0000000  0.6508444  3
   9600   9598   9601   9609     1  0.0000000  1.0460000  1
   9600   9598   9601   9609     1  0.0000000  0.0000000  3
   9600   9598   9601   9605     1  0.0000000  0.6508444  3
   9600   9598   9610   9613     1  0.0000000  0.6973333  3
   9600   9598   9597   9611     1  0.0000000  0.6508444  3
   9600   9598   9597   9619     1  0.0000000  1.0460000  1
   9600   9598   9597   9619     1  0.0000000  0.0000000  3
   9601   9602   9603   9606     1  0.0000000  0.6508444  3
   9601   9602   9608   9614     1  0.0000000  1.0460000  1
   9601   9602   9608   9614     1  0.0000000  0.6694400  3
   9601   9598   9610   9613     1  0.0000000  1.0460000  1
   9601   9598   9610   9613     1  0.0000000  0.6694400  3
   9602   9601   9609   9612     1  0.0000000  1.0460000  1
   9602   9601   9609   9612     1  0.0000000  0.6694400  3
   9603   9602   9608   9614     1  0.0000000  1.0460000  1
   9603   9602   9608   9614     1  0.0000000  0.6694400  3
   9603   9602   9601   9605     1  0.0000000  0.6508444  3
   9604   9602   9603   9607     1  0.0000000  1.0460000  1
   9604   9602   9603   9607     1  0.0000000  0.0000000  3
   9604   9602   9603   9619     1  0.0000000  1.0460000  1
   9604   9602   9603   9619     1  0.0000000  0.0000000  3
   9604   9602   9603   9606     1  0.0000000  0.6508444  3
   9604   9602   9608   9614     1  0.0000000  0.6973333  3
   9604   9602   9601   9609     1  0.0000000  1.0460000  1
   9604   9602   9601   9609     1  0.0000000  0.0000000  3
   9604   9602   9601   9605     1  0.0000000  0.6508444  3
   9605   9601   9602   9608     1  0.0000000  1.0460000  1
   9605   9601   9602   9608     1  0.0000000  0.0000000  3
   9605   9601   9609   9612     1  0.0000000  0.6973333  3
   9605   9601   9598   9610     1  0.0000000  1.0460000  1
   9605   9601   9598   9610     1  0.0000000  0.0000000  3
   9606   9603   9602   9608     1  0.0000000  0.6508444  3
   9615   9611   9617   9618     1  0.0000000  0.6973333  3
   9615   9611   9597   9619     1  0.0000000  1.0460000  1
   9615   9611   9597   9619     1  0.0000000  0.0000000  3
   9616   9611   9617   9618     1  0.0000000  0.6973333  3
   9616   9611   9597   9619     1  0.0000000  1.0460000  1
   9616   9611   9597   9619     1  0.0000000  0.0000000  3
   9620   9621   9624   9628     1  0.0000000  0.6508444  3
   9620   9621   9633   9636     1  0.0000000  1.0460000  1
   9620   9621   9633   9636     1  0.0000000  0.6694400  3
   9620   9634   9640   9641     1  0.0000000  1.0460000  1
   9620   9634   9640   9641     1  0.0000000  0.6694400  3
   9620   9642   9626   9629     1  0.0000000  1.6038667  3
   9621   9620   9634   9638     1  0.0000000  0.6508444  3
   9621   9620   9634   9639     1  0.0000000  0.6508444  3
   9621   9624   9625   9627     1  0.0000000  0.6508444  3
   9621   9624   9632   9635     1  0.0000000  1.0460000  1
   9621   9624   9632   9635     1  0.0000000  0.6694400  3
   9622   9620   9621   9624     1  0.0000000  0.6508444  3
   9622   9620   9621   9633     1  0.0000000  1.0460000  1
   9622   9620   9621   9633     1  0.0000000  0.0000000  3
   9622   9620   9621   9623     1  0.0000000  0.6508444  3
   9622   9620   9634   9640     1  0.0000000  1.0460000  1
   9622   9620   9634   9640     1  0.0000000  0.0000000  3
   9622   9620   9634   9638     1  0.0000000  0.6508444  3
   9622   9620   9634   9639     1  0.0000000  0.6508444  3
   9622   9620   9642   9626     1  0.0000000  1.6038667  3
   9623   9621   9620   9634     1  0.0000000  0.6508444  3
   9623   9621   9620   9642     1  0.0000000  1.0460000  1
   9623   9621   9620   9642     1  0.0000000  0.0000000  3
   9623   9621   9624   9625     1  0.0000000  0.6508444  3
   9623   9621   9624   9632     1  0.0000000  1.0460000  1
   9623   9621   9624   9632     1  0.0000000  0.0000000  3
   9623   9621   9624   9628     1  0.0000000  0.6508444  3
   9623   9621   9633   9636     1  0.0000000  0.6973333  3
   9624   9621   9633   9636     1  0.0000000  1.0460000  1
   9624   9621   9633   9636     1  0.0000000  0.6694400  3
   9624   9625   9626   9629     1  0.0000000  0.6508444  3
   9624   9625   9631   9637     1  0.0000000  1.0460000  1
   9624   9625   9631   9637     1  0.0000000  0.6694400  3
   9625   9624   9632   9635     1  0.0000000  1.0460000  1
   9625   9624   9632   9635     1  0.0000000  0.6694400  3
   9626   9625   9624   9628     1  0.0000000  0.6508444  3
   9626   9625   9631   9637     1  0.0000000  1.0460000  1
   9626   9625   9631   9637     1  0.0000000  0.6694400  3
   9627   9625   9624   9632     1  0.0000000  1.0460000  1
   9627   9625   9624   9632     1  0.0000000  0.0000000  3
   9627   9625   9624   9628     1  0.0000000  0.6508444  3
   9627   9625   9626   9630     1  0.0000000  1.0460000  1
   9627   9625   9626   9630     1  0.0000000  0.0000000  3
   9627   9625   9626   9642     1  0.0000000  1.0460000  1
   9627   9625   9626   9642     1  0.0000000  0.0000000  3
   9627   9625   9626   9629     1  0.0000000  0.6508444  3
   9627   9625   9631   9637     1  0.0000000  0.6973333  3
   9628   9624   9621   9633     1  0.0000000  1.0460000  1
   9628   9624   9621   9633     1  0.0000000  0.0000000  3
   9628   9624   9625   9631     1  0.0000000  1.0460000  1
   9628   9624   9625   9631     1  0.0000000  0.0000000  3
   9628   9624   9632   9635     1  0.0000000  0.6973333  3
   9629   9626   9625   9631     1  0.0000000  0.6508444  3
   9638   9634   9620   9642     1  0.0000000  1.0460000  1
   9638   9634   9620   9642     1  0.0000000  0.0000000  3
   9638   9634   9640   9641     1  0.0000000  0.6973333  3
   9639   9634   9620   9642     1  0.0000000  1.0460000  1
   9639   9634   9620   9642     1  0.0000000  0.0000000  3
   9639   9634   9640   9641     1  0.0000000  0.6973333  3
   9643   9644   9647   9651     1  0.0000000  0.6508444  3
   9643   9644   9656   9659     1  0.0000000  1.0460000  1
   9643   9644   9656   9659     1  0.0000000  0.6694400  3
   9643   9657   9663   9664     1  0.0000000  1.0460000  1
   9643   9657   9663   9664     1  0.0000000  0.6694400  3
   9643   9665   9649   9652     1  0.0000000  1.6038667  3
   9644   9647   9648   9650     1  0.0000000  0.6508444  3
   9644   9647   9655   9658     1  0.0000000  1.0460000  1
   9644   9647   9655   9658     1  0.0000000  0.6694400  3
   9644   9643   9657   9661     1  0.0000000  0.6508444  3
   9644   9643   9657   9662     1  0.0000000  0.6508444  3
   9645   9643   9644   9647     1  0.0000000  0.6508444  3
   9645   9643   9644   9656     1  0.0000000  1.0460000  1
   9645   9643   9644   9656     1  0.0000000  0.0000000  3
   9645   9643   9644   9646     1  0.0000000  0.6508444  3
   9645   9643   9657   9663     1  0.0000000  1.0460000  1
   9645   9643   9657   9663     1  0.0000000  0.0000000  3
   9645   9643   9657   9661     1  0.0000000  0.6508444  3
   9645   9643   9657   9662     1  0.0000000  0.6508444  3
   9645   9643   9665   9649     1  0.0000000  1.6038667  3
   9646   9644   9647   9648     1  0.0000000  0.6508444  3
   9646   9644   9647   9655     1  0.0000000  1.0460000  1
   9646   9644   9647   9655     1  0.0000000  0.0000000  3
   9646   9644   9647   9651     1  0.0000000  0.6508444  3
   9646   9644   9656   9659     1  0.0000000  0.6973333  3
   9646   9644   9643   9657     1  0.0000000  0.6508444  3
   9646   9644   9643   9665     1  0.0000000  1.0460000  1
   9646   9644   9643   9665     1  0.0000000  0.0000000  3
   9647   9648   9649   9652     1  0.0000000  0.6508444  3
   9647   9648   9654   9660     1  0.0000000  1.0460000  1
   9647   9648   9654   9660     1  0.0000000  0.6694400  3
   9647   9644   9656   9659     1  0.0000000  1.0460000  1
   9647   9644   9656   9659     1  0.0000000  0.6694400  3
   9648   9647   9655   9658     1  0.0000000  1.0460000  1
   9648   9647   9655   9658     1  0.0000000  0.6694400  3
   9649   9648   9654   9660     1  0.0000000  1.0460000  1
   9649   9648   9654   9660     1  0.0000000  0.6694400  3
   9649   9648   9647   9651     1  0.0000000  0.6508444  3
   9650   9648   9649   9653     1  0.0000000  1.0460000  1
   9650   9648   9649   9653     1  0.0000000  0.0000000  3
   9650   9648   9649   9665     1  0.0000000  1.0460000  1
   9650   9648   9649   9665     1  0.0000000  0.0000000  3
   9650   9648   9649   9652     1  0.0000000  0.6508444  3
   9650   9648   9654   9660     1  0.0000000  0.6973333  3
   9650   9648   9647   9655     1  0.0000000  1.0460000  1
   9650   9648   9647   9655     1  0.0000000  0.0000000  3
   9650   9648   9647   9651     1  0.0000000  0.6508444  3
   9651   9647   9648   9654     1  0.0000000  1.0460000  1
   9651   9647   9648   9654     1  0.0000000  0.0000000  3
   9651   9647   9655   9658     1  0.0000000  0.6973333  3
   9651   9647   9644   9656     1  0.0000000  1.0460000  1
   9651   9647   9644   9656     1  0.0000000  0.0000000  3
   9652   9649   9648   9654     1  0.0000000  0.6508444  3
   9661   9657   9663   9664     1  0.0000000  0.6973333  3
   9661   9657   9643   9665     1  0.0000000  1.0460000  1
   9661   9657   9643   9665     1  0.0000000  0.0000000  3
   9662   9657   9663   9664     1  0.0000000  0.6973333  3
   9662   9657   9643   9665     1  0.0000000  1.0460000  1
   9662   9657   9643   9665     1  0.0000000  0.0000000  3
   9666   9667   9670   9674     1  0.0000000  0.6508444  3
   9666   9667   9679   9682     1  0.0000000  1.0460000  1
   9666   9667   9679   9682     1  0.0000000  0.6694400  3
   9666   9680   9686   9687     1  0.0000000  1.0460000  1
   9666   9680   9686   9687     1  0.0000000  0.6694400  3
   9666   9688   9672   9675     1  0.0000000  1.6038667  3
   9667   9666   9680   9684     1  0.0000000  0.6508444  3
   9667   9666   9680   9685     1  0.0000000  0.6508444  3
   9667   9670   9671   9673     1  0.0000000  0.6508444  3
   9667   9670   9678   9681     1  0.0000000  1.0460000  1
   9667   9670   9678   9681     1  0.0000000  0.6694400  3
   9668   9666   9667   9670     1  0.0000000  0.6508444  3
   9668   9666   9667   9679     1  0.0000000  1.0460000  1
   9668   9666   9667   9679     1  0.0000000  0.0000000  3
   9668   9666   9667   9669     1  0.0000000  0.6508444  3
   9668   9666   9680   9686     1  0.0000000  1.0460000  1
   9668   9666   9680   9686     1  0.0000000  0.0000000  3
   9668   9666   9680   9684     1  0.0000000  0.6508444  3
   9668   9666   9680   9685     1  0.0000000  0.6508444  3
   9668   9666   9688   9672     1  0.0000000  1.6038667  3
   9669   9667   9666   9680     1  0.0000000  0.6508444  3
   9669   9667   9666   9688     1  0.0000000  1.0460000  1
   9669   9667   9666   9688     1  0.0000000  0.0000000  3
   9669   9667   9670   9671     1  0.0000000  0.6508444  3
   9669   9667   9670   9678     1  0.0000000  1.0460000  1
   9669   9667   9670   9678     1  0.0000000  0.0000000  3
   9669   9667   9670   9674     1  0.0000000  0.6508444  3
   9669   9667   9679   9682     1  0.0000000  0.6973333  3
   9670   9667   9679   9682     1  0.0000000  1.0460000  1
   9670   9667   9679   9682     1  0.0000000  0.6694400  3
   9670   9671   9672   9675     1  0.0000000  0.6508444  3
   9670   9671   9677   9683     1  0.0000000  1.0460000  1
   9670   9671   9677   9683     1  0.0000000  0.6694400  3
   9671   9670   9678   9681     1  0.0000000  1.0460000  1
   9671   9670   9678   9681     1  0.0000000  0.6694400  3
   9672   9671   9670   9674     1  0.0000000  0.6508444  3
   9672   9671   9677   9683     1  0.0000000  1.0460000  1
   9672   9671   9677   9683     1  0.0000000  0.6694400  3
   9673   9671   9670   9678     1  0.0000000  1.0460000  1
   9673   9671   9670   9678     1  0.0000000  0.0000000  3
   9673   9671   9670   9674     1  0.0000000  0.6508444  3
   9673   9671   9672   9676     1  0.0000000  1.0460000  1
   9673   9671   9672   9676     1  0.0000000  0.0000000  3
   9673   9671   9672   9688     1  0.0000000  1.0460000  1
   9673   9671   9672   9688     1  0.0000000  0.0000000  3
   9673   9671   9672   9675     1  0.0000000  0.6508444  3
   9673   9671   9677   9683     1  0.0000000  0.6973333  3
   9674   9670   9667   9679     1  0.0000000  1.0460000  1
   9674   9670   9667   9679     1  0.0000000  0.0000000  3
   9674   9670   9671   9677     1  0.0000000  1.0460000  1
   9674   9670   9671   9677     1  0.0000000  0.0000000  3
   9674   9670   9678   9681     1  0.0000000  0.6973333  3
   9675   9672   9671   9677     1  0.0000000  0.6508444  3
   9684   9680   9666   9688     1  0.0000000  1.0460000  1
   9684   9680   9666   9688     1  0.0000000  0.0000000  3
   9684   9680   9686   9687     1  0.0000000  0.6973333  3
   9685   9680   9666   9688     1  0.0000000  1.0460000  1
   9685   9680   9666   9688     1  0.0000000  0.0000000  3
   9685   9680   9686   9687     1  0.0000000  0.6973333  3
   9689   9690   9693   9697     1  0.0000000  0.6508444  3
   9689   9690   9702   9705     1  0.0000000  1.0460000  1
   9689   9690   9702   9705     1  0.0000000  0.6694400  3
   9689   9703   9709   9710     1  0.0000000  1.0460000  1
   9689   9703   9709   9710     1  0.0000000  0.6694400  3
   9689   9711   9695   9698     1  0.0000000  1.6038667  3
   9690   9693   9694   9696     1  0.0000000  0.6508444  3
   9690   9693   9701   9704     1  0.0000000  1.0460000  1
   9690   9693   9701   9704     1  0.0000000  0.6694400  3
   9690   9689   9703   9707     1  0.0000000  0.6508444  3
   9690   9689   9703   9708     1  0.0000000  0.6508444  3
   9691   9689   9690   9693     1  0.0000000  0.6508444  3
   9691   9689   9690   9702     1  0.0000000  1.0460000  1
   9691   9689   9690   9702     1  0.0000000  0.0000000  3
   9691   9689   9690   9692     1  0.0000000  0.6508444  3
   9691   9689   9703   9709     1  0.0000000  1.0460000  1
   9691   9689   9703   9709     1  0.0000000  0.0000000  3
   9691   9689   9703   9707     1  0.0000000  0.6508444  3
   9691   9689   9703   9708     1  0.0000000  0.6508444  3
   9691   9689   9711   9695     1  0.0000000  1.6038667  3
   9692   9690   9693   9694     1  0.0000000  0.6508444  3
   9692   9690   9693   9701     1  0.0000000  1.0460000  1
   9692   9690   9693   9701     1  0.0000000  0.0000000  3
   9692   9690   9693   9697     1  0.0000000  0.6508444  3
   9692   9690   9702   9705     1  0.0000000  0.6973333  3
   9692   9690   9689   9703     1  0.0000000  0.6508444  3
   9692   9690   9689   9711     1  0.0000000  1.0460000  1
   9692   9690   9689   9711     1  0.0000000  0.0000000  3
   9693   9694   9695   9698     1  0.0000000  0.6508444  3
   9693   9694   9700   9706     1  0.0000000  1.0460000  1
   9693   9694   9700   9706     1  0.0000000  0.6694400  3
   9693   9690   9702   9705     1  0.0000000  1.0460000  1
   9693   9690   9702   9705     1  0.0000000  0.6694400  3
   9694   9693   9701   9704     1  0.0000000  1.0460000  1
   9694   9693   9701   9704     1  0.0000000  0.6694400  3
   9695   9694   9700   9706     1  0.0000000  1.0460000  1
   9695   9694   9700   9706     1  0.0000000  0.6694400  3
   9695   9694   9693   9697     1  0.0000000  0.6508444  3
   9696   9694   9695   9699     1  0.0000000  1.0460000  1
   9696   9694   9695   9699     1  0.0000000  0.0000000  3
   9696   9694   9695   9711     1  0.0000000  1.0460000  1
   9696   9694   9695   9711     1  0.0000000  0.0000000  3
   9696   9694   9695   9698     1  0.0000000  0.6508444  3
   9696   9694   9700   9706     1  0.0000000  0.6973333  3
   9696   9694   9693   9701     1  0.0000000  1.0460000  1
   9696   9694   9693   9701     1  0.0000000  0.0000000  3
   9696   9694   9693   9697     1  0.0000000  0.6508444  3
   9697   9693   9694   9700     1  0.0000000  1.0460000  1
   9697   9693   9694   9700     1  0.0000000  0.0000000  3
   9697   9693   9701   9704     1  0.0000000  0.6973333  3
   9697   9693   9690   9702     1  0.0000000  1.0460000  1
   9697   9693   9690   9702     1  0.0000000  0.0000000  3
   9698   9695   9694   9700     1  0.0000000  0.6508444  3
   9707   9703   9709   9710     1  0.0000000  0.6973333  3
   9707   9703   9689   9711     1  0.0000000  1.0460000  1
   9707   9703   9689   9711     1  0.0000000  0.0000000  3
   9708   9703   9709   9710     1  0.0000000  0.6973333  3
   9708   9703   9689   9711     1  0.0000000  1.0460000  1
   9708   9703   9689   9711     1  0.0000000  0.0000000  3
   9712   9713   9716   9720     1  0.0000000  0.6508444  3
   9712   9713   9725   9728     1  0.0000000  1.0460000  1
   9712   9713   9725   9728     1  0.0000000  0.6694400  3
   9712   9726   9732   9733     1  0.0000000  1.0460000  1
   9712   9726   9732   9733     1  0.0000000  0.6694400  3
   9712   9734   9718   9721     1  0.0000000  1.6038667  3
   9713   9712   9726   9730     1  0.0000000  0.6508444  3
   9713   9712   9726   9731     1  0.0000000  0.6508444  3
   9713   9716   9717   9719     1  0.0000000  0.6508444  3
   9713   9716   9724   9727     1  0.0000000  1.0460000  1
   9713   9716   9724   9727     1  0.0000000  0.6694400  3
   9714   9712   9713   9716     1  0.0000000  0.6508444  3
   9714   9712   9713   9725     1  0.0000000  1.0460000  1
   9714   9712   9713   9725     1  0.0000000  0.0000000  3
   9714   9712   9713   9715     1  0.0000000  0.6508444  3
   9714   9712   9726   9732     1  0.0000000  1.0460000  1
   9714   9712   9726   9732     1  0.0000000  0.0000000  3
   9714   9712   9726   9730     1  0.0000000  0.6508444  3
   9714   9712   9726   9731     1  0.0000000  0.6508444  3
   9714   9712   9734   9718     1  0.0000000  1.6038667  3
   9715   9713   9712   9726     1  0.0000000  0.6508444  3
   9715   9713   9712   9734     1  0.0000000  1.0460000  1
   9715   9713   9712   9734     1  0.0000000  0.0000000  3
   9715   9713   9716   9717     1  0.0000000  0.6508444  3
   9715   9713   9716   9724     1  0.0000000  1.0460000  1
   9715   9713   9716   9724     1  0.0000000  0.0000000  3
   9715   9713   9716   9720     1  0.0000000  0.6508444  3
   9715   9713   9725   9728     1  0.0000000  0.6973333  3
   9716   9713   9725   9728     1  0.0000000  1.0460000  1
   9716   9713   9725   9728     1  0.0000000  0.6694400  3
   9716   9717   9718   9721     1  0.0000000  0.6508444  3
   9716   9717   9723   9729     1  0.0000000  1.0460000  1
   9716   9717   9723   9729     1  0.0000000  0.6694400  3
   9717   9716   9724   9727     1  0.0000000  1.0460000  1
   9717   9716   9724   9727     1  0.0000000  0.6694400  3
   9718   9717   9716   9720     1  0.0000000  0.6508444  3
   9718   9717   9723   9729     1  0.0000000  1.0460000  1
   9718   9717   9723   9729     1  0.0000000  0.6694400  3
   9719   9717   9716   9724     1  0.0000000  1.0460000  1
   9719   9717   9716   9724     1  0.0000000  0.0000000  3
   9719   9717   9716   9720     1  0.0000000  0.6508444  3
   9719   9717   9718   9722     1  0.0000000  1.0460000  1
   9719   9717   9718   9722     1  0.0000000  0.0000000  3
   9719   9717   9718   9734     1  0.0000000  1.0460000  1
   9719   9717   9718   9734     1  0.0000000  0.0000000  3
   9719   9717   9718   9721     1  0.0000000  0.6508444  3
   9719   9717   9723   9729     1  0.0000000  0.6973333  3
   9720   9716   9713   9725     1  0.0000000  1.0460000  1
   9720   9716   9713   9725     1  0.0000000  0.0000000  3
   9720   9716   9717   9723     1  0.0000000  1.0460000  1
   9720   9716   9717   9723     1  0.0000000  0.0000000  3
   9720   9716   9724   9727     1  0.0000000  0.6973333  3
   9721   9718   9717   9723     1  0.0000000  0.6508444  3
   9730   9726   9712   9734     1  0.0000000  1.0460000  1
   9730   9726   9712   9734     1  0.0000000  0.0000000  3
   9730   9726   9732   9733     1  0.0000000  0.6973333  3
   9731   9726   9712   9734     1  0.0000000  1.0460000  1
   9731   9726   9712   9734     1  0.0000000  0.0000000  3
   9731   9726   9732   9733     1  0.0000000  0.6973333  3
   9735   9736   9739   9743     1  0.0000000  0.6508444  3
   9735   9736   9748   9751     1  0.0000000  1.0460000  1
   9735   9736   9748   9751     1  0.0000000  0.6694400  3
   9735   9749   9755   9756     1  0.0000000  1.0460000  1
   9735   9749   9755   9756     1  0.0000000  0.6694400  3
   9735   9757   9741   9744     1  0.0000000  1.6038667  3
   9736   9739   9740   9742     1  0.0000000  0.6508444  3
   9736   9739   9747   9750     1  0.0000000  1.0460000  1
   9736   9739   9747   9750     1  0.0000000  0.6694400  3
   9736   9735   9749   9753     1  0.0000000  0.6508444  3
   9736   9735   9749   9754     1  0.0000000  0.6508444  3
   9737   9735   9736   9739     1  0.0000000  0.6508444  3
   9737   9735   9736   9748     1  0.0000000  1.0460000  1
   9737   9735   9736   9748     1  0.0000000  0.0000000  3
   9737   9735   9736   9738     1  0.0000000  0.6508444  3
   9737   9735   9749   9755     1  0.0000000  1.0460000  1
   9737   9735   9749   9755     1  0.0000000  0.0000000  3
   9737   9735   9749   9753     1  0.0000000  0.6508444  3
   9737   9735   9749   9754     1  0.0000000  0.6508444  3
   9737   9735   9757   9741     1  0.0000000  1.6038667  3
   9738   9736   9739   9740     1  0.0000000  0.6508444  3
   9738   9736   9739   9747     1  0.0000000  1.0460000  1
   9738   9736   9739   9747     1  0.0000000  0.0000000  3
   9738   9736   9739   9743     1  0.0000000  0.6508444  3
   9738   9736   9748   9751     1  0.0000000  0.6973333  3
   9738   9736   9735   9749     1  0.0000000  0.6508444  3
   9738   9736   9735   9757     1  0.0000000  1.0460000  1
   9738   9736   9735   9757     1  0.0000000  0.0000000  3
   9739   9740   9741   9744     1  0.0000000  0.6508444  3
   9739   9740   9746   9752     1  0.0000000  1.0460000  1
   9739   9740   9746   9752     1  0.0000000  0.6694400  3
   9739   9736   9748   9751     1  0.0000000  1.0460000  1
   9739   9736   9748   9751     1  0.0000000  0.6694400  3
   9740   9739   9747   9750     1  0.0000000  1.0460000  1
   9740   9739   9747   9750     1  0.0000000  0.6694400  3
   9741   9740   9746   9752     1  0.0000000  1.0460000  1
   9741   9740   9746   9752     1  0.0000000  0.6694400  3
   9741   9740   9739   9743     1  0.0000000  0.6508444  3
   9742   9740   9741   9745     1  0.0000000  1.0460000  1
   9742   9740   9741   9745     1  0.0000000  0.0000000  3
   9742   9740   9741   9757     1  0.0000000  1.0460000  1
   9742   9740   9741   9757     1  0.0000000  0.0000000  3
   9742   9740   9741   9744     1  0.0000000  0.6508444  3
   9742   9740   9746   9752     1  0.0000000  0.6973333  3
   9742   9740   9739   9747     1  0.0000000  1.0460000  1
   9742   9740   9739   9747     1  0.0000000  0.0000000  3
   9742   9740   9739   9743     1  0.0000000  0.6508444  3
   9743   9739   9740   9746     1  0.0000000  1.0460000  1
   9743   9739   9740   9746     1  0.0000000  0.0000000  3
   9743   9739   9747   9750     1  0.0000000  0.6973333  3
   9743   9739   9736   9748     1  0.0000000  1.0460000  1
   9743   9739   9736   9748     1  0.0000000  0.0000000  3
   9744   9741   9740   9746     1  0.0000000  0.6508444  3
   9753   9749   9755   9756     1  0.0000000  0.6973333  3
   9753   9749   9735   9757     1  0.0000000  1.0460000  1
   9753   9749   9735   9757     1  0.0000000  0.0000000  3
   9754   9749   9755   9756     1  0.0000000  0.6973333  3
   9754   9749   9735   9757     1  0.0000000  1.0460000  1
   9754   9749   9735   9757     1  0.0000000  0.0000000  3
   9758   9759   9762   9766     1  0.0000000  0.6508444  3
   9758   9759   9771   9774     1  0.0000000  1.0460000  1
   9758   9759   9771   9774     1  0.0000000  0.6694400  3
   9758   9772   9778   9779     1  0.0000000  1.0460000  1
   9758   9772   9778   9779     1  0.0000000  0.6694400  3
   9758   9780   9764   9767     1  0.0000000  1.6038667  3
   9759   9758   9772   9776     1  0.0000000  0.6508444  3
   9759   9758   9772   9777     1  0.0000000  0.6508444  3
   9759   9762   9763   9765     1  0.0000000  0.6508444  3
   9759   9762   9770   9773     1  0.0000000  1.0460000  1
   9759   9762   9770   9773     1  0.0000000  0.6694400  3
   9760   9758   9759   9762     1  0.0000000  0.6508444  3
   9760   9758   9759   9771     1  0.0000000  1.0460000  1
   9760   9758   9759   9771     1  0.0000000  0.0000000  3
   9760   9758   9759   9761     1  0.0000000  0.6508444  3
   9760   9758   9772   9778     1  0.0000000  1.0460000  1
   9760   9758   9772   9778     1  0.0000000  0.0000000  3
   9760   9758   9772   9776     1  0.0000000  0.6508444  3
   9760   9758   9772   9777     1  0.0000000  0.6508444  3
   9760   9758   9780   9764     1  0.0000000  1.6038667  3
   9761   9759   9758   9772     1  0.0000000  0.6508444  3
   9761   9759   9758   9780     1  0.0000000  1.0460000  1
   9761   9759   9758   9780     1  0.0000000  0.0000000  3
   9761   9759   9762   9763     1  0.0000000  0.6508444  3
   9761   9759   9762   9770     1  0.0000000  1.0460000  1
   9761   9759   9762   9770     1  0.0000000  0.0000000  3
   9761   9759   9762   9766     1  0.0000000  0.6508444  3
   9761   9759   9771   9774     1  0.0000000  0.6973333  3
   9762   9759   9771   9774     1  0.0000000  1.0460000  1
   9762   9759   9771   9774     1  0.0000000  0.6694400  3
   9762   9763   9764   9767     1  0.0000000  0.6508444  3
   9762   9763   9769   9775     1  0.0000000  1.0460000  1
   9762   9763   9769   9775     1  0.0000000  0.6694400  3
   9763   9762   9770   9773     1  0.0000000  1.0460000  1
   9763   9762   9770   9773     1  0.0000000  0.6694400  3
   9764   9763   9762   9766     1  0.0000000  0.6508444  3
   9764   9763   9769   9775     1  0.0000000  1.0460000  1
   9764   9763   9769   9775     1  0.0000000  0.6694400  3
   9765   9763   9762   9770     1  0.0000000  1.0460000  1
   9765   9763   9762   9770     1  0.0000000  0.0000000  3
   9765   9763   9762   9766     1  0.0000000  0.6508444  3
   9765   9763   9764   9768     1  0.0000000  1.0460000  1
   9765   9763   9764   9768     1  0.0000000  0.0000000  3
   9765   9763   9764   9780     1  0.0000000  1.0460000  1
   9765   9763   9764   9780     1  0.0000000  0.0000000  3
   9765   9763   9764   9767     1  0.0000000  0.6508444  3
   9765   9763   9769   9775     1  0.0000000  0.6973333  3
   9766   9762   9759   9771     1  0.0000000  1.0460000  1
   9766   9762   9759   9771     1  0.0000000  0.0000000  3
   9766   9762   9763   9769     1  0.0000000  1.0460000  1
   9766   9762   9763   9769     1  0.0000000  0.0000000  3
   9766   9762   9770   9773     1  0.0000000  0.6973333  3
   9767   9764   9763   9769     1  0.0000000  0.6508444  3
   9776   9772   9758   9780     1  0.0000000  1.0460000  1
   9776   9772   9758   9780     1  0.0000000  0.0000000  3
   9776   9772   9778   9779     1  0.0000000  0.6973333  3
   9777   9772   9758   9780     1  0.0000000  1.0460000  1
   9777   9772   9758   9780     1  0.0000000  0.0000000  3
   9777   9772   9778   9779     1  0.0000000  0.6973333  3
   9781   9782   9785   9789     1  0.0000000  0.6508444  3
   9781   9782   9794   9797     1  0.0000000  1.0460000  1
   9781   9782   9794   9797     1  0.0000000  0.6694400  3
   9781   9795   9801   9802     1  0.0000000  1.0460000  1
   9781   9795   9801   9802     1  0.0000000  0.6694400  3
   9781   9803   9787   9790     1  0.0000000  1.6038667  3
   9782   9785   9786   9788     1  0.0000000  0.6508444  3
   9782   9785   9793   9796     1  0.0000000  1.0460000  1
   9782   9785   9793   9796     1  0.0000000  0.6694400  3
   9782   9781   9795   9799     1  0.0000000  0.6508444  3
   9782   9781   9795   9800     1  0.0000000  0.6508444  3
   9783   9781   9782   9785     1  0.0000000  0.6508444  3
   9783   9781   9782   9794     1  0.0000000  1.0460000  1
   9783   9781   9782   9794     1  0.0000000  0.0000000  3
   9783   9781   9782   9784     1  0.0000000  0.6508444  3
   9783   9781   9795   9801     1  0.0000000  1.0460000  1
   9783   9781   9795   9801     1  0.0000000  0.0000000  3
   9783   9781   9795   9799     1  0.0000000  0.6508444  3
   9783   9781   9795   9800     1  0.0000000  0.6508444  3
   9783   9781   9803   9787     1  0.0000000  1.6038667  3
   9784   9782   9785   9786     1  0.0000000  0.6508444  3
   9784   9782   9785   9793     1  0.0000000  1.0460000  1
   9784   9782   9785   9793     1  0.0000000  0.0000000  3
   9784   9782   9785   9789     1  0.0000000  0.6508444  3
   9784   9782   9794   9797     1  0.0000000  0.6973333  3
   9784   9782   9781   9795     1  0.0000000  0.6508444  3
   9784   9782   9781   9803     1  0.0000000  1.0460000  1
   9784   9782   9781   9803     1  0.0000000  0.0000000  3
   9785   9786   9787   9790     1  0.0000000  0.6508444  3
   9785   9786   9792   9798     1  0.0000000  1.0460000  1
   9785   9786   9792   9798     1  0.0000000  0.6694400  3
   9785   9782   9794   9797     1  0.0000000  1.0460000  1
   9785   9782   9794   9797     1  0.0000000  0.6694400  3
   9786   9785   9793   9796     1  0.0000000  1.0460000  1
   9786   9785   9793   9796     1  0.0000000  0.6694400  3
   9787   9786   9792   9798     1  0.0000000  1.0460000  1
   9787   9786   9792   9798     1  0.0000000  0.6694400  3
   9787   9786   9785   9789     1  0.0000000  0.6508444  3
   9788   9786   9787   9791     1  0.0000000  1.0460000  1
   9788   9786   9787   9791     1  0.0000000  0.0000000  3
   9788   9786   9787   9803     1  0.0000000  1.0460000  1
   9788   9786   9787   9803     1  0.0000000  0.0000000  3
   9788   9786   9787   9790     1  0.0000000  0.6508444  3
   9788   9786   9792   9798     1  0.0000000  0.6973333  3
   9788   9786   9785   9793     1  0.0000000  1.0460000  1
   9788   9786   9785   9793     1  0.0000000  0.0000000  3
   9788   9786   9785   9789     1  0.0000000  0.6508444  3
   9789   9785   9786   9792     1  0.0000000  1.0460000  1
   9789   9785   9786   9792     1  0.0000000  0.0000000  3
   9789   9785   9793   9796     1  0.0000000  0.6973333  3
   9789   9785   9782   9794     1  0.0000000  1.0460000  1
   9789   9785   9782   9794     1  0.0000000  0.0000000  3
   9790   9787   9786   9792     1  0.0000000  0.6508444  3
   9799   9795   9801   9802     1  0.0000000  0.6973333  3
   9799   9795   9781   9803     1  0.0000000  1.0460000  1
   9799   9795   9781   9803     1  0.0000000  0.0000000  3
   9800   9795   9801   9802     1  0.0000000  0.6973333  3
   9800   9795   9781   9803     1  0.0000000  1.0460000  1
   9800   9795   9781   9803     1  0.0000000  0.0000000  3
   9804   9805   9808   9812     1  0.0000000  0.6508444  3
   9804   9805   9817   9820     1  0.0000000  1.0460000  1
   9804   9805   9817   9820     1  0.0000000  0.6694400  3
   9804   9818   9824   9825     1  0.0000000  1.0460000  1
   9804   9818   9824   9825     1  0.0000000  0.6694400  3
   9804   9826   9810   9813     1  0.0000000  1.6038667  3
   9805   9804   9818   9822     1  0.0000000  0.6508444  3
   9805   9804   9818   9823     1  0.0000000  0.6508444  3
   9805   9808   9809   9811     1  0.0000000  0.6508444  3
   9805   9808   9816   9819     1  0.0000000  1.0460000  1
   9805   9808   9816   9819     1  0.0000000  0.6694400  3
   9806   9804   9805   9808     1  0.0000000  0.6508444  3
   9806   9804   9805   9817     1  0.0000000  1.0460000  1
   9806   9804   9805   9817     1  0.0000000  0.0000000  3
   9806   9804   9805   9807     1  0.0000000  0.6508444  3
   9806   9804   9818   9824     1  0.0000000  1.0460000  1
   9806   9804   9818   9824     1  0.0000000  0.0000000  3
   9806   9804   9818   9822     1  0.0000000  0.6508444  3
   9806   9804   9818   9823     1  0.0000000  0.6508444  3
   9806   9804   9826   9810     1  0.0000000  1.6038667  3
   9807   9805   9804   9818     1  0.0000000  0.6508444  3
   9807   9805   9804   9826     1  0.0000000  1.0460000  1
   9807   9805   9804   9826     1  0.0000000  0.0000000  3
   9807   9805   9808   9809     1  0.0000000  0.6508444  3
   9807   9805   9808   9816     1  0.0000000  1.0460000  1
   9807   9805   9808   9816     1  0.0000000  0.0000000  3
   9807   9805   9808   9812     1  0.0000000  0.6508444  3
   9807   9805   9817   9820     1  0.0000000  0.6973333  3
   9808   9805   9817   9820     1  0.0000000  1.0460000  1
   9808   9805   9817   9820     1  0.0000000  0.6694400  3
   9808   9809   9810   9813     1  0.0000000  0.6508444  3
   9808   9809   9815   9821     1  0.0000000  1.0460000  1
   9808   9809   9815   9821     1  0.0000000  0.6694400  3
   9809   9808   9816   9819     1  0.0000000  1.0460000  1
   9809   9808   9816   9819     1  0.0000000  0.6694400  3
   9810   9809   9808   9812     1  0.0000000  0.6508444  3
   9810   9809   9815   9821     1  0.0000000  1.0460000  1
   9810   9809   9815   9821     1  0.0000000  0.6694400  3
   9811   9809   9808   9816     1  0.0000000  1.0460000  1
   9811   9809   9808   9816     1  0.0000000  0.0000000  3
   9811   9809   9808   9812     1  0.0000000  0.6508444  3
   9811   9809   9810   9814     1  0.0000000  1.0460000  1
   9811   9809   9810   9814     1  0.0000000  0.0000000  3
   9811   9809   9810   9826     1  0.0000000  1.0460000  1
   9811   9809   9810   9826     1  0.0000000  0.0000000  3
   9811   9809   9810   9813     1  0.0000000  0.6508444  3
   9811   9809   9815   9821     1  0.0000000  0.6973333  3
   9812   9808   9805   9817     1  0.0000000  1.0460000  1
   9812   9808   9805   9817     1  0.0000000  0.0000000  3
   9812   9808   9809   9815     1  0.0000000  1.0460000  1
   9812   9808   9809   9815     1  0.0000000  0.0000000  3
   9812   9808   9816   9819     1  0.0000000  0.6973333  3
   9813   9810   9809   9815     1  0.0000000  0.6508444  3
   9822   9818   9804   9826     1  0.0000000  1.0460000  1
   9822   9818   9804   9826     1  0.0000000  0.0000000  3
   9822   9818   9824   9825     1  0.0000000  0.6973333  3
   9823   9818   9804   9826     1  0.0000000  1.0460000  1
   9823   9818   9804   9826     1  0.0000000  0.0000000  3
   9823   9818   9824   9825     1  0.0000000  0.6973333  3
   9827   9828   9831   9835     1  0.0000000  0.6508444  3
   9827   9828   9840   9843     1  0.0000000  1.0460000  1
   9827   9828   9840   9843     1  0.0000000  0.6694400  3
   9827   9841   9847   9848     1  0.0000000  1.0460000  1
   9827   9841   9847   9848     1  0.0000000  0.6694400  3
   9827   9849   9833   9836     1  0.0000000  1.6038667  3
   9828   9831   9832   9834     1  0.0000000  0.6508444  3
   9828   9831   9839   9842     1  0.0000000  1.0460000  1
   9828   9831   9839   9842     1  0.0000000  0.6694400  3
   9828   9827   9841   9845     1  0.0000000  0.6508444  3
   9828   9827   9841   9846     1  0.0000000  0.6508444  3
   9829   9827   9828   9831     1  0.0000000  0.6508444  3
   9829   9827   9828   9840     1  0.0000000  1.0460000  1
   9829   9827   9828   9840     1  0.0000000  0.0000000  3
   9829   9827   9828   9830     1  0.0000000  0.6508444  3
   9829   9827   9841   9847     1  0.0000000  1.0460000  1
   9829   9827   9841   9847     1  0.0000000  0.0000000  3
   9829   9827   9841   9845     1  0.0000000  0.6508444  3
   9829   9827   9841   9846     1  0.0000000  0.6508444  3
   9829   9827   9849   9833     1  0.0000000  1.6038667  3
   9830   9828   9831   9832     1  0.0000000  0.6508444  3
   9830   9828   9831   9839     1  0.0000000  1.0460000  1
   9830   9828   9831   9839     1  0.0000000  0.0000000  3
   9830   9828   9831   9835     1  0.0000000  0.6508444  3
   9830   9828   9840   9843     1  0.0000000  0.6973333  3
   9830   9828   9827   9841     1  0.0000000  0.6508444  3
   9830   9828   9827   9849     1  0.0000000  1.0460000  1
   9830   9828   9827   9849     1  0.0000000  0.0000000  3
   9831   9832   9833   9836     1  0.0000000  0.6508444  3
   9831   9832   9838   9844     1  0.0000000  1.0460000  1
   9831   9832   9838   9844     1  0.0000000  0.6694400  3
   9831   9828   9840   9843     1  0.0000000  1.0460000  1
   9831   9828   9840   9843     1  0.0000000  0.6694400  3
   9832   9831   9839   9842     1  0.0000000  1.0460000  1
   9832   9831   9839   9842     1  0.0000000  0.6694400  3
   9833   9832   9838   9844     1  0.0000000  1.0460000  1
   9833   9832   9838   9844     1  0.0000000  0.6694400  3
   9833   9832   9831   9835     1  0.0000000  0.6508444  3
   9834   9832   9833   9837     1  0.0000000  1.0460000  1
   9834   9832   9833   9837     1  0.0000000  0.0000000  3
   9834   9832   9833   9849     1  0.0000000  1.0460000  1
   9834   9832   9833   9849     1  0.0000000  0.0000000  3
   9834   9832   9833   9836     1  0.0000000  0.6508444  3
   9834   9832   9838   9844     1  0.0000000  0.6973333  3
   9834   9832   9831   9839     1  0.0000000  1.0460000  1
   9834   9832   9831   9839     1  0.0000000  0.0000000  3
   9834   9832   9831   9835     1  0.0000000  0.6508444  3
   9835   9831   9832   9838     1  0.0000000  1.0460000  1
   9835   9831   9832   9838     1  0.0000000  0.0000000  3
   9835   9831   9839   9842     1  0.0000000  0.6973333  3
   9835   9831   9828   9840     1  0.0000000  1.0460000  1
   9835   9831   9828   9840     1  0.0000000  0.0000000  3
   9836   9833   9832   9838     1  0.0000000  0.6508444  3
   9845   9841   9847   9848     1  0.0000000  0.6973333  3
   9845   9841   9827   9849     1  0.0000000  1.0460000  1
   9845   9841   9827   9849     1  0.0000000  0.0000000  3
   9846   9841   9847   9848     1  0.0000000  0.6973333  3
   9846   9841   9827   9849     1  0.0000000  1.0460000  1
   9846   9841   9827   9849     1  0.0000000  0.0000000  3
   9850   9851   9854   9858     1  0.0000000  0.6508444  3
   9850   9851   9863   9866     1  0.0000000  1.0460000  1
   9850   9851   9863   9866     1  0.0000000  0.6694400  3
   9850   9864   9870   9871     1  0.0000000  1.0460000  1
   9850   9864   9870   9871     1  0.0000000  0.6694400  3
   9850   9872   9856   9859     1  0.0000000  1.6038667  3
   9851   9850   9864   9868     1  0.0000000  0.6508444  3
   9851   9850   9864   9869     1  0.0000000  0.6508444  3
   9851   9854   9855   9857     1  0.0000000  0.6508444  3
   9851   9854   9862   9865     1  0.0000000  1.0460000  1
   9851   9854   9862   9865     1  0.0000000  0.6694400  3
   9852   9850   9851   9854     1  0.0000000  0.6508444  3
   9852   9850   9851   9863     1  0.0000000  1.0460000  1
   9852   9850   9851   9863     1  0.0000000  0.0000000  3
   9852   9850   9851   9853     1  0.0000000  0.6508444  3
   9852   9850   9864   9870     1  0.0000000  1.0460000  1
   9852   9850   9864   9870     1  0.0000000  0.0000000  3
   9852   9850   9864   9868     1  0.0000000  0.6508444  3
   9852   9850   9864   9869     1  0.0000000  0.6508444  3
   9852   9850   9872   9856     1  0.0000000  1.6038667  3
   9853   9851   9850   9864     1  0.0000000  0.6508444  3
   9853   9851   9850   9872     1  0.0000000  1.0460000  1
   9853   9851   9850   9872     1  0.0000000  0.0000000  3
   9853   9851   9854   9855     1  0.0000000  0.6508444  3
   9853   9851   9854   9862     1  0.0000000  1.0460000  1
   9853   9851   9854   9862     1  0.0000000  0.0000000  3
   9853   9851   9854   9858     1  0.0000000  0.6508444  3
   9853   9851   9863   9866     1  0.0000000  0.6973333  3
   9854   9851   9863   9866     1  0.0000000  1.0460000  1
   9854   9851   9863   9866     1  0.0000000  0.6694400  3
   9854   9855   9856   9859     1  0.0000000  0.6508444  3
   9854   9855   9861   9867     1  0.0000000  1.0460000  1
   9854   9855   9861   9867     1  0.0000000  0.6694400  3
   9855   9854   9862   9865     1  0.0000000  1.0460000  1
   9855   9854   9862   9865     1  0.0000000  0.6694400  3
   9856   9855   9854   9858     1  0.0000000  0.6508444  3
   9856   9855   9861   9867     1  0.0000000  1.0460000  1
   9856   9855   9861   9867     1  0.0000000  0.6694400  3
   9857   9855   9854   9862     1  0.0000000  1.0460000  1
   9857   9855   9854   9862     1  0.0000000  0.0000000  3
   9857   9855   9854   9858     1  0.0000000  0.6508444  3
   9857   9855   9856   9860     1  0.0000000  1.0460000  1
   9857   9855   9856   9860     1  0.0000000  0.0000000  3
   9857   9855   9856   9872     1  0.0000000  1.0460000  1
   9857   9855   9856   9872     1  0.0000000  0.0000000  3
   9857   9855   9856   9859     1  0.0000000  0.6508444  3
   9857   9855   9861   9867     1  0.0000000  0.6973333  3
   9858   9854   9851   9863     1  0.0000000  1.0460000  1
   9858   9854   9851   9863     1  0.0000000  0.0000000  3
   9858   9854   9855   9861     1  0.0000000  1.0460000  1
   9858   9854   9855   9861     1  0.0000000  0.0000000  3
   9858   9854   9862   9865     1  0.0000000  0.6973333  3
   9859   9856   9855   9861     1  0.0000000  0.6508444  3
   9868   9864   9850   9872     1  0.0000000  1.0460000  1
   9868   9864   9850   9872     1  0.0000000  0.0000000  3
   9868   9864   9870   9871     1  0.0000000  0.6973333  3
   9869   9864   9850   9872     1  0.0000000  1.0460000  1
   9869   9864   9850   9872     1  0.0000000  0.0000000  3
   9869   9864   9870   9871     1  0.0000000  0.6973333  3
   9873   9874   9877   9881     1  0.0000000  0.6508444  3
   9873   9874   9886   9889     1  0.0000000  1.0460000  1
   9873   9874   9886   9889     1  0.0000000  0.6694400  3
   9873   9887   9893   9894     1  0.0000000  1.0460000  1
   9873   9887   9893   9894     1  0.0000000  0.6694400  3
   9873   9895   9879   9882     1  0.0000000  1.6038667  3
   9874   9877   9878   9880     1  0.0000000  0.6508444  3
   9874   9877   9885   9888     1  0.0000000  1.0460000  1
   9874   9877   9885   9888     1  0.0000000  0.6694400  3
   9874   9873   9887   9891     1  0.0000000  0.6508444  3
   9874   9873   9887   9892     1  0.0000000  0.6508444  3
   9875   9873   9874   9877     1  0.0000000  0.6508444  3
   9875   9873   9874   9886     1  0.0000000  1.0460000  1
   9875   9873   9874   9886     1  0.0000000  0.0000000  3
   9875   9873   9874   9876     1  0.0000000  0.6508444  3
   9875   9873   9887   9893     1  0.0000000  1.0460000  1
   9875   9873   9887   9893     1  0.0000000  0.0000000  3
   9875   9873   9887   9891     1  0.0000000  0.6508444  3
   9875   9873   9887   9892     1  0.0000000  0.6508444  3
   9875   9873   9895   9879     1  0.0000000  1.6038667  3
   9876   9874   9877   9878     1  0.0000000  0.6508444  3
   9876   9874   9877   9885     1  0.0000000  1.0460000  1
   9876   9874   9877   9885     1  0.0000000  0.0000000  3
   9876   9874   9877   9881     1  0.0000000  0.6508444  3
   9876   9874   9886   9889     1  0.0000000  0.6973333  3
   9876   9874   9873   9887     1  0.0000000  0.6508444  3
   9876   9874   9873   9895     1  0.0000000  1.0460000  1
   9876   9874   9873   9895     1  0.0000000  0.0000000  3
   9877   9878   9879   9882     1  0.0000000  0.6508444  3
   9877   9878   9884   9890     1  0.0000000  1.0460000  1
   9877   9878   9884   9890     1  0.0000000  0.6694400  3
   9877   9874   9886   9889     1  0.0000000  1.0460000  1
   9877   9874   9886   9889     1  0.0000000  0.6694400  3
   9878   9877   9885   9888     1  0.0000000  1.0460000  1
   9878   9877   9885   9888     1  0.0000000  0.6694400  3
   9879   9878   9884   9890     1  0.0000000  1.0460000  1
   9879   9878   9884   9890     1  0.0000000  0.6694400  3
   9879   9878   9877   9881     1  0.0000000  0.6508444  3
   9880   9878   9879   9883     1  0.0000000  1.0460000  1
   9880   9878   9879   9883     1  0.0000000  0.0000000  3
   9880   9878   9879   9895     1  0.0000000  1.0460000  1
   9880   9878   9879   9895     1  0.0000000  0.0000000  3
   9880   9878   9879   9882     1  0.0000000  0.6508444  3
   9880   9878   9884   9890     1  0.0000000  0.6973333  3
   9880   9878   9877   9885     1  0.0000000  1.0460000  1
   9880   9878   9877   9885     1  0.0000000  0.0000000  3
   9880   9878   9877   9881     1  0.0000000  0.6508444  3
   9881   9877   9878   9884     1  0.0000000  1.0460000  1
   9881   9877   9878   9884     1  0.0000000  0.0000000  3
   9881   9877   9885   9888     1  0.0000000  0.6973333  3
   9881   9877   9874   9886     1  0.0000000  1.0460000  1
   9881   9877   9874   9886     1  0.0000000  0.0000000  3
   9882   9879   9878   9884     1  0.0000000  0.6508444  3
   9891   9887   9893   9894     1  0.0000000  0.6973333  3
   9891   9887   9873   9895     1  0.0000000  1.0460000  1
   9891   9887   9873   9895     1  0.0000000  0.0000000  3
   9892   9887   9893   9894     1  0.0000000  0.6973333  3
   9892   9887   9873   9895     1  0.0000000  1.0460000  1
   9892   9887   9873   9895     1  0.0000000  0.0000000  3
   9896   9897   9900   9904     1  0.0000000  0.6508444  3
   9896   9897   9909   9912     1  0.0000000  1.0460000  1
   9896   9897   9909   9912     1  0.0000000  0.6694400  3
   9896   9910   9916   9917     1  0.0000000  1.0460000  1
   9896   9910   9916   9917     1  0.0000000  0.6694400  3
   9896   9918   9902   9905     1  0.0000000  1.6038667  3
   9897   9896   9910   9914     1  0.0000000  0.6508444  3
   9897   9896   9910   9915     1  0.0000000  0.6508444  3
   9897   9900   9901   9903     1  0.0000000  0.6508444  3
   9897   9900   9908   9911     1  0.0000000  1.0460000  1
   9897   9900   9908   9911     1  0.0000000  0.6694400  3
   9898   9896   9897   9900     1  0.0000000  0.6508444  3
   9898   9896   9897   9909     1  0.0000000  1.0460000  1
   9898   9896   9897   9909     1  0.0000000  0.0000000  3
   9898   9896   9897   9899     1  0.0000000  0.6508444  3
   9898   9896   9910   9916     1  0.0000000  1.0460000  1
   9898   9896   9910   9916     1  0.0000000  0.0000000  3
   9898   9896   9910   9914     1  0.0000000  0.6508444  3
   9898   9896   9910   9915     1  0.0000000  0.6508444  3
   9898   9896   9918   9902     1  0.0000000  1.6038667  3
   9899   9897   9896   9910     1  0.0000000  0.6508444  3
   9899   9897   9896   9918     1  0.0000000  1.0460000  1
   9899   9897   9896   9918     1  0.0000000  0.0000000  3
   9899   9897   9900   9901     1  0.0000000  0.6508444  3
   9899   9897   9900   9908     1  0.0000000  1.0460000  1
   9899   9897   9900   9908     1  0.0000000  0.0000000  3
   9899   9897   9900   9904     1  0.0000000  0.6508444  3
   9899   9897   9909   9912     1  0.0000000  0.6973333  3
   9900   9897   9909   9912     1  0.0000000  1.0460000  1
   9900   9897   9909   9912     1  0.0000000  0.6694400  3
   9900   9901   9902   9905     1  0.0000000  0.6508444  3
   9900   9901   9907   9913     1  0.0000000  1.0460000  1
   9900   9901   9907   9913     1  0.0000000  0.6694400  3
   9901   9900   9908   9911     1  0.0000000  1.0460000  1
   9901   9900   9908   9911     1  0.0000000  0.6694400  3
   9902   9901   9900   9904     1  0.0000000  0.6508444  3
   9902   9901   9907   9913     1  0.0000000  1.0460000  1
   9902   9901   9907   9913     1  0.0000000  0.6694400  3
   9903   9901   9900   9908     1  0.0000000  1.0460000  1
   9903   9901   9900   9908     1  0.0000000  0.0000000  3
   9903   9901   9900   9904     1  0.0000000  0.6508444  3
   9903   9901   9902   9906     1  0.0000000  1.0460000  1
   9903   9901   9902   9906     1  0.0000000  0.0000000  3
   9903   9901   9902   9918     1  0.0000000  1.0460000  1
   9903   9901   9902   9918     1  0.0000000  0.0000000  3
   9903   9901   9902   9905     1  0.0000000  0.6508444  3
   9903   9901   9907   9913     1  0.0000000  0.6973333  3
   9904   9900   9897   9909     1  0.0000000  1.0460000  1
   9904   9900   9897   9909     1  0.0000000  0.0000000  3
   9904   9900   9901   9907     1  0.0000000  1.0460000  1
   9904   9900   9901   9907     1  0.0000000  0.0000000  3
   9904   9900   9908   9911     1  0.0000000  0.6973333  3
   9905   9902   9901   9907     1  0.0000000  0.6508444  3
   9914   9910   9896   9918     1  0.0000000  1.0460000  1
   9914   9910   9896   9918     1  0.0000000  0.0000000  3
   9914   9910   9916   9917     1  0.0000000  0.6973333  3
   9915   9910   9896   9918     1  0.0000000  1.0460000  1
   9915   9910   9896   9918     1  0.0000000  0.0000000  3
   9915   9910   9916   9917     1  0.0000000  0.6973333  3
   9919   9920   9923   9927     1  0.0000000  0.6508444  3
   9919   9920   9932   9935     1  0.0000000  1.0460000  1
   9919   9920   9932   9935     1  0.0000000  0.6694400  3
   9919   9933   9939   9940     1  0.0000000  1.0460000  1
   9919   9933   9939   9940     1  0.0000000  0.6694400  3
   9919   9941   9925   9928     1  0.0000000  1.6038667  3
   9920   9923   9924   9926     1  0.0000000  0.6508444  3
   9920   9923   9931   9934     1  0.0000000  1.0460000  1
   9920   9923   9931   9934     1  0.0000000  0.6694400  3
   9920   9919   9933   9937     1  0.0000000  0.6508444  3
   9920   9919   9933   9938     1  0.0000000  0.6508444  3
   9921   9919   9920   9923     1  0.0000000  0.6508444  3
   9921   9919   9920   9932     1  0.0000000  1.0460000  1
   9921   9919   9920   9932     1  0.0000000  0.0000000  3
   9921   9919   9920   9922     1  0.0000000  0.6508444  3
   9921   9919   9933   9939     1  0.0000000  1.0460000  1
   9921   9919   9933   9939     1  0.0000000  0.0000000  3
   9921   9919   9933   9937     1  0.0000000  0.6508444  3
   9921   9919   9933   9938     1  0.0000000  0.6508444  3
   9921   9919   9941   9925     1  0.0000000  1.6038667  3
   9922   9920   9923   9924     1  0.0000000  0.6508444  3
   9922   9920   9923   9931     1  0.0000000  1.0460000  1
   9922   9920   9923   9931     1  0.0000000  0.0000000  3
   9922   9920   9923   9927     1  0.0000000  0.6508444  3
   9922   9920   9932   9935     1  0.0000000  0.6973333  3
   9922   9920   9919   9933     1  0.0000000  0.6508444  3
   9922   9920   9919   9941     1  0.0000000  1.0460000  1
   9922   9920   9919   9941     1  0.0000000  0.0000000  3
   9923   9924   9925   9928     1  0.0000000  0.6508444  3
   9923   9924   9930   9936     1  0.0000000  1.0460000  1
   9923   9924   9930   9936     1  0.0000000  0.6694400  3
   9923   9920   9932   9935     1  0.0000000  1.0460000  1
   9923   9920   9932   9935     1  0.0000000  0.6694400  3
   9924   9923   9931   9934     1  0.0000000  1.0460000  1
   9924   9923   9931   9934     1  0.0000000  0.6694400  3
   9925   9924   9930   9936     1  0.0000000  1.0460000  1
   9925   9924   9930   9936     1  0.0000000  0.6694400  3
   9925   9924   9923   9927     1  0.0000000  0.6508444  3
   9926   9924   9925   9929     1  0.0000000  1.0460000  1
   9926   9924   9925   9929     1  0.0000000  0.0000000  3
   9926   9924   9925   9941     1  0.0000000  1.0460000  1
   9926   9924   9925   9941     1  0.0000000  0.0000000  3
   9926   9924   9925   9928     1  0.0000000  0.6508444  3
   9926   9924   9930   9936     1  0.0000000  0.6973333  3
   9926   9924   9923   9931     1  0.0000000  1.0460000  1
   9926   9924   9923   9931     1  0.0000000  0.0000000  3
   9926   9924   9923   9927     1  0.0000000  0.6508444  3
   9927   9923   9924   9930     1  0.0000000  1.0460000  1
   9927   9923   9924   9930     1  0.0000000  0.0000000  3
   9927   9923   9931   9934     1  0.0000000  0.6973333  3
   9927   9923   9920   9932     1  0.0000000  1.0460000  1
   9927   9923   9920   9932     1  0.0000000  0.0000000  3
   9928   9925   9924   9930     1  0.0000000  0.6508444  3
   9937   9933   9939   9940     1  0.0000000  0.6973333  3
   9937   9933   9919   9941     1  0.0000000  1.0460000  1
   9937   9933   9919   9941     1  0.0000000  0.0000000  3
   9938   9933   9939   9940     1  0.0000000  0.6973333  3
   9938   9933   9919   9941     1  0.0000000  1.0460000  1
   9938   9933   9919   9941     1  0.0000000  0.0000000  3
   9942   9943   9946   9950     1  0.0000000  0.6508444  3
   9942   9943   9955   9958     1  0.0000000  1.0460000  1
   9942   9943   9955   9958     1  0.0000000  0.6694400  3
   9942   9956   9962   9963     1  0.0000000  1.0460000  1
   9942   9956   9962   9963     1  0.0000000  0.6694400  3
   9942   9964   9948   9951     1  0.0000000  1.6038667  3
   9943   9942   9956   9960     1  0.0000000  0.6508444  3
   9943   9942   9956   9961     1  0.0000000  0.6508444  3
   9943   9946   9947   9949     1  0.0000000  0.6508444  3
   9943   9946   9954   9957     1  0.0000000  1.0460000  1
   9943   9946   9954   9957     1  0.0000000  0.6694400  3
   9944   9942   9943   9946     1  0.0000000  0.6508444  3
   9944   9942   9943   9955     1  0.0000000  1.0460000  1
   9944   9942   9943   9955     1  0.0000000  0.0000000  3
   9944   9942   9943   9945     1  0.0000000  0.6508444  3
   9944   9942   9956   9962     1  0.0000000  1.0460000  1
   9944   9942   9956   9962     1  0.0000000  0.0000000  3
   9944   9942   9956   9960     1  0.0000000  0.6508444  3
   9944   9942   9956   9961     1  0.0000000  0.6508444  3
   9944   9942   9964   9948     1  0.0000000  1.6038667  3
   9945   9943   9942   9956     1  0.0000000  0.6508444  3
   9945   9943   9942   9964     1  0.0000000  1.0460000  1
   9945   9943   9942   9964     1  0.0000000  0.0000000  3
   9945   9943   9946   9947     1  0.0000000  0.6508444  3
   9945   9943   9946   9954     1  0.0000000  1.0460000  1
   9945   9943   9946   9954     1  0.0000000  0.0000000  3
   9945   9943   9946   9950     1  0.0000000  0.6508444  3
   9945   9943   9955   9958     1  0.0000000  0.6973333  3
   9946   9943   9955   9958     1  0.0000000  1.0460000  1
   9946   9943   9955   9958     1  0.0000000  0.6694400  3
   9946   9947   9948   9951     1  0.0000000  0.6508444  3
   9946   9947   9953   9959     1  0.0000000  1.0460000  1
   9946   9947   9953   9959     1  0.0000000  0.6694400  3
   9947   9946   9954   9957     1  0.0000000  1.0460000  1
   9947   9946   9954   9957     1  0.0000000  0.6694400  3
   9948   9947   9946   9950     1  0.0000000  0.6508444  3
   9948   9947   9953   9959     1  0.0000000  1.0460000  1
   9948   9947   9953   9959     1  0.0000000  0.6694400  3
   9949   9947   9946   9954     1  0.0000000  1.0460000  1
   9949   9947   9946   9954     1  0.0000000  0.0000000  3
   9949   9947   9946   9950     1  0.0000000  0.6508444  3
   9949   9947   9948   9952     1  0.0000000  1.0460000  1
   9949   9947   9948   9952     1  0.0000000  0.0000000  3
   9949   9947   9948   9964     1  0.0000000  1.0460000  1
   9949   9947   9948   9964     1  0.0000000  0.0000000  3
   9949   9947   9948   9951     1  0.0000000  0.6508444  3
   9949   9947   9953   9959     1  0.0000000  0.6973333  3
   9950   9946   9943   9955     1  0.0000000  1.0460000  1
   9950   9946   9943   9955     1  0.0000000  0.0000000  3
   9950   9946   9947   9953     1  0.0000000  1.0460000  1
   9950   9946   9947   9953     1  0.0000000  0.0000000  3
   9950   9946   9954   9957     1  0.0000000  0.6973333  3
   9951   9948   9947   9953     1  0.0000000  0.6508444  3
   9960   9956   9942   9964     1  0.0000000  1.0460000  1
   9960   9956   9942   9964     1  0.0000000  0.0000000  3
   9960   9956   9962   9963     1  0.0000000  0.6973333  3
   9961   9956   9942   9964     1  0.0000000  1.0460000  1
   9961   9956   9942   9964     1  0.0000000  0.0000000  3
   9961   9956   9962   9963     1  0.0000000  0.6973333  3
   9965   9966   9969   9973     1  0.0000000  0.6508444  3
   9965   9966   9978   9981     1  0.0000000  1.0460000  1
   9965   9966   9978   9981     1  0.0000000  0.6694400  3
   9965   9979   9985   9986     1  0.0000000  1.0460000  1
   9965   9979   9985   9986     1  0.0000000  0.6694400  3
   9965   9987   9971   9974     1  0.0000000  1.6038667  3
   9966   9969   9970   9972     1  0.0000000  0.6508444  3
   9966   9969   9977   9980     1  0.0000000  1.0460000  1
   9966   9969   9977   9980     1  0.0000000  0.6694400  3
   9966   9965   9979   9983     1  0.0000000  0.6508444  3
   9966   9965   9979   9984     1  0.0000000  0.6508444  3
   9967   9965   9966   9969     1  0.0000000  0.6508444  3
   9967   9965   9966   9978     1  0.0000000  1.0460000  1
   9967   9965   9966   9978     1  0.0000000  0.0000000  3
   9967   9965   9966   9968     1  0.0000000  0.6508444  3
   9967   9965   9979   9985     1  0.0000000  1.0460000  1
   9967   9965   9979   9985     1  0.0000000  0.0000000  3
   9967   9965   9979   9983     1  0.0000000  0.6508444  3
   9967   9965   9979   9984     1  0.0000000  0.6508444  3
   9967   9965   9987   9971     1  0.0000000  1.6038667  3
   9968   9966   9969   9970     1  0.0000000  0.6508444  3
   9968   9966   9969   9977     1  0.0000000  1.0460000  1
   9968   9966   9969   9977     1  0.0000000  0.0000000  3
   9968   9966   9969   9973     1  0.0000000  0.6508444  3
   9968   9966   9978   9981     1  0.0000000  0.6973333  3
   9968   9966   9965   9979     1  0.0000000  0.6508444  3
   9968   9966   9965   9987     1  0.0000000  1.0460000  1
   9968   9966   9965   9987     1  0.0000000  0.0000000  3
   9969   9970   9971   9974     1  0.0000000  0.6508444  3
   9969   9970   9976   9982     1  0.0000000  1.0460000  1
   9969   9970   9976   9982     1  0.0000000  0.6694400  3
   9969   9966   9978   9981     1  0.0000000  1.0460000  1
   9969   9966   9978   9981     1  0.0000000  0.6694400  3
   9970   9969   9977   9980     1  0.0000000  1.0460000  1
   9970   9969   9977   9980     1  0.0000000  0.6694400  3
   9971   9970   9976   9982     1  0.0000000  1.0460000  1
   9971   9970   9976   9982     1  0.0000000  0.6694400  3
   9971   9970   9969   9973     1  0.0000000  0.6508444  3
   9972   9970   9971   9975     1  0.0000000  1.0460000  1
   9972   9970   9971   9975     1  0.0000000  0.0000000  3
   9972   9970   9971   9987     1  0.0000000  1.0460000  1
   9972   9970   9971   9987     1  0.0000000  0.0000000  3
   9972   9970   9971   9974     1  0.0000000  0.6508444  3
   9972   9970   9976   9982     1  0.0000000  0.6973333  3
   9972   9970   9969   9977     1  0.0000000  1.0460000  1
   9972   9970   9969   9977     1  0.0000000  0.0000000  3
   9972   9970   9969   9973     1  0.0000000  0.6508444  3
   9973   9969   9970   9976     1  0.0000000  1.0460000  1
   9973   9969   9970   9976     1  0.0000000  0.0000000  3
   9973   9969   9977   9980     1  0.0000000  0.6973333  3
   9973   9969   9966   9978     1  0.0000000  1.0460000  1
   9973   9969   9966   9978     1  0.0000000  0.0000000  3
   9974   9971   9970   9976     1  0.0000000  0.6508444  3
   9983   9979   9985   9986     1  0.0000000  0.6973333  3
   9983   9979   9965   9987     1  0.0000000  1.0460000  1
   9983   9979   9965   9987     1  0.0000000  0.0000000  3
   9984   9979   9985   9986     1  0.0000000  0.6973333  3
   9984   9979   9965   9987     1  0.0000000  1.0460000  1
   9984   9979   9965   9987     1  0.0000000  0.0000000  3
   9988   9989   9992   9996     1  0.0000000  0.6508444  3
   9988   9989  10001  10004     1  0.0000000  1.0460000  1
   9988   9989  10001  10004     1  0.0000000  0.6694400  3
   9988  10002  10008  10009     1  0.0000000  1.0460000  1
   9988  10002  10008  10009     1  0.0000000  0.6694400  3
   9988  10010   9994   9997     1  0.0000000  1.6038667  3
   9989   9988  10002  10006     1  0.0000000  0.6508444  3
   9989   9988  10002  10007     1  0.0000000  0.6508444  3
   9989   9992   9993   9995     1  0.0000000  0.6508444  3
   9989   9992  10000  10003     1  0.0000000  1.0460000  1
   9989   9992  10000  10003     1  0.0000000  0.6694400  3
   9990   9988   9989   9992     1  0.0000000  0.6508444  3
   9990   9988   9989  10001     1  0.0000000  1.0460000  1
   9990   9988   9989  10001     1  0.0000000  0.0000000  3
   9990   9988   9989   9991     1  0.0000000  0.6508444  3
   9990   9988  10002  10008     1  0.0000000  1.0460000  1
   9990   9988  10002  10008     1  0.0000000  0.0000000  3
   9990   9988  10002  10006     1  0.0000000  0.6508444  3
   9990   9988  10002  10007     1  0.0000000  0.6508444  3
   9990   9988  10010   9994     1  0.0000000  1.6038667  3
   9991   9989   9988  10002     1  0.0000000  0.6508444  3
   9991   9989   9988  10010     1  0.0000000  1.0460000  1
   9991   9989   9988  10010     1  0.0000000  0.0000000  3
   9991   9989   9992   9993     1  0.0000000  0.6508444  3
   9991   9989   9992  10000     1  0.0000000  1.0460000  1
   9991   9989   9992  10000     1  0.0000000  0.0000000  3
   9991   9989   9992   9996     1  0.0000000  0.6508444  3
   9991   9989  10001  10004     1  0.0000000  0.6973333  3
   9992   9989  10001  10004     1  0.0000000  1.0460000  1
   9992   9989  10001  10004     1  0.0000000  0.6694400  3
   9992   9993   9994   9997     1  0.0000000  0.6508444  3
   9992   9993   9999  10005     1  0.0000000  1.0460000  1
   9992   9993   9999  10005     1  0.0000000  0.6694400  3
   9993   9992  10000  10003     1  0.0000000  1.0460000  1
   9993   9992  10000  10003     1  0.0000000  0.6694400  3
   9994   9993   9992   9996     1  0.0000000  0.6508444  3
   9994   9993   9999  10005     1  0.0000000  1.0460000  1
   9994   9993   9999  10005     1  0.0000000  0.6694400  3
   9995   9993   9992  10000     1  0.0000000  1.0460000  1
   9995   9993   9992  10000     1  0.0000000  0.0000000  3
   9995   9993   9992   9996     1  0.0000000  0.6508444  3
   9995   9993   9994   9998     1  0.0000000  1.0460000  1
   9995   9993   9994   9998     1  0.0000000  0.0000000  3
   9995   9993   9994  10010     1  0.0000000  1.0460000  1
   9995   9993   9994  10010     1  0.0000000  0.0000000  3
   9995   9993   9994   9997     1  0.0000000  0.6508444  3
   9995   9993   9999  10005     1  0.0000000  0.6973333  3
   9996   9992   9989  10001     1  0.0000000  1.0460000  1
   9996   9992   9989  10001     1  0.0000000  0.0000000  3
   9996   9992   9993   9999     1  0.0000000  1.0460000  1
   9996   9992   9993   9999     1  0.0000000  0.0000000  3
   9996   9992  10000  10003     1  0.0000000  0.6973333  3
   9997   9994   9993   9999     1  0.0000000  0.6508444  3
  10006  10002   9988  10010     1  0.0000000  1.0460000  1
  10006  10002   9988  10010     1  0.0000000  0.0000000  3
  10006  10002  10008  10009     1  0.0000000  0.6973333  3
  10007  10002   9988  10010     1  0.0000000  1.0460000  1
  10007  10002   9988  10010     1  0.0000000  0.0000000  3
  10007  10002  10008  10009     1  0.0000000  0.6973333  3
  10011  10012  10015  10019     1  0.0000000  0.6508444  3
  10011  10012  10024  10027     1  0.0000000  1.0460000  1
  10011  10012  10024  10027     1  0.0000000  0.6694400  3
  10011  10025  10031  10032     1  0.0000000  1.0460000  1
  10011  10025  10031  10032     1  0.0000000  0.6694400  3
  10011  10033  10017  10020     1  0.0000000  1.6038667  3
  10012  10015  10016  10018     1  0.0000000  0.6508444  3
  10012  10015  10023  10026     1  0.0000000  1.0460000  1
  10012  10015  10023  10026     1  0.0000000  0.6694400  3
  10012  10011  10025  10029     1  0.0000000  0.6508444  3
  10012  10011  10025  10030     1  0.0000000  0.6508444  3
  10013  10011  10012  10015     1  0.0000000  0.6508444  3
  10013  10011  10012  10024     1  0.0000000  1.0460000  1
  10013  10011  10012  10024     1  0.0000000  0.0000000  3
  10013  10011  10012  10014     1  0.0000000  0.6508444  3
  10013  10011  10025  10031     1  0.0000000  1.0460000  1
  10013  10011  10025  10031     1  0.0000000  0.0000000  3
  10013  10011  10025  10029     1  0.0000000  0.6508444  3
  10013  10011  10025  10030     1  0.0000000  0.6508444  3
  10013  10011  10033  10017     1  0.0000000  1.6038667  3
  10014  10012  10015  10016     1  0.0000000  0.6508444  3
  10014  10012  10015  10023     1  0.0000000  1.0460000  1
  10014  10012  10015  10023     1  0.0000000  0.0000000  3
  10014  10012  10015  10019     1  0.0000000  0.6508444  3
  10014  10012  10024  10027     1  0.0000000  0.6973333  3
  10014  10012  10011  10025     1  0.0000000  0.6508444  3
  10014  10012  10011  10033     1  0.0000000  1.0460000  1
  10014  10012  10011  10033     1  0.0000000  0.0000000  3
  10015  10016  10017  10020     1  0.0000000  0.6508444  3
  10015  10016  10022  10028     1  0.0000000  1.0460000  1
  10015  10016  10022  10028     1  0.0000000  0.6694400  3
  10015  10012  10024  10027     1  0.0000000  1.0460000  1
  10015  10012  10024  10027     1  0.0000000  0.6694400  3
  10016  10015  10023  10026     1  0.0000000  1.0460000  1
  10016  10015  10023  10026     1  0.0000000  0.6694400  3
  10017  10016  10022  10028     1  0.0000000  1.0460000  1
  10017  10016  10022  10028     1  0.0000000  0.6694400  3
  10017  10016  10015  10019     1  0.0000000  0.6508444  3
  10018  10016  10017  10021     1  0.0000000  1.0460000  1
  10018  10016  10017  10021     1  0.0000000  0.0000000  3
  10018  10016  10017  10033     1  0.0000000  1.0460000  1
  10018  10016  10017  10033     1  0.0000000  0.0000000  3
  10018  10016  10017  10020     1  0.0000000  0.6508444  3
  10018  10016  10022  10028     1  0.0000000  0.6973333  3
  10018  10016  10015  10023     1  0.0000000  1.0460000  1
  10018  10016  10015  10023     1  0.0000000  0.0000000  3
  10018  10016  10015  10019     1  0.0000000  0.6508444  3
  10019  10015  10016  10022     1  0.0000000  1.0460000  1
  10019  10015  10016  10022     1  0.0000000  0.0000000  3
  10019  10015  10023  10026     1  0.0000000  0.6973333  3
  10019  10015  10012  10024     1  0.0000000  1.0460000  1
  10019  10015  10012  10024     1  0.0000000  0.0000000  3
  10020  10017  10016  10022     1  0.0000000  0.6508444  3
  10029  10025  10031  10032     1  0.0000000  0.6973333  3
  10029  10025  10011  10033     1  0.0000000  1.0460000  1
  10029  10025  10011  10033     1  0.0000000  0.0000000  3
  10030  10025  10031  10032     1  0.0000000  0.6973333  3
  10030  10025  10011  10033     1  0.0000000  1.0460000  1
  10030  10025  10011  10033     1  0.0000000  0.0000000  3
  10034  10035  10038  10042     1  0.0000000  0.6508444  3
  10034  10035  10047  10050     1  0.0000000  1.0460000  1
  10034  10035  10047  10050     1  0.0000000  0.6694400  3
  10034  10048  10054  10055     1  0.0000000  1.0460000  1
  10034  10048  10054  10055     1  0.0000000  0.6694400  3
  10034  10056  10040  10043     1  0.0000000  1.6038667  3
  10035  10034  10048  10052     1  0.0000000  0.6508444  3
  10035  10034  10048  10053     1  0.0000000  0.6508444  3
  10035  10038  10039  10041     1  0.0000000  0.6508444  3
  10035  10038  10046  10049     1  0.0000000  1.0460000  1
  10035  10038  10046  10049     1  0.0000000  0.6694400  3
  10036  10034  10035  10038     1  0.0000000  0.6508444  3
  10036  10034  10035  10047     1  0.0000000  1.0460000  1
  10036  10034  10035  10047     1  0.0000000  0.0000000  3
  10036  10034  10035  10037     1  0.0000000  0.6508444  3
  10036  10034  10048  10054     1  0.0000000  1.0460000  1
  10036  10034  10048  10054     1  0.0000000  0.0000000  3
  10036  10034  10048  10052     1  0.0000000  0.6508444  3
  10036  10034  10048  10053     1  0.0000000  0.6508444  3
  10036  10034  10056  10040     1  0.0000000  1.6038667  3
  10037  10035  10034  10048     1  0.0000000  0.6508444  3
  10037  10035  10034  10056     1  0.0000000  1.0460000  1
  10037  10035  10034  10056     1  0.0000000  0.0000000  3
  10037  10035  10038  10039     1  0.0000000  0.6508444  3
  10037  10035  10038  10046     1  0.0000000  1.0460000  1
  10037  10035  10038  10046     1  0.0000000  0.0000000  3
  10037  10035  10038  10042     1  0.0000000  0.6508444  3
  10037  10035  10047  10050     1  0.0000000  0.6973333  3
  10038  10035  10047  10050     1  0.0000000  1.0460000  1
  10038  10035  10047  10050     1  0.0000000  0.6694400  3
  10038  10039  10040  10043     1  0.0000000  0.6508444  3
  10038  10039  10045  10051     1  0.0000000  1.0460000  1
  10038  10039  10045  10051     1  0.0000000  0.6694400  3
  10039  10038  10046  10049     1  0.0000000  1.0460000  1
  10039  10038  10046  10049     1  0.0000000  0.6694400  3
  10040  10039  10038  10042     1  0.0000000  0.6508444  3
  10040  10039  10045  10051     1  0.0000000  1.0460000  1
  10040  10039  10045  10051     1  0.0000000  0.6694400  3
  10041  10039  10038  10046     1  0.0000000  1.0460000  1
  10041  10039  10038  10046     1  0.0000000  0.0000000  3
  10041  10039  10038  10042     1  0.0000000  0.6508444  3
  10041  10039  10040  10044     1  0.0000000  1.0460000  1
  10041  10039  10040  10044     1  0.0000000  0.0000000  3
  10041  10039  10040  10056     1  0.0000000  1.0460000  1
  10041  10039  10040  10056     1  0.0000000  0.0000000  3
  10041  10039  10040  10043     1  0.0000000  0.6508444  3
  10041  10039  10045  10051     1  0.0000000  0.6973333  3
  10042  10038  10035  10047     1  0.0000000  1.0460000  1
  10042  10038  10035  10047     1  0.0000000  0.0000000  3
  10042  10038  10039  10045     1  0.0000000  1.0460000  1
  10042  10038  10039  10045     1  0.0000000  0.0000000  3
  10042  10038  10046  10049     1  0.0000000  0.6973333  3
  10043  10040  10039  10045     1  0.0000000  0.6508444  3
  10052  10048  10034  10056     1  0.0000000  1.0460000  1
  10052  10048  10034  10056     1  0.0000000  0.0000000  3
  10052  10048  10054  10055     1  0.0000000  0.6973333  3
  10053  10048  10034  10056     1  0.0000000  1.0460000  1
  10053  10048  10034  10056     1  0.0000000  0.0000000  3
  10053  10048  10054  10055     1  0.0000000  0.6973333  3
  10057  10058  10061  10065     1  0.0000000  0.6508444  3
  10057  10058  10070  10073     1  0.0000000  1.0460000  1
  10057  10058  10070  10073     1  0.0000000  0.6694400  3
  10057  10071  10077  10078     1  0.0000000  1.0460000  1
  10057  10071  10077  10078     1  0.0000000  0.6694400  3
  10057  10079  10063  10066     1  0.0000000  1.6038667  3
  10058  10061  10062  10064     1  0.0000000  0.6508444  3
  10058  10061  10069  10072     1  0.0000000  1.0460000  1
  10058  10061  10069  10072     1  0.0000000  0.6694400  3
  10058  10057  10071  10075     1  0.0000000  0.6508444  3
  10058  10057  10071  10076     1  0.0000000  0.6508444  3
  10059  10057  10058  10061     1  0.0000000  0.6508444  3
  10059  10057  10058  10070     1  0.0000000  1.0460000  1
  10059  10057  10058  10070     1  0.0000000  0.0000000  3
  10059  10057  10058  10060     1  0.0000000  0.6508444  3
  10059  10057  10071  10077     1  0.0000000  1.0460000  1
  10059  10057  10071  10077     1  0.0000000  0.0000000  3
  10059  10057  10071  10075     1  0.0000000  0.6508444  3
  10059  10057  10071  10076     1  0.0000000  0.6508444  3
  10059  10057  10079  10063     1  0.0000000  1.6038667  3
  10060  10058  10061  10062     1  0.0000000  0.6508444  3
  10060  10058  10061  10069     1  0.0000000  1.0460000  1
  10060  10058  10061  10069     1  0.0000000  0.0000000  3
  10060  10058  10061  10065     1  0.0000000  0.6508444  3
  10060  10058  10070  10073     1  0.0000000  0.6973333  3
  10060  10058  10057  10071     1  0.0000000  0.6508444  3
  10060  10058  10057  10079     1  0.0000000  1.0460000  1
  10060  10058  10057  10079     1  0.0000000  0.0000000  3
  10061  10062  10063  10066     1  0.0000000  0.6508444  3
  10061  10062  10068  10074     1  0.0000000  1.0460000  1
  10061  10062  10068  10074     1  0.0000000  0.6694400  3
  10061  10058  10070  10073     1  0.0000000  1.0460000  1
  10061  10058  10070  10073     1  0.0000000  0.6694400  3
  10062  10061  10069  10072     1  0.0000000  1.0460000  1
  10062  10061  10069  10072     1  0.0000000  0.6694400  3
  10063  10062  10068  10074     1  0.0000000  1.0460000  1
  10063  10062  10068  10074     1  0.0000000  0.6694400  3
  10063  10062  10061  10065     1  0.0000000  0.6508444  3
  10064  10062  10063  10067     1  0.0000000  1.0460000  1
  10064  10062  10063  10067     1  0.0000000  0.0000000  3
  10064  10062  10063  10079     1  0.0000000  1.0460000  1
  10064  10062  10063  10079     1  0.0000000  0.0000000  3
  10064  10062  10063  10066     1  0.0000000  0.6508444  3
  10064  10062  10068  10074     1  0.0000000  0.6973333  3
  10064  10062  10061  10069     1  0.0000000  1.0460000  1
  10064  10062  10061  10069     1  0.0000000  0.0000000  3
  10064  10062  10061  10065     1  0.0000000  0.6508444  3
  10065  10061  10062  10068     1  0.0000000  1.0460000  1
  10065  10061  10062  10068     1  0.0000000  0.0000000  3
  10065  10061  10069  10072     1  0.0000000  0.6973333  3
  10065  10061  10058  10070     1  0.0000000  1.0460000  1
  10065  10061  10058  10070     1  0.0000000  0.0000000  3
  10066  10063  10062  10068     1  0.0000000  0.6508444  3
  10075  10071  10077  10078     1  0.0000000  0.6973333  3
  10075  10071  10057  10079     1  0.0000000  1.0460000  1
  10075  10071  10057  10079     1  0.0000000  0.0000000  3
  10076  10071  10077  10078     1  0.0000000  0.6973333  3
  10076  10071  10057  10079     1  0.0000000  1.0460000  1
  10076  10071  10057  10079     1  0.0000000  0.0000000  3
  10080  10081  10084  10088     1  0.0000000  0.6508444  3
  10080  10081  10093  10096     1  0.0000000  1.0460000  1
  10080  10081  10093  10096     1  0.0000000  0.6694400  3
  10080  10094  10100  10101     1  0.0000000  1.0460000  1
  10080  10094  10100  10101     1  0.0000000  0.6694400  3
  10080  10102  10086  10089     1  0.0000000  1.6038667  3
  10081  10080  10094  10098     1  0.0000000  0.6508444  3
  10081  10080  10094  10099     1  0.0000000  0.6508444  3
  10081  10084  10085  10087     1  0.0000000  0.6508444  3
  10081  10084  10092  10095     1  0.0000000  1.0460000  1
  10081  10084  10092  10095     1  0.0000000  0.6694400  3
  10082  10080  10081  10084     1  0.0000000  0.6508444  3
  10082  10080  10081  10093     1  0.0000000  1.0460000  1
  10082  10080  10081  10093     1  0.0000000  0.0000000  3
  10082  10080  10081  10083     1  0.0000000  0.6508444  3
  10082  10080  10094  10100     1  0.0000000  1.0460000  1
  10082  10080  10094  10100     1  0.0000000  0.0000000  3
  10082  10080  10094  10098     1  0.0000000  0.6508444  3
  10082  10080  10094  10099     1  0.0000000  0.6508444  3
  10082  10080  10102  10086     1  0.0000000  1.6038667  3
  10083  10081  10080  10094     1  0.0000000  0.6508444  3
  10083  10081  10080  10102     1  0.0000000  1.0460000  1
  10083  10081  10080  10102     1  0.0000000  0.0000000  3
  10083  10081  10084  10085     1  0.0000000  0.6508444  3
  10083  10081  10084  10092     1  0.0000000  1.0460000  1
  10083  10081  10084  10092     1  0.0000000  0.0000000  3
  10083  10081  10084  10088     1  0.0000000  0.6508444  3
  10083  10081  10093  10096     1  0.0000000  0.6973333  3
  10084  10081  10093  10096     1  0.0000000  1.0460000  1
  10084  10081  10093  10096     1  0.0000000  0.6694400  3
  10084  10085  10086  10089     1  0.0000000  0.6508444  3
  10084  10085  10091  10097     1  0.0000000  1.0460000  1
  10084  10085  10091  10097     1  0.0000000  0.6694400  3
  10085  10084  10092  10095     1  0.0000000  1.0460000  1
  10085  10084  10092  10095     1  0.0000000  0.6694400  3
  10086  10085  10084  10088     1  0.0000000  0.6508444  3
  10086  10085  10091  10097     1  0.0000000  1.0460000  1
  10086  10085  10091  10097     1  0.0000000  0.6694400  3
  10087  10085  10084  10092     1  0.0000000  1.0460000  1
  10087  10085  10084  10092     1  0.0000000  0.0000000  3
  10087  10085  10084  10088     1  0.0000000  0.6508444  3
  10087  10085  10086  10090     1  0.0000000  1.0460000  1
  10087  10085  10086  10090     1  0.0000000  0.0000000  3
  10087  10085  10086  10102     1  0.0000000  1.0460000  1
  10087  10085  10086  10102     1  0.0000000  0.0000000  3
  10087  10085  10086  10089     1  0.0000000  0.6508444  3
  10087  10085  10091  10097     1  0.0000000  0.6973333  3
  10088  10084  10081  10093     1  0.0000000  1.0460000  1
  10088  10084  10081  10093     1  0.0000000  0.0000000  3
  10088  10084  10085  10091     1  0.0000000  1.0460000  1
  10088  10084  10085  10091     1  0.0000000  0.0000000  3
  10088  10084  10092  10095     1  0.0000000  0.6973333  3
  10089  10086  10085  10091     1  0.0000000  0.6508444  3
  10098  10094  10080  10102     1  0.0000000  1.0460000  1
  10098  10094  10080  10102     1  0.0000000  0.0000000  3
  10098  10094  10100  10101     1  0.0000000  0.6973333  3
  10099  10094  10080  10102     1  0.0000000  1.0460000  1
  10099  10094  10080  10102     1  0.0000000  0.0000000  3
  10099  10094  10100  10101     1  0.0000000  0.6973333  3
  10103  10104  10107  10111     1  0.0000000  0.6508444  3
  10103  10104  10116  10119     1  0.0000000  1.0460000  1
  10103  10104  10116  10119     1  0.0000000  0.6694400  3
  10103  10117  10123  10124     1  0.0000000  1.0460000  1
  10103  10117  10123  10124     1  0.0000000  0.6694400  3
  10103  10125  10109  10112     1  0.0000000  1.6038667  3
  10104  10107  10108  10110     1  0.0000000  0.6508444  3
  10104  10107  10115  10118     1  0.0000000  1.0460000  1
  10104  10107  10115  10118     1  0.0000000  0.6694400  3
  10104  10103  10117  10121     1  0.0000000  0.6508444  3
  10104  10103  10117  10122     1  0.0000000  0.6508444  3
  10105  10103  10104  10107     1  0.0000000  0.6508444  3
  10105  10103  10104  10116     1  0.0000000  1.0460000  1
  10105  10103  10104  10116     1  0.0000000  0.0000000  3
  10105  10103  10104  10106     1  0.0000000  0.6508444  3
  10105  10103  10117  10123     1  0.0000000  1.0460000  1
  10105  10103  10117  10123     1  0.0000000  0.0000000  3
  10105  10103  10117  10121     1  0.0000000  0.6508444  3
  10105  10103  10117  10122     1  0.0000000  0.6508444  3
  10105  10103  10125  10109     1  0.0000000  1.6038667  3
  10106  10104  10107  10108     1  0.0000000  0.6508444  3
  10106  10104  10107  10115     1  0.0000000  1.0460000  1
  10106  10104  10107  10115     1  0.0000000  0.0000000  3
  10106  10104  10107  10111     1  0.0000000  0.6508444  3
  10106  10104  10116  10119     1  0.0000000  0.6973333  3
  10106  10104  10103  10117     1  0.0000000  0.6508444  3
  10106  10104  10103  10125     1  0.0000000  1.0460000  1
  10106  10104  10103  10125     1  0.0000000  0.0000000  3
  10107  10108  10109  10112     1  0.0000000  0.6508444  3
  10107  10108  10114  10120     1  0.0000000  1.0460000  1
  10107  10108  10114  10120     1  0.0000000  0.6694400  3
  10107  10104  10116  10119     1  0.0000000  1.0460000  1
  10107  10104  10116  10119     1  0.0000000  0.6694400  3
  10108  10107  10115  10118     1  0.0000000  1.0460000  1
  10108  10107  10115  10118     1  0.0000000  0.6694400  3
  10109  10108  10114  10120     1  0.0000000  1.0460000  1
  10109  10108  10114  10120     1  0.0000000  0.6694400  3
  10109  10108  10107  10111     1  0.0000000  0.6508444  3
  10110  10108  10109  10113     1  0.0000000  1.0460000  1
  10110  10108  10109  10113     1  0.0000000  0.0000000  3
  10110  10108  10109  10125     1  0.0000000  1.0460000  1
  10110  10108  10109  10125     1  0.0000000  0.0000000  3
  10110  10108  10109  10112     1  0.0000000  0.6508444  3
  10110  10108  10114  10120     1  0.0000000  0.6973333  3
  10110  10108  10107  10115     1  0.0000000  1.0460000  1
  10110  10108  10107  10115     1  0.0000000  0.0000000  3
  10110  10108  10107  10111     1  0.0000000  0.6508444  3
  10111  10107  10108  10114     1  0.0000000  1.0460000  1
  10111  10107  10108  10114     1  0.0000000  0.0000000  3
  10111  10107  10115  10118     1  0.0000000  0.6973333  3
  10111  10107  10104  10116     1  0.0000000  1.0460000  1
  10111  10107  10104  10116     1  0.0000000  0.0000000  3
  10112  10109  10108  10114     1  0.0000000  0.6508444  3
  10121  10117  10123  10124     1  0.0000000  0.6973333  3
  10121  10117  10103  10125     1  0.0000000  1.0460000  1
  10121  10117  10103  10125     1  0.0000000  0.0000000  3
  10122  10117  10123  10124     1  0.0000000  0.6973333  3
  10122  10117  10103  10125     1  0.0000000  1.0460000  1
  10122  10117  10103  10125     1  0.0000000  0.0000000  3
  10126  10127  10130  10134     1  0.0000000  0.6508444  3
  10126  10127  10139  10142     1  0.0000000  1.0460000  1
  10126  10127  10139  10142     1  0.0000000  0.6694400  3
  10126  10140  10146  10147     1  0.0000000  1.0460000  1
  10126  10140  10146  10147     1  0.0000000  0.6694400  3
  10126  10148  10132  10135     1  0.0000000  1.6038667  3
  10127  10126  10140  10144     1  0.0000000  0.6508444  3
  10127  10126  10140  10145     1  0.0000000  0.6508444  3
  10127  10130  10131  10133     1  0.0000000  0.6508444  3
  10127  10130  10138  10141     1  0.0000000  1.0460000  1
  10127  10130  10138  10141     1  0.0000000  0.6694400  3
  10128  10126  10127  10130     1  0.0000000  0.6508444  3
  10128  10126  10127  10139     1  0.0000000  1.0460000  1
  10128  10126  10127  10139     1  0.0000000  0.0000000  3
  10128  10126  10127  10129     1  0.0000000  0.6508444  3
  10128  10126  10140  10146     1  0.0000000  1.0460000  1
  10128  10126  10140  10146     1  0.0000000  0.0000000  3
  10128  10126  10140  10144     1  0.0000000  0.6508444  3
  10128  10126  10140  10145     1  0.0000000  0.6508444  3
  10128  10126  10148  10132     1  0.0000000  1.6038667  3
  10129  10127  10126  10140     1  0.0000000  0.6508444  3
  10129  10127  10126  10148     1  0.0000000  1.0460000  1
  10129  10127  10126  10148     1  0.0000000  0.0000000  3
  10129  10127  10130  10131     1  0.0000000  0.6508444  3
  10129  10127  10130  10138     1  0.0000000  1.0460000  1
  10129  10127  10130  10138     1  0.0000000  0.0000000  3
  10129  10127  10130  10134     1  0.0000000  0.6508444  3
  10129  10127  10139  10142     1  0.0000000  0.6973333  3
  10130  10127  10139  10142     1  0.0000000  1.0460000  1
  10130  10127  10139  10142     1  0.0000000  0.6694400  3
  10130  10131  10132  10135     1  0.0000000  0.6508444  3
  10130  10131  10137  10143     1  0.0000000  1.0460000  1
  10130  10131  10137  10143     1  0.0000000  0.6694400  3
  10131  10130  10138  10141     1  0.0000000  1.0460000  1
  10131  10130  10138  10141     1  0.0000000  0.6694400  3
  10132  10131  10130  10134     1  0.0000000  0.6508444  3
  10132  10131  10137  10143     1  0.0000000  1.0460000  1
  10132  10131  10137  10143     1  0.0000000  0.6694400  3
  10133  10131  10130  10138     1  0.0000000  1.0460000  1
  10133  10131  10130  10138     1  0.0000000  0.0000000  3
  10133  10131  10130  10134     1  0.0000000  0.6508444  3
  10133  10131  10132  10136     1  0.0000000  1.0460000  1
  10133  10131  10132  10136     1  0.0000000  0.0000000  3
  10133  10131  10132  10148     1  0.0000000  1.0460000  1
  10133  10131  10132  10148     1  0.0000000  0.0000000  3
  10133  10131  10132  10135     1  0.0000000  0.6508444  3
  10133  10131  10137  10143     1  0.0000000  0.6973333  3
  10134  10130  10127  10139     1  0.0000000  1.0460000  1
  10134  10130  10127  10139     1  0.0000000  0.0000000  3
  10134  10130  10131  10137     1  0.0000000  1.0460000  1
  10134  10130  10131  10137     1  0.0000000  0.0000000  3
  10134  10130  10138  10141     1  0.0000000  0.6973333  3
  10135  10132  10131  10137     1  0.0000000  0.6508444  3
  10144  10140  10126  10148     1  0.0000000  1.0460000  1
  10144  10140  10126  10148     1  0.0000000  0.0000000  3
  10144  10140  10146  10147     1  0.0000000  0.6973333  3
  10145  10140  10126  10148     1  0.0000000  1.0460000  1
  10145  10140  10126  10148     1  0.0000000  0.0000000  3
  10145  10140  10146  10147     1  0.0000000  0.6973333  3
  10149  10150  10153  10157     1  0.0000000  0.6508444  3
  10149  10150  10162  10165     1  0.0000000  1.0460000  1
  10149  10150  10162  10165     1  0.0000000  0.6694400  3
  10149  10163  10169  10170     1  0.0000000  1.0460000  1
  10149  10163  10169  10170     1  0.0000000  0.6694400  3
  10149  10171  10155  10158     1  0.0000000  1.6038667  3
  10150  10153  10154  10156     1  0.0000000  0.6508444  3
  10150  10153  10161  10164     1  0.0000000  1.0460000  1
  10150  10153  10161  10164     1  0.0000000  0.6694400  3
  10150  10149  10163  10167     1  0.0000000  0.6508444  3
  10150  10149  10163  10168     1  0.0000000  0.6508444  3
  10151  10149  10150  10153     1  0.0000000  0.6508444  3
  10151  10149  10150  10162     1  0.0000000  1.0460000  1
  10151  10149  10150  10162     1  0.0000000  0.0000000  3
  10151  10149  10150  10152     1  0.0000000  0.6508444  3
  10151  10149  10163  10169     1  0.0000000  1.0460000  1
  10151  10149  10163  10169     1  0.0000000  0.0000000  3
  10151  10149  10163  10167     1  0.0000000  0.6508444  3
  10151  10149  10163  10168     1  0.0000000  0.6508444  3
  10151  10149  10171  10155     1  0.0000000  1.6038667  3
  10152  10150  10153  10154     1  0.0000000  0.6508444  3
  10152  10150  10153  10161     1  0.0000000  1.0460000  1
  10152  10150  10153  10161     1  0.0000000  0.0000000  3
  10152  10150  10153  10157     1  0.0000000  0.6508444  3
  10152  10150  10162  10165     1  0.0000000  0.6973333  3
  10152  10150  10149  10163     1  0.0000000  0.6508444  3
  10152  10150  10149  10171     1  0.0000000  1.0460000  1
  10152  10150  10149  10171     1  0.0000000  0.0000000  3
  10153  10154  10155  10158     1  0.0000000  0.6508444  3
  10153  10154  10160  10166     1  0.0000000  1.0460000  1
  10153  10154  10160  10166     1  0.0000000  0.6694400  3
  10153  10150  10162  10165     1  0.0000000  1.0460000  1
  10153  10150  10162  10165     1  0.0000000  0.6694400  3
  10154  10153  10161  10164     1  0.0000000  1.0460000  1
  10154  10153  10161  10164     1  0.0000000  0.6694400  3
  10155  10154  10160  10166     1  0.0000000  1.0460000  1
  10155  10154  10160  10166     1  0.0000000  0.6694400  3
  10155  10154  10153  10157     1  0.0000000  0.6508444  3
  10156  10154  10155  10159     1  0.0000000  1.0460000  1
  10156  10154  10155  10159     1  0.0000000  0.0000000  3
  10156  10154  10155  10171     1  0.0000000  1.0460000  1
  10156  10154  10155  10171     1  0.0000000  0.0000000  3
  10156  10154  10155  10158     1  0.0000000  0.6508444  3
  10156  10154  10160  10166     1  0.0000000  0.6973333  3
  10156  10154  10153  10161     1  0.0000000  1.0460000  1
  10156  10154  10153  10161     1  0.0000000  0.0000000  3
  10156  10154  10153  10157     1  0.0000000  0.6508444  3
  10157  10153  10154  10160     1  0.0000000  1.0460000  1
  10157  10153  10154  10160     1  0.0000000  0.0000000  3
  10157  10153  10161  10164     1  0.0000000  0.6973333  3
  10157  10153  10150  10162     1  0.0000000  1.0460000  1
  10157  10153  10150  10162     1  0.0000000  0.0000000  3
  10158  10155  10154  10160     1  0.0000000  0.6508444  3
  10167  10163  10169  10170     1  0.0000000  0.6973333  3
  10167  10163  10149  10171     1  0.0000000  1.0460000  1
  10167  10163  10149  10171     1  0.0000000  0.0000000  3
  10168  10163  10169  10170     1  0.0000000  0.6973333  3
  10168  10163  10149  10171     1  0.0000000  1.0460000  1
  10168  10163  10149  10171     1  0.0000000  0.0000000  3
  10172  10173  10176  10180     1  0.0000000  0.6508444  3
  10172  10173  10185  10188     1  0.0000000  1.0460000  1
  10172  10173  10185  10188     1  0.0000000  0.6694400  3
  10172  10186  10192  10193     1  0.0000000  1.0460000  1
  10172  10186  10192  10193     1  0.0000000  0.6694400  3
  10172  10194  10178  10181     1  0.0000000  1.6038667  3
  10173  10172  10186  10190     1  0.0000000  0.6508444  3
  10173  10172  10186  10191     1  0.0000000  0.6508444  3
  10173  10176  10177  10179     1  0.0000000  0.6508444  3
  10173  10176  10184  10187     1  0.0000000  1.0460000  1
  10173  10176  10184  10187     1  0.0000000  0.6694400  3
  10174  10172  10173  10176     1  0.0000000  0.6508444  3
  10174  10172  10173  10185     1  0.0000000  1.0460000  1
  10174  10172  10173  10185     1  0.0000000  0.0000000  3
  10174  10172  10173  10175     1  0.0000000  0.6508444  3
  10174  10172  10186  10192     1  0.0000000  1.0460000  1
  10174  10172  10186  10192     1  0.0000000  0.0000000  3
  10174  10172  10186  10190     1  0.0000000  0.6508444  3
  10174  10172  10186  10191     1  0.0000000  0.6508444  3
  10174  10172  10194  10178     1  0.0000000  1.6038667  3
  10175  10173  10172  10186     1  0.0000000  0.6508444  3
  10175  10173  10172  10194     1  0.0000000  1.0460000  1
  10175  10173  10172  10194     1  0.0000000  0.0000000  3
  10175  10173  10176  10177     1  0.0000000  0.6508444  3
  10175  10173  10176  10184     1  0.0000000  1.0460000  1
  10175  10173  10176  10184     1  0.0000000  0.0000000  3
  10175  10173  10176  10180     1  0.0000000  0.6508444  3
  10175  10173  10185  10188     1  0.0000000  0.6973333  3
  10176  10173  10185  10188     1  0.0000000  1.0460000  1
  10176  10173  10185  10188     1  0.0000000  0.6694400  3
  10176  10177  10178  10181     1  0.0000000  0.6508444  3
  10176  10177  10183  10189     1  0.0000000  1.0460000  1
  10176  10177  10183  10189     1  0.0000000  0.6694400  3
  10177  10176  10184  10187     1  0.0000000  1.0460000  1
  10177  10176  10184  10187     1  0.0000000  0.6694400  3
  10178  10177  10176  10180     1  0.0000000  0.6508444  3
  10178  10177  10183  10189     1  0.0000000  1.0460000  1
  10178  10177  10183  10189     1  0.0000000  0.6694400  3
  10179  10177  10176  10184     1  0.0000000  1.0460000  1
  10179  10177  10176  10184     1  0.0000000  0.0000000  3
  10179  10177  10176  10180     1  0.0000000  0.6508444  3
  10179  10177  10178  10182     1  0.0000000  1.0460000  1
  10179  10177  10178  10182     1  0.0000000  0.0000000  3
  10179  10177  10178  10194     1  0.0000000  1.0460000  1
  10179  10177  10178  10194     1  0.0000000  0.0000000  3
  10179  10177  10178  10181     1  0.0000000  0.6508444  3
  10179  10177  10183  10189     1  0.0000000  0.6973333  3
  10180  10176  10173  10185     1  0.0000000  1.0460000  1
  10180  10176  10173  10185     1  0.0000000  0.0000000  3
  10180  10176  10177  10183     1  0.0000000  1.0460000  1
  10180  10176  10177  10183     1  0.0000000  0.0000000  3
  10180  10176  10184  10187     1  0.0000000  0.6973333  3
  10181  10178  10177  10183     1  0.0000000  0.6508444  3
  10190  10186  10172  10194     1  0.0000000  1.0460000  1
  10190  10186  10172  10194     1  0.0000000  0.0000000  3
  10190  10186  10192  10193     1  0.0000000  0.6973333  3
  10191  10186  10172  10194     1  0.0000000  1.0460000  1
  10191  10186  10172  10194     1  0.0000000  0.0000000  3
  10191  10186  10192  10193     1  0.0000000  0.6973333  3
  10195  10196  10199  10203     1  0.0000000  0.6508444  3
  10195  10196  10208  10211     1  0.0000000  1.0460000  1
  10195  10196  10208  10211     1  0.0000000  0.6694400  3
  10195  10209  10215  10216     1  0.0000000  1.0460000  1
  10195  10209  10215  10216     1  0.0000000  0.6694400  3
  10195  10217  10201  10204     1  0.0000000  1.6038667  3
  10196  10199  10200  10202     1  0.0000000  0.6508444  3
  10196  10199  10207  10210     1  0.0000000  1.0460000  1
  10196  10199  10207  10210     1  0.0000000  0.6694400  3
  10196  10195  10209  10213     1  0.0000000  0.6508444  3
  10196  10195  10209  10214     1  0.0000000  0.6508444  3
  10197  10195  10196  10199     1  0.0000000  0.6508444  3
  10197  10195  10196  10208     1  0.0000000  1.0460000  1
  10197  10195  10196  10208     1  0.0000000  0.0000000  3
  10197  10195  10196  10198     1  0.0000000  0.6508444  3
  10197  10195  10209  10215     1  0.0000000  1.0460000  1
  10197  10195  10209  10215     1  0.0000000  0.0000000  3
  10197  10195  10209  10213     1  0.0000000  0.6508444  3
  10197  10195  10209  10214     1  0.0000000  0.6508444  3
  10197  10195  10217  10201     1  0.0000000  1.6038667  3
  10198  10196  10199  10200     1  0.0000000  0.6508444  3
  10198  10196  10199  10207     1  0.0000000  1.0460000  1
  10198  10196  10199  10207     1  0.0000000  0.0000000  3
  10198  10196  10199  10203     1  0.0000000  0.6508444  3
  10198  10196  10208  10211     1  0.0000000  0.6973333  3
  10198  10196  10195  10209     1  0.0000000  0.6508444  3
  10198  10196  10195  10217     1  0.0000000  1.0460000  1
  10198  10196  10195  10217     1  0.0000000  0.0000000  3
  10199  10200  10201  10204     1  0.0000000  0.6508444  3
  10199  10200  10206  10212     1  0.0000000  1.0460000  1
  10199  10200  10206  10212     1  0.0000000  0.6694400  3
  10199  10196  10208  10211     1  0.0000000  1.0460000  1
  10199  10196  10208  10211     1  0.0000000  0.6694400  3
  10200  10199  10207  10210     1  0.0000000  1.0460000  1
  10200  10199  10207  10210     1  0.0000000  0.6694400  3
  10201  10200  10206  10212     1  0.0000000  1.0460000  1
  10201  10200  10206  10212     1  0.0000000  0.6694400  3
  10201  10200  10199  10203     1  0.0000000  0.6508444  3
  10202  10200  10201  10205     1  0.0000000  1.0460000  1
  10202  10200  10201  10205     1  0.0000000  0.0000000  3
  10202  10200  10201  10217     1  0.0000000  1.0460000  1
  10202  10200  10201  10217     1  0.0000000  0.0000000  3
  10202  10200  10201  10204     1  0.0000000  0.6508444  3
  10202  10200  10206  10212     1  0.0000000  0.6973333  3
  10202  10200  10199  10207     1  0.0000000  1.0460000  1
  10202  10200  10199  10207     1  0.0000000  0.0000000  3
  10202  10200  10199  10203     1  0.0000000  0.6508444  3
  10203  10199  10200  10206     1  0.0000000  1.0460000  1
  10203  10199  10200  10206     1  0.0000000  0.0000000  3
  10203  10199  10207  10210     1  0.0000000  0.6973333  3
  10203  10199  10196  10208     1  0.0000000  1.0460000  1
  10203  10199  10196  10208     1  0.0000000  0.0000000  3
  10204  10201  10200  10206     1  0.0000000  0.6508444  3
  10213  10209  10215  10216     1  0.0000000  0.6973333  3
  10213  10209  10195  10217     1  0.0000000  1.0460000  1
  10213  10209  10195  10217     1  0.0000000  0.0000000  3
  10214  10209  10215  10216     1  0.0000000  0.6973333  3
  10214  10209  10195  10217     1  0.0000000  1.0460000  1
  10214  10209  10195  10217     1  0.0000000  0.0000000  3
  10218  10219  10222  10226     1  0.0000000  0.6508444  3
  10218  10219  10231  10234     1  0.0000000  1.0460000  1
  10218  10219  10231  10234     1  0.0000000  0.6694400  3
  10218  10232  10238  10239     1  0.0000000  1.0460000  1
  10218  10232  10238  10239     1  0.0000000  0.6694400  3
  10218  10240  10224  10227     1  0.0000000  1.6038667  3
  10219  10218  10232  10236     1  0.0000000  0.6508444  3
  10219  10218  10232  10237     1  0.0000000  0.6508444  3
  10219  10222  10223  10225     1  0.0000000  0.6508444  3
  10219  10222  10230  10233     1  0.0000000  1.0460000  1
  10219  10222  10230  10233     1  0.0000000  0.6694400  3
  10220  10218  10219  10222     1  0.0000000  0.6508444  3
  10220  10218  10219  10231     1  0.0000000  1.0460000  1
  10220  10218  10219  10231     1  0.0000000  0.0000000  3
  10220  10218  10219  10221     1  0.0000000  0.6508444  3
  10220  10218  10232  10238     1  0.0000000  1.0460000  1
  10220  10218  10232  10238     1  0.0000000  0.0000000  3
  10220  10218  10232  10236     1  0.0000000  0.6508444  3
  10220  10218  10232  10237     1  0.0000000  0.6508444  3
  10220  10218  10240  10224     1  0.0000000  1.6038667  3
  10221  10219  10218  10232     1  0.0000000  0.6508444  3
  10221  10219  10218  10240     1  0.0000000  1.0460000  1
  10221  10219  10218  10240     1  0.0000000  0.0000000  3
  10221  10219  10222  10223     1  0.0000000  0.6508444  3
  10221  10219  10222  10230     1  0.0000000  1.0460000  1
  10221  10219  10222  10230     1  0.0000000  0.0000000  3
  10221  10219  10222  10226     1  0.0000000  0.6508444  3
  10221  10219  10231  10234     1  0.0000000  0.6973333  3
  10222  10219  10231  10234     1  0.0000000  1.0460000  1
  10222  10219  10231  10234     1  0.0000000  0.6694400  3
  10222  10223  10224  10227     1  0.0000000  0.6508444  3
  10222  10223  10229  10235     1  0.0000000  1.0460000  1
  10222  10223  10229  10235     1  0.0000000  0.6694400  3
  10223  10222  10230  10233     1  0.0000000  1.0460000  1
  10223  10222  10230  10233     1  0.0000000  0.6694400  3
  10224  10223  10222  10226     1  0.0000000  0.6508444  3
  10224  10223  10229  10235     1  0.0000000  1.0460000  1
  10224  10223  10229  10235     1  0.0000000  0.6694400  3
  10225  10223  10222  10230     1  0.0000000  1.0460000  1
  10225  10223  10222  10230     1  0.0000000  0.0000000  3
  10225  10223  10222  10226     1  0.0000000  0.6508444  3
  10225  10223  10224  10228     1  0.0000000  1.0460000  1
  10225  10223  10224  10228     1  0.0000000  0.0000000  3
  10225  10223  10224  10240     1  0.0000000  1.0460000  1
  10225  10223  10224  10240     1  0.0000000  0.0000000  3
  10225  10223  10224  10227     1  0.0000000  0.6508444  3
  10225  10223  10229  10235     1  0.0000000  0.6973333  3
  10226  10222  10219  10231     1  0.0000000  1.0460000  1
  10226  10222  10219  10231     1  0.0000000  0.0000000  3
  10226  10222  10223  10229     1  0.0000000  1.0460000  1
  10226  10222  10223  10229     1  0.0000000  0.0000000  3
  10226  10222  10230  10233     1  0.0000000  0.6973333  3
  10227  10224  10223  10229     1  0.0000000  0.6508444  3
  10236  10232  10218  10240     1  0.0000000  1.0460000  1
  10236  10232  10218  10240     1  0.0000000  0.0000000  3
  10236  10232  10238  10239     1  0.0000000  0.6973333  3
  10237  10232  10218  10240     1  0.0000000  1.0460000  1
  10237  10232  10218  10240     1  0.0000000  0.0000000  3
  10237  10232  10238  10239     1  0.0000000  0.6973333  3
  10241  10242  10245  10249     1  0.0000000  0.6508444  3
  10241  10242  10254  10257     1  0.0000000  1.0460000  1
  10241  10242  10254  10257     1  0.0000000  0.6694400  3
  10241  10255  10261  10262     1  0.0000000  1.0460000  1
  10241  10255  10261  10262     1  0.0000000  0.6694400  3
  10241  10263  10247  10250     1  0.0000000  1.6038667  3
  10242  10245  10246  10248     1  0.0000000  0.6508444  3
  10242  10245  10253  10256     1  0.0000000  1.0460000  1
  10242  10245  10253  10256     1  0.0000000  0.6694400  3
  10242  10241  10255  10259     1  0.0000000  0.6508444  3
  10242  10241  10255  10260     1  0.0000000  0.6508444  3
  10243  10241  10242  10245     1  0.0000000  0.6508444  3
  10243  10241  10242  10254     1  0.0000000  1.0460000  1
  10243  10241  10242  10254     1  0.0000000  0.0000000  3
  10243  10241  10242  10244     1  0.0000000  0.6508444  3
  10243  10241  10255  10261     1  0.0000000  1.0460000  1
  10243  10241  10255  10261     1  0.0000000  0.0000000  3
  10243  10241  10255  10259     1  0.0000000  0.6508444  3
  10243  10241  10255  10260     1  0.0000000  0.6508444  3
  10243  10241  10263  10247     1  0.0000000  1.6038667  3
  10244  10242  10245  10246     1  0.0000000  0.6508444  3
  10244  10242  10245  10253     1  0.0000000  1.0460000  1
  10244  10242  10245  10253     1  0.0000000  0.0000000  3
  10244  10242  10245  10249     1  0.0000000  0.6508444  3
  10244  10242  10254  10257     1  0.0000000  0.6973333  3
  10244  10242  10241  10255     1  0.0000000  0.6508444  3
  10244  10242  10241  10263     1  0.0000000  1.0460000  1
  10244  10242  10241  10263     1  0.0000000  0.0000000  3
  10245  10246  10247  10250     1  0.0000000  0.6508444  3
  10245  10246  10252  10258     1  0.0000000  1.0460000  1
  10245  10246  10252  10258     1  0.0000000  0.6694400  3
  10245  10242  10254  10257     1  0.0000000  1.0460000  1
  10245  10242  10254  10257     1  0.0000000  0.6694400  3
  10246  10245  10253  10256     1  0.0000000  1.0460000  1
  10246  10245  10253  10256     1  0.0000000  0.6694400  3
  10247  10246  10252  10258     1  0.0000000  1.0460000  1
  10247  10246  10252  10258     1  0.0000000  0.6694400  3
  10247  10246  10245  10249     1  0.0000000  0.6508444  3
  10248  10246  10247  10251     1  0.0000000  1.0460000  1
  10248  10246  10247  10251     1  0.0000000  0.0000000  3
  10248  10246  10247  10263     1  0.0000000  1.0460000  1
  10248  10246  10247  10263     1  0.0000000  0.0000000  3
  10248  10246  10247  10250     1  0.0000000  0.6508444  3
  10248  10246  10252  10258     1  0.0000000  0.6973333  3
  10248  10246  10245  10253     1  0.0000000  1.0460000  1
  10248  10246  10245  10253     1  0.0000000  0.0000000  3
  10248  10246  10245  10249     1  0.0000000  0.6508444  3
  10249  10245  10246  10252     1  0.0000000  1.0460000  1
  10249  10245  10246  10252     1  0.0000000  0.0000000  3
  10249  10245  10253  10256     1  0.0000000  0.6973333  3
  10249  10245  10242  10254     1  0.0000000  1.0460000  1
  10249  10245  10242  10254     1  0.0000000  0.0000000  3
  10250  10247  10246  10252     1  0.0000000  0.6508444  3
  10259  10255  10261  10262     1  0.0000000  0.6973333  3
  10259  10255  10241  10263     1  0.0000000  1.0460000  1
  10259  10255  10241  10263     1  0.0000000  0.0000000  3
  10260  10255  10261  10262     1  0.0000000  0.6973333  3
  10260  10255  10241  10263     1  0.0000000  1.0460000  1
  10260  10255  10241  10263     1  0.0000000  0.0000000  3
  10264  10265  10268  10272     1  0.0000000  0.6508444  3
  10264  10265  10277  10280     1  0.0000000  1.0460000  1
  10264  10265  10277  10280     1  0.0000000  0.6694400  3
  10264  10278  10284  10285     1  0.0000000  1.0460000  1
  10264  10278  10284  10285     1  0.0000000  0.6694400  3
  10264  10286  10270  10273     1  0.0000000  1.6038667  3
  10265  10264  10278  10282     1  0.0000000  0.6508444  3
  10265  10264  10278  10283     1  0.0000000  0.6508444  3
  10265  10268  10269  10271     1  0.0000000  0.6508444  3
  10265  10268  10276  10279     1  0.0000000  1.0460000  1
  10265  10268  10276  10279     1  0.0000000  0.6694400  3
  10266  10264  10265  10268     1  0.0000000  0.6508444  3
  10266  10264  10265  10277     1  0.0000000  1.0460000  1
  10266  10264  10265  10277     1  0.0000000  0.0000000  3
  10266  10264  10265  10267     1  0.0000000  0.6508444  3
  10266  10264  10278  10284     1  0.0000000  1.0460000  1
  10266  10264  10278  10284     1  0.0000000  0.0000000  3
  10266  10264  10278  10282     1  0.0000000  0.6508444  3
  10266  10264  10278  10283     1  0.0000000  0.6508444  3
  10266  10264  10286  10270     1  0.0000000  1.6038667  3
  10267  10265  10264  10278     1  0.0000000  0.6508444  3
  10267  10265  10264  10286     1  0.0000000  1.0460000  1
  10267  10265  10264  10286     1  0.0000000  0.0000000  3
  10267  10265  10268  10269     1  0.0000000  0.6508444  3
  10267  10265  10268  10276     1  0.0000000  1.0460000  1
  10267  10265  10268  10276     1  0.0000000  0.0000000  3
  10267  10265  10268  10272     1  0.0000000  0.6508444  3
  10267  10265  10277  10280     1  0.0000000  0.6973333  3
  10268  10265  10277  10280     1  0.0000000  1.0460000  1
  10268  10265  10277  10280     1  0.0000000  0.6694400  3
  10268  10269  10270  10273     1  0.0000000  0.6508444  3
  10268  10269  10275  10281     1  0.0000000  1.0460000  1
  10268  10269  10275  10281     1  0.0000000  0.6694400  3
  10269  10268  10276  10279     1  0.0000000  1.0460000  1
  10269  10268  10276  10279     1  0.0000000  0.6694400  3
  10270  10269  10268  10272     1  0.0000000  0.6508444  3
  10270  10269  10275  10281     1  0.0000000  1.0460000  1
  10270  10269  10275  10281     1  0.0000000  0.6694400  3
  10271  10269  10268  10276     1  0.0000000  1.0460000  1
  10271  10269  10268  10276     1  0.0000000  0.0000000  3
  10271  10269  10268  10272     1  0.0000000  0.6508444  3
  10271  10269  10270  10274     1  0.0000000  1.0460000  1
  10271  10269  10270  10274     1  0.0000000  0.0000000  3
  10271  10269  10270  10286     1  0.0000000  1.0460000  1
  10271  10269  10270  10286     1  0.0000000  0.0000000  3
  10271  10269  10270  10273     1  0.0000000  0.6508444  3
  10271  10269  10275  10281     1  0.0000000  0.6973333  3
  10272  10268  10265  10277     1  0.0000000  1.0460000  1
  10272  10268  10265  10277     1  0.0000000  0.0000000  3
  10272  10268  10269  10275     1  0.0000000  1.0460000  1
  10272  10268  10269  10275     1  0.0000000  0.0000000  3
  10272  10268  10276  10279     1  0.0000000  0.6973333  3
  10273  10270  10269  10275     1  0.0000000  0.6508444  3
  10282  10278  10264  10286     1  0.0000000  1.0460000  1
  10282  10278  10264  10286     1  0.0000000  0.0000000  3
  10282  10278  10284  10285     1  0.0000000  0.6973333  3
  10283  10278  10264  10286     1  0.0000000  1.0460000  1
  10283  10278  10264  10286     1  0.0000000  0.0000000  3
  10283  10278  10284  10285     1  0.0000000  0.6973333  3
  10287  10288  10291  10295     1  0.0000000  0.6508444  3
  10287  10288  10300  10303     1  0.0000000  1.0460000  1
  10287  10288  10300  10303     1  0.0000000  0.6694400  3
  10287  10301  10307  10308     1  0.0000000  1.0460000  1
  10287  10301  10307  10308     1  0.0000000  0.6694400  3
  10287  10309  10293  10296     1  0.0000000  1.6038667  3
  10288  10291  10292  10294     1  0.0000000  0.6508444  3
  10288  10291  10299  10302     1  0.0000000  1.0460000  1
  10288  10291  10299  10302     1  0.0000000  0.6694400  3
  10288  10287  10301  10305     1  0.0000000  0.6508444  3
  10288  10287  10301  10306     1  0.0000000  0.6508444  3
  10289  10287  10288  10291     1  0.0000000  0.6508444  3
  10289  10287  10288  10300     1  0.0000000  1.0460000  1
  10289  10287  10288  10300     1  0.0000000  0.0000000  3
  10289  10287  10288  10290     1  0.0000000  0.6508444  3
  10289  10287  10301  10307     1  0.0000000  1.0460000  1
  10289  10287  10301  10307     1  0.0000000  0.0000000  3
  10289  10287  10301  10305     1  0.0000000  0.6508444  3
  10289  10287  10301  10306     1  0.0000000  0.6508444  3
  10289  10287  10309  10293     1  0.0000000  1.6038667  3
  10290  10288  10291  10292     1  0.0000000  0.6508444  3
  10290  10288  10291  10299     1  0.0000000  1.0460000  1
  10290  10288  10291  10299     1  0.0000000  0.0000000  3
  10290  10288  10291  10295     1  0.0000000  0.6508444  3
  10290  10288  10300  10303     1  0.0000000  0.6973333  3
  10290  10288  10287  10301     1  0.0000000  0.6508444  3
  10290  10288  10287  10309     1  0.0000000  1.0460000  1
  10290  10288  10287  10309     1  0.0000000  0.0000000  3
  10291  10292  10293  10296     1  0.0000000  0.6508444  3
  10291  10292  10298  10304     1  0.0000000  1.0460000  1
  10291  10292  10298  10304     1  0.0000000  0.6694400  3
  10291  10288  10300  10303     1  0.0000000  1.0460000  1
  10291  10288  10300  10303     1  0.0000000  0.6694400  3
  10292  10291  10299  10302     1  0.0000000  1.0460000  1
  10292  10291  10299  10302     1  0.0000000  0.6694400  3
  10293  10292  10298  10304     1  0.0000000  1.0460000  1
  10293  10292  10298  10304     1  0.0000000  0.6694400  3
  10293  10292  10291  10295     1  0.0000000  0.6508444  3
  10294  10292  10293  10297     1  0.0000000  1.0460000  1
  10294  10292  10293  10297     1  0.0000000  0.0000000  3
  10294  10292  10293  10309     1  0.0000000  1.0460000  1
  10294  10292  10293  10309     1  0.0000000  0.0000000  3
  10294  10292  10293  10296     1  0.0000000  0.6508444  3
  10294  10292  10298  10304     1  0.0000000  0.6973333  3
  10294  10292  10291  10299     1  0.0000000  1.0460000  1
  10294  10292  10291  10299     1  0.0000000  0.0000000  3
  10294  10292  10291  10295     1  0.0000000  0.6508444  3
  10295  10291  10292  10298     1  0.0000000  1.0460000  1
  10295  10291  10292  10298     1  0.0000000  0.0000000  3
  10295  10291  10299  10302     1  0.0000000  0.6973333  3
  10295  10291  10288  10300     1  0.0000000  1.0460000  1
  10295  10291  10288  10300     1  0.0000000  0.0000000  3
  10296  10293  10292  10298     1  0.0000000  0.6508444  3
  10305  10301  10307  10308     1  0.0000000  0.6973333  3
  10305  10301  10287  10309     1  0.0000000  1.0460000  1
  10305  10301  10287  10309     1  0.0000000  0.0000000  3
  10306  10301  10307  10308     1  0.0000000  0.6973333  3
  10306  10301  10287  10309     1  0.0000000  1.0460000  1
  10306  10301  10287  10309     1  0.0000000  0.0000000  3
  10310  10311  10314  10318     1  0.0000000  0.6508444  3
  10310  10311  10323  10326     1  0.0000000  1.0460000  1
  10310  10311  10323  10326     1  0.0000000  0.6694400  3
  10310  10324  10330  10331     1  0.0000000  1.0460000  1
  10310  10324  10330  10331     1  0.0000000  0.6694400  3
  10310  10332  10316  10319     1  0.0000000  1.6038667  3
  10311  10310  10324  10328     1  0.0000000  0.6508444  3
  10311  10310  10324  10329     1  0.0000000  0.6508444  3
  10311  10314  10315  10317     1  0.0000000  0.6508444  3
  10311  10314  10322  10325     1  0.0000000  1.0460000  1
  10311  10314  10322  10325     1  0.0000000  0.6694400  3
  10312  10310  10311  10314     1  0.0000000  0.6508444  3
  10312  10310  10311  10323     1  0.0000000  1.0460000  1
  10312  10310  10311  10323     1  0.0000000  0.0000000  3
  10312  10310  10311  10313     1  0.0000000  0.6508444  3
  10312  10310  10324  10330     1  0.0000000  1.0460000  1
  10312  10310  10324  10330     1  0.0000000  0.0000000  3
  10312  10310  10324  10328     1  0.0000000  0.6508444  3
  10312  10310  10324  10329     1  0.0000000  0.6508444  3
  10312  10310  10332  10316     1  0.0000000  1.6038667  3
  10313  10311  10310  10324     1  0.0000000  0.6508444  3
  10313  10311  10310  10332     1  0.0000000  1.0460000  1
  10313  10311  10310  10332     1  0.0000000  0.0000000  3
  10313  10311  10314  10315     1  0.0000000  0.6508444  3
  10313  10311  10314  10322     1  0.0000000  1.0460000  1
  10313  10311  10314  10322     1  0.0000000  0.0000000  3
  10313  10311  10314  10318     1  0.0000000  0.6508444  3
  10313  10311  10323  10326     1  0.0000000  0.6973333  3
  10314  10311  10323  10326     1  0.0000000  1.0460000  1
  10314  10311  10323  10326     1  0.0000000  0.6694400  3
  10314  10315  10316  10319     1  0.0000000  0.6508444  3
  10314  10315  10321  10327     1  0.0000000  1.0460000  1
  10314  10315  10321  10327     1  0.0000000  0.6694400  3
  10315  10314  10322  10325     1  0.0000000  1.0460000  1
  10315  10314  10322  10325     1  0.0000000  0.6694400  3
  10316  10315  10314  10318     1  0.0000000  0.6508444  3
  10316  10315  10321  10327     1  0.0000000  1.0460000  1
  10316  10315  10321  10327     1  0.0000000  0.6694400  3
  10317  10315  10314  10322     1  0.0000000  1.0460000  1
  10317  10315  10314  10322     1  0.0000000  0.0000000  3
  10317  10315  10314  10318     1  0.0000000  0.6508444  3
  10317  10315  10316  10320     1  0.0000000  1.0460000  1
  10317  10315  10316  10320     1  0.0000000  0.0000000  3
  10317  10315  10316  10332     1  0.0000000  1.0460000  1
  10317  10315  10316  10332     1  0.0000000  0.0000000  3
  10317  10315  10316  10319     1  0.0000000  0.6508444  3
  10317  10315  10321  10327     1  0.0000000  0.6973333  3
  10318  10314  10311  10323     1  0.0000000  1.0460000  1
  10318  10314  10311  10323     1  0.0000000  0.0000000  3
  10318  10314  10315  10321     1  0.0000000  1.0460000  1
  10318  10314  10315  10321     1  0.0000000  0.0000000  3
  10318  10314  10322  10325     1  0.0000000  0.6973333  3
  10319  10316  10315  10321     1  0.0000000  0.6508444  3
  10328  10324  10310  10332     1  0.0000000  1.0460000  1
  10328  10324  10310  10332     1  0.0000000  0.0000000  3
  10328  10324  10330  10331     1  0.0000000  0.6973333  3
  10329  10324  10310  10332     1  0.0000000  1.0460000  1
  10329  10324  10310  10332     1  0.0000000  0.0000000  3
  10329  10324  10330  10331     1  0.0000000  0.6973333  3
  10333  10334  10337  10341     1  0.0000000  0.6508444  3
  10333  10334  10346  10349     1  0.0000000  1.0460000  1
  10333  10334  10346  10349     1  0.0000000  0.6694400  3
  10333  10347  10353  10354     1  0.0000000  1.0460000  1
  10333  10347  10353  10354     1  0.0000000  0.6694400  3
  10333  10355  10339  10342     1  0.0000000  1.6038667  3
  10334  10337  10338  10340     1  0.0000000  0.6508444  3
  10334  10337  10345  10348     1  0.0000000  1.0460000  1
  10334  10337  10345  10348     1  0.0000000  0.6694400  3
  10334  10333  10347  10351     1  0.0000000  0.6508444  3
  10334  10333  10347  10352     1  0.0000000  0.6508444  3
  10335  10333  10334  10337     1  0.0000000  0.6508444  3
  10335  10333  10334  10346     1  0.0000000  1.0460000  1
  10335  10333  10334  10346     1  0.0000000  0.0000000  3
  10335  10333  10334  10336     1  0.0000000  0.6508444  3
  10335  10333  10347  10353     1  0.0000000  1.0460000  1
  10335  10333  10347  10353     1  0.0000000  0.0000000  3
  10335  10333  10347  10351     1  0.0000000  0.6508444  3
  10335  10333  10347  10352     1  0.0000000  0.6508444  3
  10335  10333  10355  10339     1  0.0000000  1.6038667  3
  10336  10334  10337  10338     1  0.0000000  0.6508444  3
  10336  10334  10337  10345     1  0.0000000  1.0460000  1
  10336  10334  10337  10345     1  0.0000000  0.0000000  3
  10336  10334  10337  10341     1  0.0000000  0.6508444  3
  10336  10334  10346  10349     1  0.0000000  0.6973333  3
  10336  10334  10333  10347     1  0.0000000  0.6508444  3
  10336  10334  10333  10355     1  0.0000000  1.0460000  1
  10336  10334  10333  10355     1  0.0000000  0.0000000  3
  10337  10338  10339  10342     1  0.0000000  0.6508444  3
  10337  10338  10344  10350     1  0.0000000  1.0460000  1
  10337  10338  10344  10350     1  0.0000000  0.6694400  3
  10337  10334  10346  10349     1  0.0000000  1.0460000  1
  10337  10334  10346  10349     1  0.0000000  0.6694400  3
  10338  10337  10345  10348     1  0.0000000  1.0460000  1
  10338  10337  10345  10348     1  0.0000000  0.6694400  3
  10339  10338  10344  10350     1  0.0000000  1.0460000  1
  10339  10338  10344  10350     1  0.0000000  0.6694400  3
  10339  10338  10337  10341     1  0.0000000  0.6508444  3
  10340  10338  10339  10343     1  0.0000000  1.0460000  1
  10340  10338  10339  10343     1  0.0000000  0.0000000  3
  10340  10338  10339  10355     1  0.0000000  1.0460000  1
  10340  10338  10339  10355     1  0.0000000  0.0000000  3
  10340  10338  10339  10342     1  0.0000000  0.6508444  3
  10340  10338  10344  10350     1  0.0000000  0.6973333  3
  10340  10338  10337  10345     1  0.0000000  1.0460000  1
  10340  10338  10337  10345     1  0.0000000  0.0000000  3
  10340  10338  10337  10341     1  0.0000000  0.6508444  3
  10341  10337  10338  10344     1  0.0000000  1.0460000  1
  10341  10337  10338  10344     1  0.0000000  0.0000000  3
  10341  10337  10345  10348     1  0.0000000  0.6973333  3
  10341  10337  10334  10346     1  0.0000000  1.0460000  1
  10341  10337  10334  10346     1  0.0000000  0.0000000  3
  10342  10339  10338  10344     1  0.0000000  0.6508444  3
  10351  10347  10353  10354     1  0.0000000  0.6973333  3
  10351  10347  10333  10355     1  0.0000000  1.0460000  1
  10351  10347  10333  10355     1  0.0000000  0.0000000  3
  10352  10347  10353  10354     1  0.0000000  0.6973333  3
  10352  10347  10333  10355     1  0.0000000  1.0460000  1
  10352  10347  10333  10355     1  0.0000000  0.0000000  3
  10356  10357  10360  10364     1  0.0000000  0.6508444  3
  10356  10357  10369  10372     1  0.0000000  1.0460000  1
  10356  10357  10369  10372     1  0.0000000  0.6694400  3
  10356  10370  10376  10377     1  0.0000000  1.0460000  1
  10356  10370  10376  10377     1  0.0000000  0.6694400  3
  10356  10378  10362  10365     1  0.0000000  1.6038667  3
  10357  10356  10370  10374     1  0.0000000  0.6508444  3
  10357  10356  10370  10375     1  0.0000000  0.6508444  3
  10357  10360  10361  10363     1  0.0000000  0.6508444  3
  10357  10360  10368  10371     1  0.0000000  1.0460000  1
  10357  10360  10368  10371     1  0.0000000  0.6694400  3
  10358  10356  10357  10360     1  0.0000000  0.6508444  3
  10358  10356  10357  10369     1  0.0000000  1.0460000  1
  10358  10356  10357  10369     1  0.0000000  0.0000000  3
  10358  10356  10357  10359     1  0.0000000  0.6508444  3
  10358  10356  10370  10376     1  0.0000000  1.0460000  1
  10358  10356  10370  10376     1  0.0000000  0.0000000  3
  10358  10356  10370  10374     1  0.0000000  0.6508444  3
  10358  10356  10370  10375     1  0.0000000  0.6508444  3
  10358  10356  10378  10362     1  0.0000000  1.6038667  3
  10359  10357  10356  10370     1  0.0000000  0.6508444  3
  10359  10357  10356  10378     1  0.0000000  1.0460000  1
  10359  10357  10356  10378     1  0.0000000  0.0000000  3
  10359  10357  10360  10361     1  0.0000000  0.6508444  3
  10359  10357  10360  10368     1  0.0000000  1.0460000  1
  10359  10357  10360  10368     1  0.0000000  0.0000000  3
  10359  10357  10360  10364     1  0.0000000  0.6508444  3
  10359  10357  10369  10372     1  0.0000000  0.6973333  3
  10360  10357  10369  10372     1  0.0000000  1.0460000  1
  10360  10357  10369  10372     1  0.0000000  0.6694400  3
  10360  10361  10362  10365     1  0.0000000  0.6508444  3
  10360  10361  10367  10373     1  0.0000000  1.0460000  1
  10360  10361  10367  10373     1  0.0000000  0.6694400  3
  10361  10360  10368  10371     1  0.0000000  1.0460000  1
  10361  10360  10368  10371     1  0.0000000  0.6694400  3
  10362  10361  10360  10364     1  0.0000000  0.6508444  3
  10362  10361  10367  10373     1  0.0000000  1.0460000  1
  10362  10361  10367  10373     1  0.0000000  0.6694400  3
  10363  10361  10360  10368     1  0.0000000  1.0460000  1
  10363  10361  10360  10368     1  0.0000000  0.0000000  3
  10363  10361  10360  10364     1  0.0000000  0.6508444  3
  10363  10361  10362  10366     1  0.0000000  1.0460000  1
  10363  10361  10362  10366     1  0.0000000  0.0000000  3
  10363  10361  10362  10378     1  0.0000000  1.0460000  1
  10363  10361  10362  10378     1  0.0000000  0.0000000  3
  10363  10361  10362  10365     1  0.0000000  0.6508444  3
  10363  10361  10367  10373     1  0.0000000  0.6973333  3
  10364  10360  10357  10369     1  0.0000000  1.0460000  1
  10364  10360  10357  10369     1  0.0000000  0.0000000  3
  10364  10360  10361  10367     1  0.0000000  1.0460000  1
  10364  10360  10361  10367     1  0.0000000  0.0000000  3
  10364  10360  10368  10371     1  0.0000000  0.6973333  3
  10365  10362  10361  10367     1  0.0000000  0.6508444  3
  10374  10370  10356  10378     1  0.0000000  1.0460000  1
  10374  10370  10356  10378     1  0.0000000  0.0000000  3
  10374  10370  10376  10377     1  0.0000000  0.6973333  3
  10375  10370  10356  10378     1  0.0000000  1.0460000  1
  10375  10370  10356  10378     1  0.0000000  0.0000000  3
  10375  10370  10376  10377     1  0.0000000  0.6973333  3
  10379  10380  10383  10387     1  0.0000000  0.6508444  3
  10379  10380  10392  10395     1  0.0000000  1.0460000  1
  10379  10380  10392  10395     1  0.0000000  0.6694400  3
  10379  10393  10399  10400     1  0.0000000  1.0460000  1
  10379  10393  10399  10400     1  0.0000000  0.6694400  3
  10379  10401  10385  10388     1  0.0000000  1.6038667  3
  10380  10383  10384  10386     1  0.0000000  0.6508444  3
  10380  10383  10391  10394     1  0.0000000  1.0460000  1
  10380  10383  10391  10394     1  0.0000000  0.6694400  3
  10380  10379  10393  10397     1  0.0000000  0.6508444  3
  10380  10379  10393  10398     1  0.0000000  0.6508444  3
  10381  10379  10380  10383     1  0.0000000  0.6508444  3
  10381  10379  10380  10392     1  0.0000000  1.0460000  1
  10381  10379  10380  10392     1  0.0000000  0.0000000  3
  10381  10379  10380  10382     1  0.0000000  0.6508444  3
  10381  10379  10393  10399     1  0.0000000  1.0460000  1
  10381  10379  10393  10399     1  0.0000000  0.0000000  3
  10381  10379  10393  10397     1  0.0000000  0.6508444  3
  10381  10379  10393  10398     1  0.0000000  0.6508444  3
  10381  10379  10401  10385     1  0.0000000  1.6038667  3
  10382  10380  10383  10384     1  0.0000000  0.6508444  3
  10382  10380  10383  10391     1  0.0000000  1.0460000  1
  10382  10380  10383  10391     1  0.0000000  0.0000000  3
  10382  10380  10383  10387     1  0.0000000  0.6508444  3
  10382  10380  10392  10395     1  0.0000000  0.6973333  3
  10382  10380  10379  10393     1  0.0000000  0.6508444  3
  10382  10380  10379  10401     1  0.0000000  1.0460000  1
  10382  10380  10379  10401     1  0.0000000  0.0000000  3
  10383  10384  10385  10388     1  0.0000000  0.6508444  3
  10383  10384  10390  10396     1  0.0000000  1.0460000  1
  10383  10384  10390  10396     1  0.0000000  0.6694400  3
  10383  10380  10392  10395     1  0.0000000  1.0460000  1
  10383  10380  10392  10395     1  0.0000000  0.6694400  3
  10384  10383  10391  10394     1  0.0000000  1.0460000  1
  10384  10383  10391  10394     1  0.0000000  0.6694400  3
  10385  10384  10390  10396     1  0.0000000  1.0460000  1
  10385  10384  10390  10396     1  0.0000000  0.6694400  3
  10385  10384  10383  10387     1  0.0000000  0.6508444  3
  10386  10384  10385  10389     1  0.0000000  1.0460000  1
  10386  10384  10385  10389     1  0.0000000  0.0000000  3
  10386  10384  10385  10401     1  0.0000000  1.0460000  1
  10386  10384  10385  10401     1  0.0000000  0.0000000  3
  10386  10384  10385  10388     1  0.0000000  0.6508444  3
  10386  10384  10390  10396     1  0.0000000  0.6973333  3
  10386  10384  10383  10391     1  0.0000000  1.0460000  1
  10386  10384  10383  10391     1  0.0000000  0.0000000  3
  10386  10384  10383  10387     1  0.0000000  0.6508444  3
  10387  10383  10384  10390     1  0.0000000  1.0460000  1
  10387  10383  10384  10390     1  0.0000000  0.0000000  3
  10387  10383  10391  10394     1  0.0000000  0.6973333  3
  10387  10383  10380  10392     1  0.0000000  1.0460000  1
  10387  10383  10380  10392     1  0.0000000  0.0000000  3
  10388  10385  10384  10390     1  0.0000000  0.6508444  3
  10397  10393  10399  10400     1  0.0000000  0.6973333  3
  10397  10393  10379  10401     1  0.0000000  1.0460000  1
  10397  10393  10379  10401     1  0.0000000  0.0000000  3
  10398  10393  10399  10400     1  0.0000000  0.6973333  3
  10398  10393  10379  10401     1  0.0000000  1.0460000  1
  10398  10393  10379  10401     1  0.0000000  0.0000000  3
  10402  10403  10406  10410     1  0.0000000  0.6508444  3
  10402  10403  10415  10418     1  0.0000000  1.0460000  1
  10402  10403  10415  10418     1  0.0000000  0.6694400  3
  10402  10416  10422  10423     1  0.0000000  1.0460000  1
  10402  10416  10422  10423     1  0.0000000  0.6694400  3
  10402  10424  10408  10411     1  0.0000000  1.6038667  3
  10403  10402  10416  10420     1  0.0000000  0.6508444  3
  10403  10402  10416  10421     1  0.0000000  0.6508444  3
  10403  10406  10407  10409     1  0.0000000  0.6508444  3
  10403  10406  10414  10417     1  0.0000000  1.0460000  1
  10403  10406  10414  10417     1  0.0000000  0.6694400  3
  10404  10402  10403  10406     1  0.0000000  0.6508444  3
  10404  10402  10403  10415     1  0.0000000  1.0460000  1
  10404  10402  10403  10415     1  0.0000000  0.0000000  3
  10404  10402  10403  10405     1  0.0000000  0.6508444  3
  10404  10402  10416  10422     1  0.0000000  1.0460000  1
  10404  10402  10416  10422     1  0.0000000  0.0000000  3
  10404  10402  10416  10420     1  0.0000000  0.6508444  3
  10404  10402  10416  10421     1  0.0000000  0.6508444  3
  10404  10402  10424  10408     1  0.0000000  1.6038667  3
  10405  10403  10402  10416     1  0.0000000  0.6508444  3
  10405  10403  10402  10424     1  0.0000000  1.0460000  1
  10405  10403  10402  10424     1  0.0000000  0.0000000  3
  10405  10403  10406  10407     1  0.0000000  0.6508444  3
  10405  10403  10406  10414     1  0.0000000  1.0460000  1
  10405  10403  10406  10414     1  0.0000000  0.0000000  3
  10405  10403  10406  10410     1  0.0000000  0.6508444  3
  10405  10403  10415  10418     1  0.0000000  0.6973333  3
  10406  10403  10415  10418     1  0.0000000  1.0460000  1
  10406  10403  10415  10418     1  0.0000000  0.6694400  3
  10406  10407  10408  10411     1  0.0000000  0.6508444  3
  10406  10407  10413  10419     1  0.0000000  1.0460000  1
  10406  10407  10413  10419     1  0.0000000  0.6694400  3
  10407  10406  10414  10417     1  0.0000000  1.0460000  1
  10407  10406  10414  10417     1  0.0000000  0.6694400  3
  10408  10407  10406  10410     1  0.0000000  0.6508444  3
  10408  10407  10413  10419     1  0.0000000  1.0460000  1
  10408  10407  10413  10419     1  0.0000000  0.6694400  3
  10409  10407  10406  10414     1  0.0000000  1.0460000  1
  10409  10407  10406  10414     1  0.0000000  0.0000000  3
  10409  10407  10406  10410     1  0.0000000  0.6508444  3
  10409  10407  10408  10412     1  0.0000000  1.0460000  1
  10409  10407  10408  10412     1  0.0000000  0.0000000  3
  10409  10407  10408  10424     1  0.0000000  1.0460000  1
  10409  10407  10408  10424     1  0.0000000  0.0000000  3
  10409  10407  10408  10411     1  0.0000000  0.6508444  3
  10409  10407  10413  10419     1  0.0000000  0.6973333  3
  10410  10406  10403  10415     1  0.0000000  1.0460000  1
  10410  10406  10403  10415     1  0.0000000  0.0000000  3
  10410  10406  10407  10413     1  0.0000000  1.0460000  1
  10410  10406  10407  10413     1  0.0000000  0.0000000  3
  10410  10406  10414  10417     1  0.0000000  0.6973333  3
  10411  10408  10407  10413     1  0.0000000  0.6508444  3
  10420  10416  10402  10424     1  0.0000000  1.0460000  1
  10420  10416  10402  10424     1  0.0000000  0.0000000  3
  10420  10416  10422  10423     1  0.0000000  0.6973333  3
  10421  10416  10402  10424     1  0.0000000  1.0460000  1
  10421  10416  10402  10424     1  0.0000000  0.0000000  3
  10421  10416  10422  10423     1  0.0000000  0.6973333  3
  10425  10426  10429  10433     1  0.0000000  0.6508444  3
  10425  10426  10438  10441     1  0.0000000  1.0460000  1
  10425  10426  10438  10441     1  0.0000000  0.6694400  3
  10425  10439  10445  10446     1  0.0000000  1.0460000  1
  10425  10439  10445  10446     1  0.0000000  0.6694400  3
  10425  10447  10431  10434     1  0.0000000  1.6038667  3
  10426  10429  10430  10432     1  0.0000000  0.6508444  3
  10426  10429  10437  10440     1  0.0000000  1.0460000  1
  10426  10429  10437  10440     1  0.0000000  0.6694400  3
  10426  10425  10439  10443     1  0.0000000  0.6508444  3
  10426  10425  10439  10444     1  0.0000000  0.6508444  3
  10427  10425  10426  10429     1  0.0000000  0.6508444  3
  10427  10425  10426  10438     1  0.0000000  1.0460000  1
  10427  10425  10426  10438     1  0.0000000  0.0000000  3
  10427  10425  10426  10428     1  0.0000000  0.6508444  3
  10427  10425  10439  10445     1  0.0000000  1.0460000  1
  10427  10425  10439  10445     1  0.0000000  0.0000000  3
  10427  10425  10439  10443     1  0.0000000  0.6508444  3
  10427  10425  10439  10444     1  0.0000000  0.6508444  3
  10427  10425  10447  10431     1  0.0000000  1.6038667  3
  10428  10426  10429  10430     1  0.0000000  0.6508444  3
  10428  10426  10429  10437     1  0.0000000  1.0460000  1
  10428  10426  10429  10437     1  0.0000000  0.0000000  3
  10428  10426  10429  10433     1  0.0000000  0.6508444  3
  10428  10426  10438  10441     1  0.0000000  0.6973333  3
  10428  10426  10425  10439     1  0.0000000  0.6508444  3
  10428  10426  10425  10447     1  0.0000000  1.0460000  1
  10428  10426  10425  10447     1  0.0000000  0.0000000  3
  10429  10430  10431  10434     1  0.0000000  0.6508444  3
  10429  10430  10436  10442     1  0.0000000  1.0460000  1
  10429  10430  10436  10442     1  0.0000000  0.6694400  3
  10429  10426  10438  10441     1  0.0000000  1.0460000  1
  10429  10426  10438  10441     1  0.0000000  0.6694400  3
  10430  10429  10437  10440     1  0.0000000  1.0460000  1
  10430  10429  10437  10440     1  0.0000000  0.6694400  3
  10431  10430  10436  10442     1  0.0000000  1.0460000  1
  10431  10430  10436  10442     1  0.0000000  0.6694400  3
  10431  10430  10429  10433     1  0.0000000  0.6508444  3
  10432  10430  10431  10435     1  0.0000000  1.0460000  1
  10432  10430  10431  10435     1  0.0000000  0.0000000  3
  10432  10430  10431  10447     1  0.0000000  1.0460000  1
  10432  10430  10431  10447     1  0.0000000  0.0000000  3
  10432  10430  10431  10434     1  0.0000000  0.6508444  3
  10432  10430  10436  10442     1  0.0000000  0.6973333  3
  10432  10430  10429  10437     1  0.0000000  1.0460000  1
  10432  10430  10429  10437     1  0.0000000  0.0000000  3
  10432  10430  10429  10433     1  0.0000000  0.6508444  3
  10433  10429  10430  10436     1  0.0000000  1.0460000  1
  10433  10429  10430  10436     1  0.0000000  0.0000000  3
  10433  10429  10437  10440     1  0.0000000  0.6973333  3
  10433  10429  10426  10438     1  0.0000000  1.0460000  1
  10433  10429  10426  10438     1  0.0000000  0.0000000  3
  10434  10431  10430  10436     1  0.0000000  0.6508444  3
  10443  10439  10445  10446     1  0.0000000  0.6973333  3
  10443  10439  10425  10447     1  0.0000000  1.0460000  1
  10443  10439  10425  10447     1  0.0000000  0.0000000  3
  10444  10439  10445  10446     1  0.0000000  0.6973333  3
  10444  10439  10425  10447     1  0.0000000  1.0460000  1
  10444  10439  10425  10447     1  0.0000000  0.0000000  3
  10448  10449  10452  10456     1  0.0000000  0.6508444  3
  10448  10449  10461  10464     1  0.0000000  1.0460000  1
  10448  10449  10461  10464     1  0.0000000  0.6694400  3
  10448  10462  10468  10469     1  0.0000000  1.0460000  1
  10448  10462  10468  10469     1  0.0000000  0.6694400  3
  10448  10470  10454  10457     1  0.0000000  1.6038667  3
  10449  10448  10462  10466     1  0.0000000  0.6508444  3
  10449  10448  10462  10467     1  0.0000000  0.6508444  3
  10449  10452  10453  10455     1  0.0000000  0.6508444  3
  10449  10452  10460  10463     1  0.0000000  1.0460000  1
  10449  10452  10460  10463     1  0.0000000  0.6694400  3
  10450  10448  10449  10452     1  0.0000000  0.6508444  3
  10450  10448  10449  10461     1  0.0000000  1.0460000  1
  10450  10448  10449  10461     1  0.0000000  0.0000000  3
  10450  10448  10449  10451     1  0.0000000  0.6508444  3
  10450  10448  10462  10468     1  0.0000000  1.0460000  1
  10450  10448  10462  10468     1  0.0000000  0.0000000  3
  10450  10448  10462  10466     1  0.0000000  0.6508444  3
  10450  10448  10462  10467     1  0.0000000  0.6508444  3
  10450  10448  10470  10454     1  0.0000000  1.6038667  3
  10451  10449  10448  10462     1  0.0000000  0.6508444  3
  10451  10449  10448  10470     1  0.0000000  1.0460000  1
  10451  10449  10448  10470     1  0.0000000  0.0000000  3
  10451  10449  10452  10453     1  0.0000000  0.6508444  3
  10451  10449  10452  10460     1  0.0000000  1.0460000  1
  10451  10449  10452  10460     1  0.0000000  0.0000000  3
  10451  10449  10452  10456     1  0.0000000  0.6508444  3
  10451  10449  10461  10464     1  0.0000000  0.6973333  3
  10452  10449  10461  10464     1  0.0000000  1.0460000  1
  10452  10449  10461  10464     1  0.0000000  0.6694400  3
  10452  10453  10454  10457     1  0.0000000  0.6508444  3
  10452  10453  10459  10465     1  0.0000000  1.0460000  1
  10452  10453  10459  10465     1  0.0000000  0.6694400  3
  10453  10452  10460  10463     1  0.0000000  1.0460000  1
  10453  10452  10460  10463     1  0.0000000  0.6694400  3
  10454  10453  10452  10456     1  0.0000000  0.6508444  3
  10454  10453  10459  10465     1  0.0000000  1.0460000  1
  10454  10453  10459  10465     1  0.0000000  0.6694400  3
  10455  10453  10452  10460     1  0.0000000  1.0460000  1
  10455  10453  10452  10460     1  0.0000000  0.0000000  3
  10455  10453  10452  10456     1  0.0000000  0.6508444  3
  10455  10453  10454  10458     1  0.0000000  1.0460000  1
  10455  10453  10454  10458     1  0.0000000  0.0000000  3
  10455  10453  10454  10470     1  0.0000000  1.0460000  1
  10455  10453  10454  10470     1  0.0000000  0.0000000  3
  10455  10453  10454  10457     1  0.0000000  0.6508444  3
  10455  10453  10459  10465     1  0.0000000  0.6973333  3
  10456  10452  10449  10461     1  0.0000000  1.0460000  1
  10456  10452  10449  10461     1  0.0000000  0.0000000  3
  10456  10452  10453  10459     1  0.0000000  1.0460000  1
  10456  10452  10453  10459     1  0.0000000  0.0000000  3
  10456  10452  10460  10463     1  0.0000000  0.6973333  3
  10457  10454  10453  10459     1  0.0000000  0.6508444  3
  10466  10462  10448  10470     1  0.0000000  1.0460000  1
  10466  10462  10448  10470     1  0.0000000  0.0000000  3
  10466  10462  10468  10469     1  0.0000000  0.6973333  3
  10467  10462  10448  10470     1  0.0000000  1.0460000  1
  10467  10462  10448  10470     1  0.0000000  0.0000000  3
  10467  10462  10468  10469     1  0.0000000  0.6973333  3
  10471  10472  10475  10479     1  0.0000000  0.6508444  3
  10471  10472  10484  10487     1  0.0000000  1.0460000  1
  10471  10472  10484  10487     1  0.0000000  0.6694400  3
  10471  10485  10491  10492     1  0.0000000  1.0460000  1
  10471  10485  10491  10492     1  0.0000000  0.6694400  3
  10471  10493  10477  10480     1  0.0000000  1.6038667  3
  10472  10475  10476  10478     1  0.0000000  0.6508444  3
  10472  10475  10483  10486     1  0.0000000  1.0460000  1
  10472  10475  10483  10486     1  0.0000000  0.6694400  3
  10472  10471  10485  10489     1  0.0000000  0.6508444  3
  10472  10471  10485  10490     1  0.0000000  0.6508444  3
  10473  10471  10472  10475     1  0.0000000  0.6508444  3
  10473  10471  10472  10484     1  0.0000000  1.0460000  1
  10473  10471  10472  10484     1  0.0000000  0.0000000  3
  10473  10471  10472  10474     1  0.0000000  0.6508444  3
  10473  10471  10485  10491     1  0.0000000  1.0460000  1
  10473  10471  10485  10491     1  0.0000000  0.0000000  3
  10473  10471  10485  10489     1  0.0000000  0.6508444  3
  10473  10471  10485  10490     1  0.0000000  0.6508444  3
  10473  10471  10493  10477     1  0.0000000  1.6038667  3
  10474  10472  10475  10476     1  0.0000000  0.6508444  3
  10474  10472  10475  10483     1  0.0000000  1.0460000  1
  10474  10472  10475  10483     1  0.0000000  0.0000000  3
  10474  10472  10475  10479     1  0.0000000  0.6508444  3
  10474  10472  10484  10487     1  0.0000000  0.6973333  3
  10474  10472  10471  10485     1  0.0000000  0.6508444  3
  10474  10472  10471  10493     1  0.0000000  1.0460000  1
  10474  10472  10471  10493     1  0.0000000  0.0000000  3
  10475  10476  10477  10480     1  0.0000000  0.6508444  3
  10475  10476  10482  10488     1  0.0000000  1.0460000  1
  10475  10476  10482  10488     1  0.0000000  0.6694400  3
  10475  10472  10484  10487     1  0.0000000  1.0460000  1
  10475  10472  10484  10487     1  0.0000000  0.6694400  3
  10476  10475  10483  10486     1  0.0000000  1.0460000  1
  10476  10475  10483  10486     1  0.0000000  0.6694400  3
  10477  10476  10482  10488     1  0.0000000  1.0460000  1
  10477  10476  10482  10488     1  0.0000000  0.6694400  3
  10477  10476  10475  10479     1  0.0000000  0.6508444  3
  10478  10476  10477  10481     1  0.0000000  1.0460000  1
  10478  10476  10477  10481     1  0.0000000  0.0000000  3
  10478  10476  10477  10493     1  0.0000000  1.0460000  1
  10478  10476  10477  10493     1  0.0000000  0.0000000  3
  10478  10476  10477  10480     1  0.0000000  0.6508444  3
  10478  10476  10482  10488     1  0.0000000  0.6973333  3
  10478  10476  10475  10483     1  0.0000000  1.0460000  1
  10478  10476  10475  10483     1  0.0000000  0.0000000  3
  10478  10476  10475  10479     1  0.0000000  0.6508444  3
  10479  10475  10476  10482     1  0.0000000  1.0460000  1
  10479  10475  10476  10482     1  0.0000000  0.0000000  3
  10479  10475  10483  10486     1  0.0000000  0.6973333  3
  10479  10475  10472  10484     1  0.0000000  1.0460000  1
  10479  10475  10472  10484     1  0.0000000  0.0000000  3
  10480  10477  10476  10482     1  0.0000000  0.6508444  3
  10489  10485  10491  10492     1  0.0000000  0.6973333  3
  10489  10485  10471  10493     1  0.0000000  1.0460000  1
  10489  10485  10471  10493     1  0.0000000  0.0000000  3
  10490  10485  10491  10492     1  0.0000000  0.6973333  3
  10490  10485  10471  10493     1  0.0000000  1.0460000  1
  10490  10485  10471  10493     1  0.0000000  0.0000000  3
  10494  10495  10498  10502     1  0.0000000  0.6508444  3
  10494  10495  10507  10510     1  0.0000000  1.0460000  1
  10494  10495  10507  10510     1  0.0000000  0.6694400  3
  10494  10508  10514  10515     1  0.0000000  1.0460000  1
  10494  10508  10514  10515     1  0.0000000  0.6694400  3
  10494  10516  10500  10503     1  0.0000000  1.6038667  3
  10495  10494  10508  10512     1  0.0000000  0.6508444  3
  10495  10494  10508  10513     1  0.0000000  0.6508444  3
  10495  10498  10499  10501     1  0.0000000  0.6508444  3
  10495  10498  10506  10509     1  0.0000000  1.0460000  1
  10495  10498  10506  10509     1  0.0000000  0.6694400  3
  10496  10494  10495  10498     1  0.0000000  0.6508444  3
  10496  10494  10495  10507     1  0.0000000  1.0460000  1
  10496  10494  10495  10507     1  0.0000000  0.0000000  3
  10496  10494  10495  10497     1  0.0000000  0.6508444  3
  10496  10494  10508  10514     1  0.0000000  1.0460000  1
  10496  10494  10508  10514     1  0.0000000  0.0000000  3
  10496  10494  10508  10512     1  0.0000000  0.6508444  3
  10496  10494  10508  10513     1  0.0000000  0.6508444  3
  10496  10494  10516  10500     1  0.0000000  1.6038667  3
  10497  10495  10494  10508     1  0.0000000  0.6508444  3
  10497  10495  10494  10516     1  0.0000000  1.0460000  1
  10497  10495  10494  10516     1  0.0000000  0.0000000  3
  10497  10495  10498  10499     1  0.0000000  0.6508444  3
  10497  10495  10498  10506     1  0.0000000  1.0460000  1
  10497  10495  10498  10506     1  0.0000000  0.0000000  3
  10497  10495  10498  10502     1  0.0000000  0.6508444  3
  10497  10495  10507  10510     1  0.0000000  0.6973333  3
  10498  10495  10507  10510     1  0.0000000  1.0460000  1
  10498  10495  10507  10510     1  0.0000000  0.6694400  3
  10498  10499  10500  10503     1  0.0000000  0.6508444  3
  10498  10499  10505  10511     1  0.0000000  1.0460000  1
  10498  10499  10505  10511     1  0.0000000  0.6694400  3
  10499  10498  10506  10509     1  0.0000000  1.0460000  1
  10499  10498  10506  10509     1  0.0000000  0.6694400  3
  10500  10499  10498  10502     1  0.0000000  0.6508444  3
  10500  10499  10505  10511     1  0.0000000  1.0460000  1
  10500  10499  10505  10511     1  0.0000000  0.6694400  3
  10501  10499  10498  10506     1  0.0000000  1.0460000  1
  10501  10499  10498  10506     1  0.0000000  0.0000000  3
  10501  10499  10498  10502     1  0.0000000  0.6508444  3
  10501  10499  10500  10504     1  0.0000000  1.0460000  1
  10501  10499  10500  10504     1  0.0000000  0.0000000  3
  10501  10499  10500  10516     1  0.0000000  1.0460000  1
  10501  10499  10500  10516     1  0.0000000  0.0000000  3
  10501  10499  10500  10503     1  0.0000000  0.6508444  3
  10501  10499  10505  10511     1  0.0000000  0.6973333  3
  10502  10498  10495  10507     1  0.0000000  1.0460000  1
  10502  10498  10495  10507     1  0.0000000  0.0000000  3
  10502  10498  10499  10505     1  0.0000000  1.0460000  1
  10502  10498  10499  10505     1  0.0000000  0.0000000  3
  10502  10498  10506  10509     1  0.0000000  0.6973333  3
  10503  10500  10499  10505     1  0.0000000  0.6508444  3
  10512  10508  10494  10516     1  0.0000000  1.0460000  1
  10512  10508  10494  10516     1  0.0000000  0.0000000  3
  10512  10508  10514  10515     1  0.0000000  0.6973333  3
  10513  10508  10494  10516     1  0.0000000  1.0460000  1
  10513  10508  10494  10516     1  0.0000000  0.0000000  3
  10513  10508  10514  10515     1  0.0000000  0.6973333  3
  10517  10518  10521  10525     1  0.0000000  0.6508444  3
  10517  10518  10530  10533     1  0.0000000  1.0460000  1
  10517  10518  10530  10533     1  0.0000000  0.6694400  3
  10517  10531  10537  10538     1  0.0000000  1.0460000  1
  10517  10531  10537  10538     1  0.0000000  0.6694400  3
  10517  10539  10523  10526     1  0.0000000  1.6038667  3
  10518  10521  10522  10524     1  0.0000000  0.6508444  3
  10518  10521  10529  10532     1  0.0000000  1.0460000  1
  10518  10521  10529  10532     1  0.0000000  0.6694400  3
  10518  10517  10531  10535     1  0.0000000  0.6508444  3
  10518  10517  10531  10536     1  0.0000000  0.6508444  3
  10519  10517  10518  10521     1  0.0000000  0.6508444  3
  10519  10517  10518  10530     1  0.0000000  1.0460000  1
  10519  10517  10518  10530     1  0.0000000  0.0000000  3
  10519  10517  10518  10520     1  0.0000000  0.6508444  3
  10519  10517  10531  10537     1  0.0000000  1.0460000  1
  10519  10517  10531  10537     1  0.0000000  0.0000000  3
  10519  10517  10531  10535     1  0.0000000  0.6508444  3
  10519  10517  10531  10536     1  0.0000000  0.6508444  3
  10519  10517  10539  10523     1  0.0000000  1.6038667  3
  10520  10518  10521  10522     1  0.0000000  0.6508444  3
  10520  10518  10521  10529     1  0.0000000  1.0460000  1
  10520  10518  10521  10529     1  0.0000000  0.0000000  3
  10520  10518  10521  10525     1  0.0000000  0.6508444  3
  10520  10518  10530  10533     1  0.0000000  0.6973333  3
  10520  10518  10517  10531     1  0.0000000  0.6508444  3
  10520  10518  10517  10539     1  0.0000000  1.0460000  1
  10520  10518  10517  10539     1  0.0000000  0.0000000  3
  10521  10522  10523  10526     1  0.0000000  0.6508444  3
  10521  10522  10528  10534     1  0.0000000  1.0460000  1
  10521  10522  10528  10534     1  0.0000000  0.6694400  3
  10521  10518  10530  10533     1  0.0000000  1.0460000  1
  10521  10518  10530  10533     1  0.0000000  0.6694400  3
  10522  10521  10529  10532     1  0.0000000  1.0460000  1
  10522  10521  10529  10532     1  0.0000000  0.6694400  3
  10523  10522  10528  10534     1  0.0000000  1.0460000  1
  10523  10522  10528  10534     1  0.0000000  0.6694400  3
  10523  10522  10521  10525     1  0.0000000  0.6508444  3
  10524  10522  10523  10527     1  0.0000000  1.0460000  1
  10524  10522  10523  10527     1  0.0000000  0.0000000  3
  10524  10522  10523  10539     1  0.0000000  1.0460000  1
  10524  10522  10523  10539     1  0.0000000  0.0000000  3
  10524  10522  10523  10526     1  0.0000000  0.6508444  3
  10524  10522  10528  10534     1  0.0000000  0.6973333  3
  10524  10522  10521  10529     1  0.0000000  1.0460000  1
  10524  10522  10521  10529     1  0.0000000  0.0000000  3
  10524  10522  10521  10525     1  0.0000000  0.6508444  3
  10525  10521  10522  10528     1  0.0000000  1.0460000  1
  10525  10521  10522  10528     1  0.0000000  0.0000000  3
  10525  10521  10529  10532     1  0.0000000  0.6973333  3
  10525  10521  10518  10530     1  0.0000000  1.0460000  1
  10525  10521  10518  10530     1  0.0000000  0.0000000  3
  10526  10523  10522  10528     1  0.0000000  0.6508444  3
  10535  10531  10537  10538     1  0.0000000  0.6973333  3
  10535  10531  10517  10539     1  0.0000000  1.0460000  1
  10535  10531  10517  10539     1  0.0000000  0.0000000  3
  10536  10531  10537  10538     1  0.0000000  0.6973333  3
  10536  10531  10517  10539     1  0.0000000  1.0460000  1
  10536  10531  10517  10539     1  0.0000000  0.0000000  3
  10540  10541  10544  10548     1  0.0000000  0.6508444  3
  10540  10541  10553  10556     1  0.0000000  1.0460000  1
  10540  10541  10553  10556     1  0.0000000  0.6694400  3
  10540  10554  10560  10561     1  0.0000000  1.0460000  1
  10540  10554  10560  10561     1  0.0000000  0.6694400  3
  10540  10562  10546  10549     1  0.0000000  1.6038667  3
  10541  10540  10554  10558     1  0.0000000  0.6508444  3
  10541  10540  10554  10559     1  0.0000000  0.6508444  3
  10541  10544  10545  10547     1  0.0000000  0.6508444  3
  10541  10544  10552  10555     1  0.0000000  1.0460000  1
  10541  10544  10552  10555     1  0.0000000  0.6694400  3
  10542  10540  10541  10544     1  0.0000000  0.6508444  3
  10542  10540  10541  10553     1  0.0000000  1.0460000  1
  10542  10540  10541  10553     1  0.0000000  0.0000000  3
  10542  10540  10541  10543     1  0.0000000  0.6508444  3
  10542  10540  10554  10560     1  0.0000000  1.0460000  1
  10542  10540  10554  10560     1  0.0000000  0.0000000  3
  10542  10540  10554  10558     1  0.0000000  0.6508444  3
  10542  10540  10554  10559     1  0.0000000  0.6508444  3
  10542  10540  10562  10546     1  0.0000000  1.6038667  3
  10543  10541  10540  10554     1  0.0000000  0.6508444  3
  10543  10541  10540  10562     1  0.0000000  1.0460000  1
  10543  10541  10540  10562     1  0.0000000  0.0000000  3
  10543  10541  10544  10545     1  0.0000000  0.6508444  3
  10543  10541  10544  10552     1  0.0000000  1.0460000  1
  10543  10541  10544  10552     1  0.0000000  0.0000000  3
  10543  10541  10544  10548     1  0.0000000  0.6508444  3
  10543  10541  10553  10556     1  0.0000000  0.6973333  3
  10544  10541  10553  10556     1  0.0000000  1.0460000  1
  10544  10541  10553  10556     1  0.0000000  0.6694400  3
  10544  10545  10546  10549     1  0.0000000  0.6508444  3
  10544  10545  10551  10557     1  0.0000000  1.0460000  1
  10544  10545  10551  10557     1  0.0000000  0.6694400  3
  10545  10544  10552  10555     1  0.0000000  1.0460000  1
  10545  10544  10552  10555     1  0.0000000  0.6694400  3
  10546  10545  10544  10548     1  0.0000000  0.6508444  3
  10546  10545  10551  10557     1  0.0000000  1.0460000  1
  10546  10545  10551  10557     1  0.0000000  0.6694400  3
  10547  10545  10544  10552     1  0.0000000  1.0460000  1
  10547  10545  10544  10552     1  0.0000000  0.0000000  3
  10547  10545  10544  10548     1  0.0000000  0.6508444  3
  10547  10545  10546  10550     1  0.0000000  1.0460000  1
  10547  10545  10546  10550     1  0.0000000  0.0000000  3
  10547  10545  10546  10562     1  0.0000000  1.0460000  1
  10547  10545  10546  10562     1  0.0000000  0.0000000  3
  10547  10545  10546  10549     1  0.0000000  0.6508444  3
  10547  10545  10551  10557     1  0.0000000  0.6973333  3
  10548  10544  10541  10553     1  0.0000000  1.0460000  1
  10548  10544  10541  10553     1  0.0000000  0.0000000  3
  10548  10544  10545  10551     1  0.0000000  1.0460000  1
  10548  10544  10545  10551     1  0.0000000  0.0000000  3
  10548  10544  10552  10555     1  0.0000000  0.6973333  3
  10549  10546  10545  10551     1  0.0000000  0.6508444  3
  10558  10554  10540  10562     1  0.0000000  1.0460000  1
  10558  10554  10540  10562     1  0.0000000  0.0000000  3
  10558  10554  10560  10561     1  0.0000000  0.6973333  3
  10559  10554  10540  10562     1  0.0000000  1.0460000  1
  10559  10554  10540  10562     1  0.0000000  0.0000000  3
  10559  10554  10560  10561     1  0.0000000  0.6973333  3
  10563  10564  10567  10571     1  0.0000000  0.6508444  3
  10563  10564  10576  10579     1  0.0000000  1.0460000  1
  10563  10564  10576  10579     1  0.0000000  0.6694400  3
  10563  10577  10583  10584     1  0.0000000  1.0460000  1
  10563  10577  10583  10584     1  0.0000000  0.6694400  3
  10563  10585  10569  10572     1  0.0000000  1.6038667  3
  10564  10567  10568  10570     1  0.0000000  0.6508444  3
  10564  10567  10575  10578     1  0.0000000  1.0460000  1
  10564  10567  10575  10578     1  0.0000000  0.6694400  3
  10564  10563  10577  10581     1  0.0000000  0.6508444  3
  10564  10563  10577  10582     1  0.0000000  0.6508444  3
  10565  10563  10564  10567     1  0.0000000  0.6508444  3
  10565  10563  10564  10576     1  0.0000000  1.0460000  1
  10565  10563  10564  10576     1  0.0000000  0.0000000  3
  10565  10563  10564  10566     1  0.0000000  0.6508444  3
  10565  10563  10577  10583     1  0.0000000  1.0460000  1
  10565  10563  10577  10583     1  0.0000000  0.0000000  3
  10565  10563  10577  10581     1  0.0000000  0.6508444  3
  10565  10563  10577  10582     1  0.0000000  0.6508444  3
  10565  10563  10585  10569     1  0.0000000  1.6038667  3
  10566  10564  10567  10568     1  0.0000000  0.6508444  3
  10566  10564  10567  10575     1  0.0000000  1.0460000  1
  10566  10564  10567  10575     1  0.0000000  0.0000000  3
  10566  10564  10567  10571     1  0.0000000  0.6508444  3
  10566  10564  10576  10579     1  0.0000000  0.6973333  3
  10566  10564  10563  10577     1  0.0000000  0.6508444  3
  10566  10564  10563  10585     1  0.0000000  1.0460000  1
  10566  10564  10563  10585     1  0.0000000  0.0000000  3
  10567  10568  10569  10572     1  0.0000000  0.6508444  3
  10567  10568  10574  10580     1  0.0000000  1.0460000  1
  10567  10568  10574  10580     1  0.0000000  0.6694400  3
  10567  10564  10576  10579     1  0.0000000  1.0460000  1
  10567  10564  10576  10579     1  0.0000000  0.6694400  3
  10568  10567  10575  10578     1  0.0000000  1.0460000  1
  10568  10567  10575  10578     1  0.0000000  0.6694400  3
  10569  10568  10574  10580     1  0.0000000  1.0460000  1
  10569  10568  10574  10580     1  0.0000000  0.6694400  3
  10569  10568  10567  10571     1  0.0000000  0.6508444  3
  10570  10568  10569  10573     1  0.0000000  1.0460000  1
  10570  10568  10569  10573     1  0.0000000  0.0000000  3
  10570  10568  10569  10585     1  0.0000000  1.0460000  1
  10570  10568  10569  10585     1  0.0000000  0.0000000  3
  10570  10568  10569  10572     1  0.0000000  0.6508444  3
  10570  10568  10574  10580     1  0.0000000  0.6973333  3
  10570  10568  10567  10575     1  0.0000000  1.0460000  1
  10570  10568  10567  10575     1  0.0000000  0.0000000  3
  10570  10568  10567  10571     1  0.0000000  0.6508444  3
  10571  10567  10568  10574     1  0.0000000  1.0460000  1
  10571  10567  10568  10574     1  0.0000000  0.0000000  3
  10571  10567  10575  10578     1  0.0000000  0.6973333  3
  10571  10567  10564  10576     1  0.0000000  1.0460000  1
  10571  10567  10564  10576     1  0.0000000  0.0000000  3
  10572  10569  10568  10574     1  0.0000000  0.6508444  3
  10581  10577  10583  10584     1  0.0000000  0.6973333  3
  10581  10577  10563  10585     1  0.0000000  1.0460000  1
  10581  10577  10563  10585     1  0.0000000  0.0000000  3
  10582  10577  10583  10584     1  0.0000000  0.6973333  3
  10582  10577  10563  10585     1  0.0000000  1.0460000  1
  10582  10577  10563  10585     1  0.0000000  0.0000000  3
  10586  10587  10590  10594     1  0.0000000  0.6508444  3
  10586  10587  10599  10602     1  0.0000000  1.0460000  1
  10586  10587  10599  10602     1  0.0000000  0.6694400  3
  10586  10600  10606  10607     1  0.0000000  1.0460000  1
  10586  10600  10606  10607     1  0.0000000  0.6694400  3
  10586  10608  10592  10595     1  0.0000000  1.6038667  3
  10587  10586  10600  10604     1  0.0000000  0.6508444  3
  10587  10586  10600  10605     1  0.0000000  0.6508444  3
  10587  10590  10591  10593     1  0.0000000  0.6508444  3
  10587  10590  10598  10601     1  0.0000000  1.0460000  1
  10587  10590  10598  10601     1  0.0000000  0.6694400  3
  10588  10586  10587  10590     1  0.0000000  0.6508444  3
  10588  10586  10587  10599     1  0.0000000  1.0460000  1
  10588  10586  10587  10599     1  0.0000000  0.0000000  3
  10588  10586  10587  10589     1  0.0000000  0.6508444  3
  10588  10586  10600  10606     1  0.0000000  1.0460000  1
  10588  10586  10600  10606     1  0.0000000  0.0000000  3
  10588  10586  10600  10604     1  0.0000000  0.6508444  3
  10588  10586  10600  10605     1  0.0000000  0.6508444  3
  10588  10586  10608  10592     1  0.0000000  1.6038667  3
  10589  10587  10586  10600     1  0.0000000  0.6508444  3
  10589  10587  10586  10608     1  0.0000000  1.0460000  1
  10589  10587  10586  10608     1  0.0000000  0.0000000  3
  10589  10587  10590  10591     1  0.0000000  0.6508444  3
  10589  10587  10590  10598     1  0.0000000  1.0460000  1
  10589  10587  10590  10598     1  0.0000000  0.0000000  3
  10589  10587  10590  10594     1  0.0000000  0.6508444  3
  10589  10587  10599  10602     1  0.0000000  0.6973333  3
  10590  10587  10599  10602     1  0.0000000  1.0460000  1
  10590  10587  10599  10602     1  0.0000000  0.6694400  3
  10590  10591  10592  10595     1  0.0000000  0.6508444  3
  10590  10591  10597  10603     1  0.0000000  1.0460000  1
  10590  10591  10597  10603     1  0.0000000  0.6694400  3
  10591  10590  10598  10601     1  0.0000000  1.0460000  1
  10591  10590  10598  10601     1  0.0000000  0.6694400  3
  10592  10591  10590  10594     1  0.0000000  0.6508444  3
  10592  10591  10597  10603     1  0.0000000  1.0460000  1
  10592  10591  10597  10603     1  0.0000000  0.6694400  3
  10593  10591  10590  10598     1  0.0000000  1.0460000  1
  10593  10591  10590  10598     1  0.0000000  0.0000000  3
  10593  10591  10590  10594     1  0.0000000  0.6508444  3
  10593  10591  10592  10596     1  0.0000000  1.0460000  1
  10593  10591  10592  10596     1  0.0000000  0.0000000  3
  10593  10591  10592  10608     1  0.0000000  1.0460000  1
  10593  10591  10592  10608     1  0.0000000  0.0000000  3
  10593  10591  10592  10595     1  0.0000000  0.6508444  3
  10593  10591  10597  10603     1  0.0000000  0.6973333  3
  10594  10590  10587  10599     1  0.0000000  1.0460000  1
  10594  10590  10587  10599     1  0.0000000  0.0000000  3
  10594  10590  10591  10597     1  0.0000000  1.0460000  1
  10594  10590  10591  10597     1  0.0000000  0.0000000  3
  10594  10590  10598  10601     1  0.0000000  0.6973333  3
  10595  10592  10591  10597     1  0.0000000  0.6508444  3
  10604  10600  10586  10608     1  0.0000000  1.0460000  1
  10604  10600  10586  10608     1  0.0000000  0.0000000  3
  10604  10600  10606  10607     1  0.0000000  0.6973333  3
  10605  10600  10586  10608     1  0.0000000  1.0460000  1
  10605  10600  10586  10608     1  0.0000000  0.0000000  3
  10605  10600  10606  10607     1  0.0000000  0.6973333  3
  10609  10610  10613  10617     1  0.0000000  0.6508444  3
  10609  10610  10622  10625     1  0.0000000  1.0460000  1
  10609  10610  10622  10625     1  0.0000000  0.6694400  3
  10609  10623  10629  10630     1  0.0000000  1.0460000  1
  10609  10623  10629  10630     1  0.0000000  0.6694400  3
  10609  10631  10615  10618     1  0.0000000  1.6038667  3
  10610  10613  10614  10616     1  0.0000000  0.6508444  3
  10610  10613  10621  10624     1  0.0000000  1.0460000  1
  10610  10613  10621  10624     1  0.0000000  0.6694400  3
  10610  10609  10623  10627     1  0.0000000  0.6508444  3
  10610  10609  10623  10628     1  0.0000000  0.6508444  3
  10611  10609  10610  10613     1  0.0000000  0.6508444  3
  10611  10609  10610  10622     1  0.0000000  1.0460000  1
  10611  10609  10610  10622     1  0.0000000  0.0000000  3
  10611  10609  10610  10612     1  0.0000000  0.6508444  3
  10611  10609  10623  10629     1  0.0000000  1.0460000  1
  10611  10609  10623  10629     1  0.0000000  0.0000000  3
  10611  10609  10623  10627     1  0.0000000  0.6508444  3
  10611  10609  10623  10628     1  0.0000000  0.6508444  3
  10611  10609  10631  10615     1  0.0000000  1.6038667  3
  10612  10610  10613  10614     1  0.0000000  0.6508444  3
  10612  10610  10613  10621     1  0.0000000  1.0460000  1
  10612  10610  10613  10621     1  0.0000000  0.0000000  3
  10612  10610  10613  10617     1  0.0000000  0.6508444  3
  10612  10610  10622  10625     1  0.0000000  0.6973333  3
  10612  10610  10609  10623     1  0.0000000  0.6508444  3
  10612  10610  10609  10631     1  0.0000000  1.0460000  1
  10612  10610  10609  10631     1  0.0000000  0.0000000  3
  10613  10614  10615  10618     1  0.0000000  0.6508444  3
  10613  10614  10620  10626     1  0.0000000  1.0460000  1
  10613  10614  10620  10626     1  0.0000000  0.6694400  3
  10613  10610  10622  10625     1  0.0000000  1.0460000  1
  10613  10610  10622  10625     1  0.0000000  0.6694400  3
  10614  10613  10621  10624     1  0.0000000  1.0460000  1
  10614  10613  10621  10624     1  0.0000000  0.6694400  3
  10615  10614  10620  10626     1  0.0000000  1.0460000  1
  10615  10614  10620  10626     1  0.0000000  0.6694400  3
  10615  10614  10613  10617     1  0.0000000  0.6508444  3
  10616  10614  10615  10619     1  0.0000000  1.0460000  1
  10616  10614  10615  10619     1  0.0000000  0.0000000  3
  10616  10614  10615  10631     1  0.0000000  1.0460000  1
  10616  10614  10615  10631     1  0.0000000  0.0000000  3
  10616  10614  10615  10618     1  0.0000000  0.6508444  3
  10616  10614  10620  10626     1  0.0000000  0.6973333  3
  10616  10614  10613  10621     1  0.0000000  1.0460000  1
  10616  10614  10613  10621     1  0.0000000  0.0000000  3
  10616  10614  10613  10617     1  0.0000000  0.6508444  3
  10617  10613  10614  10620     1  0.0000000  1.0460000  1
  10617  10613  10614  10620     1  0.0000000  0.0000000  3
  10617  10613  10621  10624     1  0.0000000  0.6973333  3
  10617  10613  10610  10622     1  0.0000000  1.0460000  1
  10617  10613  10610  10622     1  0.0000000  0.0000000  3
  10618  10615  10614  10620     1  0.0000000  0.6508444  3
  10627  10623  10629  10630     1  0.0000000  0.6973333  3
  10627  10623  10609  10631     1  0.0000000  1.0460000  1
  10627  10623  10609  10631     1  0.0000000  0.0000000  3
  10628  10623  10629  10630     1  0.0000000  0.6973333  3
  10628  10623  10609  10631     1  0.0000000  1.0460000  1
  10628  10623  10609  10631     1  0.0000000  0.0000000  3
  10632  10633  10636  10640     1  0.0000000  0.6508444  3
  10632  10633  10645  10648     1  0.0000000  1.0460000  1
  10632  10633  10645  10648     1  0.0000000  0.6694400  3
  10632  10646  10652  10653     1  0.0000000  1.0460000  1
  10632  10646  10652  10653     1  0.0000000  0.6694400  3
  10632  10654  10638  10641     1  0.0000000  1.6038667  3
  10633  10632  10646  10650     1  0.0000000  0.6508444  3
  10633  10632  10646  10651     1  0.0000000  0.6508444  3
  10633  10636  10637  10639     1  0.0000000  0.6508444  3
  10633  10636  10644  10647     1  0.0000000  1.0460000  1
  10633  10636  10644  10647     1  0.0000000  0.6694400  3
  10634  10632  10633  10636     1  0.0000000  0.6508444  3
  10634  10632  10633  10645     1  0.0000000  1.0460000  1
  10634  10632  10633  10645     1  0.0000000  0.0000000  3
  10634  10632  10633  10635     1  0.0000000  0.6508444  3
  10634  10632  10646  10652     1  0.0000000  1.0460000  1
  10634  10632  10646  10652     1  0.0000000  0.0000000  3
  10634  10632  10646  10650     1  0.0000000  0.6508444  3
  10634  10632  10646  10651     1  0.0000000  0.6508444  3
  10634  10632  10654  10638     1  0.0000000  1.6038667  3
  10635  10633  10632  10646     1  0.0000000  0.6508444  3
  10635  10633  10632  10654     1  0.0000000  1.0460000  1
  10635  10633  10632  10654     1  0.0000000  0.0000000  3
  10635  10633  10636  10637     1  0.0000000  0.6508444  3
  10635  10633  10636  10644     1  0.0000000  1.0460000  1
  10635  10633  10636  10644     1  0.0000000  0.0000000  3
  10635  10633  10636  10640     1  0.0000000  0.6508444  3
  10635  10633  10645  10648     1  0.0000000  0.6973333  3
  10636  10633  10645  10648     1  0.0000000  1.0460000  1
  10636  10633  10645  10648     1  0.0000000  0.6694400  3
  10636  10637  10638  10641     1  0.0000000  0.6508444  3
  10636  10637  10643  10649     1  0.0000000  1.0460000  1
  10636  10637  10643  10649     1  0.0000000  0.6694400  3
  10637  10636  10644  10647     1  0.0000000  1.0460000  1
  10637  10636  10644  10647     1  0.0000000  0.6694400  3
  10638  10637  10636  10640     1  0.0000000  0.6508444  3
  10638  10637  10643  10649     1  0.0000000  1.0460000  1
  10638  10637  10643  10649     1  0.0000000  0.6694400  3
  10639  10637  10636  10644     1  0.0000000  1.0460000  1
  10639  10637  10636  10644     1  0.0000000  0.0000000  3
  10639  10637  10636  10640     1  0.0000000  0.6508444  3
  10639  10637  10638  10642     1  0.0000000  1.0460000  1
  10639  10637  10638  10642     1  0.0000000  0.0000000  3
  10639  10637  10638  10654     1  0.0000000  1.0460000  1
  10639  10637  10638  10654     1  0.0000000  0.0000000  3
  10639  10637  10638  10641     1  0.0000000  0.6508444  3
  10639  10637  10643  10649     1  0.0000000  0.6973333  3
  10640  10636  10633  10645     1  0.0000000  1.0460000  1
  10640  10636  10633  10645     1  0.0000000  0.0000000  3
  10640  10636  10637  10643     1  0.0000000  1.0460000  1
  10640  10636  10637  10643     1  0.0000000  0.0000000  3
  10640  10636  10644  10647     1  0.0000000  0.6973333  3
  10641  10638  10637  10643     1  0.0000000  0.6508444  3
  10650  10646  10632  10654     1  0.0000000  1.0460000  1
  10650  10646  10632  10654     1  0.0000000  0.0000000  3
  10650  10646  10652  10653     1  0.0000000  0.6973333  3
  10651  10646  10632  10654     1  0.0000000  1.0460000  1
  10651  10646  10632  10654     1  0.0000000  0.0000000  3
  10651  10646  10652  10653     1  0.0000000  0.6973333  3
  10655  10656  10659  10663     1  0.0000000  0.6508444  3
  10655  10656  10668  10671     1  0.0000000  1.0460000  1
  10655  10656  10668  10671     1  0.0000000  0.6694400  3
  10655  10669  10675  10676     1  0.0000000  1.0460000  1
  10655  10669  10675  10676     1  0.0000000  0.6694400  3
  10655  10677  10661  10664     1  0.0000000  1.6038667  3
  10656  10659  10660  10662     1  0.0000000  0.6508444  3
  10656  10659  10667  10670     1  0.0000000  1.0460000  1
  10656  10659  10667  10670     1  0.0000000  0.6694400  3
  10656  10655  10669  10673     1  0.0000000  0.6508444  3
  10656  10655  10669  10674     1  0.0000000  0.6508444  3
  10657  10655  10656  10659     1  0.0000000  0.6508444  3
  10657  10655  10656  10668     1  0.0000000  1.0460000  1
  10657  10655  10656  10668     1  0.0000000  0.0000000  3
  10657  10655  10656  10658     1  0.0000000  0.6508444  3
  10657  10655  10669  10675     1  0.0000000  1.0460000  1
  10657  10655  10669  10675     1  0.0000000  0.0000000  3
  10657  10655  10669  10673     1  0.0000000  0.6508444  3
  10657  10655  10669  10674     1  0.0000000  0.6508444  3
  10657  10655  10677  10661     1  0.0000000  1.6038667  3
  10658  10656  10659  10660     1  0.0000000  0.6508444  3
  10658  10656  10659  10667     1  0.0000000  1.0460000  1
  10658  10656  10659  10667     1  0.0000000  0.0000000  3
  10658  10656  10659  10663     1  0.0000000  0.6508444  3
  10658  10656  10668  10671     1  0.0000000  0.6973333  3
  10658  10656  10655  10669     1  0.0000000  0.6508444  3
  10658  10656  10655  10677     1  0.0000000  1.0460000  1
  10658  10656  10655  10677     1  0.0000000  0.0000000  3
  10659  10660  10661  10664     1  0.0000000  0.6508444  3
  10659  10660  10666  10672     1  0.0000000  1.0460000  1
  10659  10660  10666  10672     1  0.0000000  0.6694400  3
  10659  10656  10668  10671     1  0.0000000  1.0460000  1
  10659  10656  10668  10671     1  0.0000000  0.6694400  3
  10660  10659  10667  10670     1  0.0000000  1.0460000  1
  10660  10659  10667  10670     1  0.0000000  0.6694400  3
  10661  10660  10666  10672     1  0.0000000  1.0460000  1
  10661  10660  10666  10672     1  0.0000000  0.6694400  3
  10661  10660  10659  10663     1  0.0000000  0.6508444  3
  10662  10660  10661  10665     1  0.0000000  1.0460000  1
  10662  10660  10661  10665     1  0.0000000  0.0000000  3
  10662  10660  10661  10677     1  0.0000000  1.0460000  1
  10662  10660  10661  10677     1  0.0000000  0.0000000  3
  10662  10660  10661  10664     1  0.0000000  0.6508444  3
  10662  10660  10666  10672     1  0.0000000  0.6973333  3
  10662  10660  10659  10667     1  0.0000000  1.0460000  1
  10662  10660  10659  10667     1  0.0000000  0.0000000  3
  10662  10660  10659  10663     1  0.0000000  0.6508444  3
  10663  10659  10660  10666     1  0.0000000  1.0460000  1
  10663  10659  10660  10666     1  0.0000000  0.0000000  3
  10663  10659  10667  10670     1  0.0000000  0.6973333  3
  10663  10659  10656  10668     1  0.0000000  1.0460000  1
  10663  10659  10656  10668     1  0.0000000  0.0000000  3
  10664  10661  10660  10666     1  0.0000000  0.6508444  3
  10673  10669  10675  10676     1  0.0000000  0.6973333  3
  10673  10669  10655  10677     1  0.0000000  1.0460000  1
  10673  10669  10655  10677     1  0.0000000  0.0000000  3
  10674  10669  10675  10676     1  0.0000000  0.6973333  3
  10674  10669  10655  10677     1  0.0000000  1.0460000  1
  10674  10669  10655  10677     1  0.0000000  0.0000000  3
  10678  10679  10682  10686     1  0.0000000  0.6508444  3
  10678  10679  10691  10694     1  0.0000000  1.0460000  1
  10678  10679  10691  10694     1  0.0000000  0.6694400  3
  10678  10692  10698  10699     1  0.0000000  1.0460000  1
  10678  10692  10698  10699     1  0.0000000  0.6694400  3
  10678  10700  10684  10687     1  0.0000000  1.6038667  3
  10679  10678  10692  10696     1  0.0000000  0.6508444  3
  10679  10678  10692  10697     1  0.0000000  0.6508444  3
  10679  10682  10683  10685     1  0.0000000  0.6508444  3
  10679  10682  10690  10693     1  0.0000000  1.0460000  1
  10679  10682  10690  10693     1  0.0000000  0.6694400  3
  10680  10678  10679  10682     1  0.0000000  0.6508444  3
  10680  10678  10679  10691     1  0.0000000  1.0460000  1
  10680  10678  10679  10691     1  0.0000000  0.0000000  3
  10680  10678  10679  10681     1  0.0000000  0.6508444  3
  10680  10678  10692  10698     1  0.0000000  1.0460000  1
  10680  10678  10692  10698     1  0.0000000  0.0000000  3
  10680  10678  10692  10696     1  0.0000000  0.6508444  3
  10680  10678  10692  10697     1  0.0000000  0.6508444  3
  10680  10678  10700  10684     1  0.0000000  1.6038667  3
  10681  10679  10678  10692     1  0.0000000  0.6508444  3
  10681  10679  10678  10700     1  0.0000000  1.0460000  1
  10681  10679  10678  10700     1  0.0000000  0.0000000  3
  10681  10679  10682  10683     1  0.0000000  0.6508444  3
  10681  10679  10682  10690     1  0.0000000  1.0460000  1
  10681  10679  10682  10690     1  0.0000000  0.0000000  3
  10681  10679  10682  10686     1  0.0000000  0.6508444  3
  10681  10679  10691  10694     1  0.0000000  0.6973333  3
  10682  10679  10691  10694     1  0.0000000  1.0460000  1
  10682  10679  10691  10694     1  0.0000000  0.6694400  3
  10682  10683  10684  10687     1  0.0000000  0.6508444  3
  10682  10683  10689  10695     1  0.0000000  1.0460000  1
  10682  10683  10689  10695     1  0.0000000  0.6694400  3
  10683  10682  10690  10693     1  0.0000000  1.0460000  1
  10683  10682  10690  10693     1  0.0000000  0.6694400  3
  10684  10683  10682  10686     1  0.0000000  0.6508444  3
  10684  10683  10689  10695     1  0.0000000  1.0460000  1
  10684  10683  10689  10695     1  0.0000000  0.6694400  3
  10685  10683  10682  10690     1  0.0000000  1.0460000  1
  10685  10683  10682  10690     1  0.0000000  0.0000000  3
  10685  10683  10682  10686     1  0.0000000  0.6508444  3
  10685  10683  10684  10688     1  0.0000000  1.0460000  1
  10685  10683  10684  10688     1  0.0000000  0.0000000  3
  10685  10683  10684  10700     1  0.0000000  1.0460000  1
  10685  10683  10684  10700     1  0.0000000  0.0000000  3
  10685  10683  10684  10687     1  0.0000000  0.6508444  3
  10685  10683  10689  10695     1  0.0000000  0.6973333  3
  10686  10682  10679  10691     1  0.0000000  1.0460000  1
  10686  10682  10679  10691     1  0.0000000  0.0000000  3
  10686  10682  10683  10689     1  0.0000000  1.0460000  1
  10686  10682  10683  10689     1  0.0000000  0.0000000  3
  10686  10682  10690  10693     1  0.0000000  0.6973333  3
  10687  10684  10683  10689     1  0.0000000  0.6508444  3
  10696  10692  10678  10700     1  0.0000000  1.0460000  1
  10696  10692  10678  10700     1  0.0000000  0.0000000  3
  10696  10692  10698  10699     1  0.0000000  0.6973333  3
  10697  10692  10678  10700     1  0.0000000  1.0460000  1
  10697  10692  10678  10700     1  0.0000000  0.0000000  3
  10697  10692  10698  10699     1  0.0000000  0.6973333  3
  10701  10702  10705  10709     1  0.0000000  0.6508444  3
  10701  10702  10714  10717     1  0.0000000  1.0460000  1
  10701  10702  10714  10717     1  0.0000000  0.6694400  3
  10701  10715  10721  10722     1  0.0000000  1.0460000  1
  10701  10715  10721  10722     1  0.0000000  0.6694400  3
  10701  10723  10707  10710     1  0.0000000  1.6038667  3
  10702  10705  10706  10708     1  0.0000000  0.6508444  3
  10702  10705  10713  10716     1  0.0000000  1.0460000  1
  10702  10705  10713  10716     1  0.0000000  0.6694400  3
  10702  10701  10715  10719     1  0.0000000  0.6508444  3
  10702  10701  10715  10720     1  0.0000000  0.6508444  3
  10703  10701  10702  10705     1  0.0000000  0.6508444  3
  10703  10701  10702  10714     1  0.0000000  1.0460000  1
  10703  10701  10702  10714     1  0.0000000  0.0000000  3
  10703  10701  10702  10704     1  0.0000000  0.6508444  3
  10703  10701  10715  10721     1  0.0000000  1.0460000  1
  10703  10701  10715  10721     1  0.0000000  0.0000000  3
  10703  10701  10715  10719     1  0.0000000  0.6508444  3
  10703  10701  10715  10720     1  0.0000000  0.6508444  3
  10703  10701  10723  10707     1  0.0000000  1.6038667  3
  10704  10702  10705  10706     1  0.0000000  0.6508444  3
  10704  10702  10705  10713     1  0.0000000  1.0460000  1
  10704  10702  10705  10713     1  0.0000000  0.0000000  3
  10704  10702  10705  10709     1  0.0000000  0.6508444  3
  10704  10702  10714  10717     1  0.0000000  0.6973333  3
  10704  10702  10701  10715     1  0.0000000  0.6508444  3
  10704  10702  10701  10723     1  0.0000000  1.0460000  1
  10704  10702  10701  10723     1  0.0000000  0.0000000  3
  10705  10706  10707  10710     1  0.0000000  0.6508444  3
  10705  10706  10712  10718     1  0.0000000  1.0460000  1
  10705  10706  10712  10718     1  0.0000000  0.6694400  3
  10705  10702  10714  10717     1  0.0000000  1.0460000  1
  10705  10702  10714  10717     1  0.0000000  0.6694400  3
  10706  10705  10713  10716     1  0.0000000  1.0460000  1
  10706  10705  10713  10716     1  0.0000000  0.6694400  3
  10707  10706  10712  10718     1  0.0000000  1.0460000  1
  10707  10706  10712  10718     1  0.0000000  0.6694400  3
  10707  10706  10705  10709     1  0.0000000  0.6508444  3
  10708  10706  10707  10711     1  0.0000000  1.0460000  1
  10708  10706  10707  10711     1  0.0000000  0.0000000  3
  10708  10706  10707  10723     1  0.0000000  1.0460000  1
  10708  10706  10707  10723     1  0.0000000  0.0000000  3
  10708  10706  10707  10710     1  0.0000000  0.6508444  3
  10708  10706  10712  10718     1  0.0000000  0.6973333  3
  10708  10706  10705  10713     1  0.0000000  1.0460000  1
  10708  10706  10705  10713     1  0.0000000  0.0000000  3
  10708  10706  10705  10709     1  0.0000000  0.6508444  3
  10709  10705  10706  10712     1  0.0000000  1.0460000  1
  10709  10705  10706  10712     1  0.0000000  0.0000000  3
  10709  10705  10713  10716     1  0.0000000  0.6973333  3
  10709  10705  10702  10714     1  0.0000000  1.0460000  1
  10709  10705  10702  10714     1  0.0000000  0.0000000  3
  10710  10707  10706  10712     1  0.0000000  0.6508444  3
  10719  10715  10721  10722     1  0.0000000  0.6973333  3
  10719  10715  10701  10723     1  0.0000000  1.0460000  1
  10719  10715  10701  10723     1  0.0000000  0.0000000  3
  10720  10715  10721  10722     1  0.0000000  0.6973333  3
  10720  10715  10701  10723     1  0.0000000  1.0460000  1
  10720  10715  10701  10723     1  0.0000000  0.0000000  3
  10724  10725  10728  10732     1  0.0000000  0.6508444  3
  10724  10725  10737  10740     1  0.0000000  1.0460000  1
  10724  10725  10737  10740     1  0.0000000  0.6694400  3
  10724  10738  10744  10745     1  0.0000000  1.0460000  1
  10724  10738  10744  10745     1  0.0000000  0.6694400  3
  10724  10746  10730  10733     1  0.0000000  1.6038667  3
  10725  10724  10738  10742     1  0.0000000  0.6508444  3
  10725  10724  10738  10743     1  0.0000000  0.6508444  3
  10725  10728  10729  10731     1  0.0000000  0.6508444  3
  10725  10728  10736  10739     1  0.0000000  1.0460000  1
  10725  10728  10736  10739     1  0.0000000  0.6694400  3
  10726  10724  10725  10728     1  0.0000000  0.6508444  3
  10726  10724  10725  10737     1  0.0000000  1.0460000  1
  10726  10724  10725  10737     1  0.0000000  0.0000000  3
  10726  10724  10725  10727     1  0.0000000  0.6508444  3
  10726  10724  10738  10744     1  0.0000000  1.0460000  1
  10726  10724  10738  10744     1  0.0000000  0.0000000  3
  10726  10724  10738  10742     1  0.0000000  0.6508444  3
  10726  10724  10738  10743     1  0.0000000  0.6508444  3
  10726  10724  10746  10730     1  0.0000000  1.6038667  3
  10727  10725  10724  10738     1  0.0000000  0.6508444  3
  10727  10725  10724  10746     1  0.0000000  1.0460000  1
  10727  10725  10724  10746     1  0.0000000  0.0000000  3
  10727  10725  10728  10729     1  0.0000000  0.6508444  3
  10727  10725  10728  10736     1  0.0000000  1.0460000  1
  10727  10725  10728  10736     1  0.0000000  0.0000000  3
  10727  10725  10728  10732     1  0.0000000  0.6508444  3
  10727  10725  10737  10740     1  0.0000000  0.6973333  3
  10728  10725  10737  10740     1  0.0000000  1.0460000  1
  10728  10725  10737  10740     1  0.0000000  0.6694400  3
  10728  10729  10730  10733     1  0.0000000  0.6508444  3
  10728  10729  10735  10741     1  0.0000000  1.0460000  1
  10728  10729  10735  10741     1  0.0000000  0.6694400  3
  10729  10728  10736  10739     1  0.0000000  1.0460000  1
  10729  10728  10736  10739     1  0.0000000  0.6694400  3
  10730  10729  10728  10732     1  0.0000000  0.6508444  3
  10730  10729  10735  10741     1  0.0000000  1.0460000  1
  10730  10729  10735  10741     1  0.0000000  0.6694400  3
  10731  10729  10728  10736     1  0.0000000  1.0460000  1
  10731  10729  10728  10736     1  0.0000000  0.0000000  3
  10731  10729  10728  10732     1  0.0000000  0.6508444  3
  10731  10729  10730  10734     1  0.0000000  1.0460000  1
  10731  10729  10730  10734     1  0.0000000  0.0000000  3
  10731  10729  10730  10746     1  0.0000000  1.0460000  1
  10731  10729  10730  10746     1  0.0000000  0.0000000  3
  10731  10729  10730  10733     1  0.0000000  0.6508444  3
  10731  10729  10735  10741     1  0.0000000  0.6973333  3
  10732  10728  10725  10737     1  0.0000000  1.0460000  1
  10732  10728  10725  10737     1  0.0000000  0.0000000  3
  10732  10728  10729  10735     1  0.0000000  1.0460000  1
  10732  10728  10729  10735     1  0.0000000  0.0000000  3
  10732  10728  10736  10739     1  0.0000000  0.6973333  3
  10733  10730  10729  10735     1  0.0000000  0.6508444  3
  10742  10738  10724  10746     1  0.0000000  1.0460000  1
  10742  10738  10724  10746     1  0.0000000  0.0000000  3
  10742  10738  10744  10745     1  0.0000000  0.6973333  3
  10743  10738  10724  10746     1  0.0000000  1.0460000  1
  10743  10738  10724  10746     1  0.0000000  0.0000000  3
  10743  10738  10744  10745     1  0.0000000  0.6973333  3
  10747  10748  10751  10755     1  0.0000000  0.6508444  3
  10747  10748  10760  10763     1  0.0000000  1.0460000  1
  10747  10748  10760  10763     1  0.0000000  0.6694400  3
  10747  10761  10767  10768     1  0.0000000  1.0460000  1
  10747  10761  10767  10768     1  0.0000000  0.6694400  3
  10747  10769  10753  10756     1  0.0000000  1.6038667  3
  10748  10751  10752  10754     1  0.0000000  0.6508444  3
  10748  10751  10759  10762     1  0.0000000  1.0460000  1
  10748  10751  10759  10762     1  0.0000000  0.6694400  3
  10748  10747  10761  10765     1  0.0000000  0.6508444  3
  10748  10747  10761  10766     1  0.0000000  0.6508444  3
  10749  10747  10748  10751     1  0.0000000  0.6508444  3
  10749  10747  10748  10760     1  0.0000000  1.0460000  1
  10749  10747  10748  10760     1  0.0000000  0.0000000  3
  10749  10747  10748  10750     1  0.0000000  0.6508444  3
  10749  10747  10761  10767     1  0.0000000  1.0460000  1
  10749  10747  10761  10767     1  0.0000000  0.0000000  3
  10749  10747  10761  10765     1  0.0000000  0.6508444  3
  10749  10747  10761  10766     1  0.0000000  0.6508444  3
  10749  10747  10769  10753     1  0.0000000  1.6038667  3
  10750  10748  10751  10752     1  0.0000000  0.6508444  3
  10750  10748  10751  10759     1  0.0000000  1.0460000  1
  10750  10748  10751  10759     1  0.0000000  0.0000000  3
  10750  10748  10751  10755     1  0.0000000  0.6508444  3
  10750  10748  10760  10763     1  0.0000000  0.6973333  3
  10750  10748  10747  10761     1  0.0000000  0.6508444  3
  10750  10748  10747  10769     1  0.0000000  1.0460000  1
  10750  10748  10747  10769     1  0.0000000  0.0000000  3
  10751  10752  10753  10756     1  0.0000000  0.6508444  3
  10751  10752  10758  10764     1  0.0000000  1.0460000  1
  10751  10752  10758  10764     1  0.0000000  0.6694400  3
  10751  10748  10760  10763     1  0.0000000  1.0460000  1
  10751  10748  10760  10763     1  0.0000000  0.6694400  3
  10752  10751  10759  10762     1  0.0000000  1.0460000  1
  10752  10751  10759  10762     1  0.0000000  0.6694400  3
  10753  10752  10758  10764     1  0.0000000  1.0460000  1
  10753  10752  10758  10764     1  0.0000000  0.6694400  3
  10753  10752  10751  10755     1  0.0000000  0.6508444  3
  10754  10752  10753  10757     1  0.0000000  1.0460000  1
  10754  10752  10753  10757     1  0.0000000  0.0000000  3
  10754  10752  10753  10769     1  0.0000000  1.0460000  1
  10754  10752  10753  10769     1  0.0000000  0.0000000  3
  10754  10752  10753  10756     1  0.0000000  0.6508444  3
  10754  10752  10758  10764     1  0.0000000  0.6973333  3
  10754  10752  10751  10759     1  0.0000000  1.0460000  1
  10754  10752  10751  10759     1  0.0000000  0.0000000  3
  10754  10752  10751  10755     1  0.0000000  0.6508444  3
  10755  10751  10752  10758     1  0.0000000  1.0460000  1
  10755  10751  10752  10758     1  0.0000000  0.0000000  3
  10755  10751  10759  10762     1  0.0000000  0.6973333  3
  10755  10751  10748  10760     1  0.0000000  1.0460000  1
  10755  10751  10748  10760     1  0.0000000  0.0000000  3
  10756  10753  10752  10758     1  0.0000000  0.6508444  3
  10765  10761  10767  10768     1  0.0000000  0.6973333  3
  10765  10761  10747  10769     1  0.0000000  1.0460000  1
  10765  10761  10747  10769     1  0.0000000  0.0000000  3
  10766  10761  10767  10768     1  0.0000000  0.6973333  3
  10766  10761  10747  10769     1  0.0000000  1.0460000  1
  10766  10761  10747  10769     1  0.0000000  0.0000000  3
  10770  10771  10774  10778     1  0.0000000  0.6508444  3
  10770  10771  10783  10786     1  0.0000000  1.0460000  1
  10770  10771  10783  10786     1  0.0000000  0.6694400  3
  10770  10784  10790  10791     1  0.0000000  1.0460000  1
  10770  10784  10790  10791     1  0.0000000  0.6694400  3
  10770  10792  10776  10779     1  0.0000000  1.6038667  3
  10771  10770  10784  10788     1  0.0000000  0.6508444  3
  10771  10770  10784  10789     1  0.0000000  0.6508444  3
  10771  10774  10775  10777     1  0.0000000  0.6508444  3
  10771  10774  10782  10785     1  0.0000000  1.0460000  1
  10771  10774  10782  10785     1  0.0000000  0.6694400  3
  10772  10770  10771  10774     1  0.0000000  0.6508444  3
  10772  10770  10771  10783     1  0.0000000  1.0460000  1
  10772  10770  10771  10783     1  0.0000000  0.0000000  3
  10772  10770  10771  10773     1  0.0000000  0.6508444  3
  10772  10770  10784  10790     1  0.0000000  1.0460000  1
  10772  10770  10784  10790     1  0.0000000  0.0000000  3
  10772  10770  10784  10788     1  0.0000000  0.6508444  3
  10772  10770  10784  10789     1  0.0000000  0.6508444  3
  10772  10770  10792  10776     1  0.0000000  1.6038667  3
  10773  10771  10770  10784     1  0.0000000  0.6508444  3
  10773  10771  10770  10792     1  0.0000000  1.0460000  1
  10773  10771  10770  10792     1  0.0000000  0.0000000  3
  10773  10771  10774  10775     1  0.0000000  0.6508444  3
  10773  10771  10774  10782     1  0.0000000  1.0460000  1
  10773  10771  10774  10782     1  0.0000000  0.0000000  3
  10773  10771  10774  10778     1  0.0000000  0.6508444  3
  10773  10771  10783  10786     1  0.0000000  0.6973333  3
  10774  10771  10783  10786     1  0.0000000  1.0460000  1
  10774  10771  10783  10786     1  0.0000000  0.6694400  3
  10774  10775  10776  10779     1  0.0000000  0.6508444  3
  10774  10775  10781  10787     1  0.0000000  1.0460000  1
  10774  10775  10781  10787     1  0.0000000  0.6694400  3
  10775  10774  10782  10785     1  0.0000000  1.0460000  1
  10775  10774  10782  10785     1  0.0000000  0.6694400  3
  10776  10775  10774  10778     1  0.0000000  0.6508444  3
  10776  10775  10781  10787     1  0.0000000  1.0460000  1
  10776  10775  10781  10787     1  0.0000000  0.6694400  3
  10777  10775  10774  10782     1  0.0000000  1.0460000  1
  10777  10775  10774  10782     1  0.0000000  0.0000000  3
  10777  10775  10774  10778     1  0.0000000  0.6508444  3
  10777  10775  10776  10780     1  0.0000000  1.0460000  1
  10777  10775  10776  10780     1  0.0000000  0.0000000  3
  10777  10775  10776  10792     1  0.0000000  1.0460000  1
  10777  10775  10776  10792     1  0.0000000  0.0000000  3
  10777  10775  10776  10779     1  0.0000000  0.6508444  3
  10777  10775  10781  10787     1  0.0000000  0.6973333  3
  10778  10774  10771  10783     1  0.0000000  1.0460000  1
  10778  10774  10771  10783     1  0.0000000  0.0000000  3
  10778  10774  10775  10781     1  0.0000000  1.0460000  1
  10778  10774  10775  10781     1  0.0000000  0.0000000  3
  10778  10774  10782  10785     1  0.0000000  0.6973333  3
  10779  10776  10775  10781     1  0.0000000  0.6508444  3
  10788  10784  10770  10792     1  0.0000000  1.0460000  1
  10788  10784  10770  10792     1  0.0000000  0.0000000  3
  10788  10784  10790  10791     1  0.0000000  0.6973333  3
  10789  10784  10770  10792     1  0.0000000  1.0460000  1
  10789  10784  10770  10792     1  0.0000000  0.0000000  3
  10789  10784  10790  10791     1  0.0000000  0.6973333  3
  10793  10794  10797  10801     1  0.0000000  0.6508444  3
  10793  10794  10806  10809     1  0.0000000  1.0460000  1
  10793  10794  10806  10809     1  0.0000000  0.6694400  3
  10793  10807  10813  10814     1  0.0000000  1.0460000  1
  10793  10807  10813  10814     1  0.0000000  0.6694400  3
  10793  10815  10799  10802     1  0.0000000  1.6038667  3
  10794  10797  10798  10800     1  0.0000000  0.6508444  3
  10794  10797  10805  10808     1  0.0000000  1.0460000  1
  10794  10797  10805  10808     1  0.0000000  0.6694400  3
  10794  10793  10807  10811     1  0.0000000  0.6508444  3
  10794  10793  10807  10812     1  0.0000000  0.6508444  3
  10795  10793  10794  10797     1  0.0000000  0.6508444  3
  10795  10793  10794  10806     1  0.0000000  1.0460000  1
  10795  10793  10794  10806     1  0.0000000  0.0000000  3
  10795  10793  10794  10796     1  0.0000000  0.6508444  3
  10795  10793  10807  10813     1  0.0000000  1.0460000  1
  10795  10793  10807  10813     1  0.0000000  0.0000000  3
  10795  10793  10807  10811     1  0.0000000  0.6508444  3
  10795  10793  10807  10812     1  0.0000000  0.6508444  3
  10795  10793  10815  10799     1  0.0000000  1.6038667  3
  10796  10794  10797  10798     1  0.0000000  0.6508444  3
  10796  10794  10797  10805     1  0.0000000  1.0460000  1
  10796  10794  10797  10805     1  0.0000000  0.0000000  3
  10796  10794  10797  10801     1  0.0000000  0.6508444  3
  10796  10794  10806  10809     1  0.0000000  0.6973333  3
  10796  10794  10793  10807     1  0.0000000  0.6508444  3
  10796  10794  10793  10815     1  0.0000000  1.0460000  1
  10796  10794  10793  10815     1  0.0000000  0.0000000  3
  10797  10798  10799  10802     1  0.0000000  0.6508444  3
  10797  10798  10804  10810     1  0.0000000  1.0460000  1
  10797  10798  10804  10810     1  0.0000000  0.6694400  3
  10797  10794  10806  10809     1  0.0000000  1.0460000  1
  10797  10794  10806  10809     1  0.0000000  0.6694400  3
  10798  10797  10805  10808     1  0.0000000  1.0460000  1
  10798  10797  10805  10808     1  0.0000000  0.6694400  3
  10799  10798  10804  10810     1  0.0000000  1.0460000  1
  10799  10798  10804  10810     1  0.0000000  0.6694400  3
  10799  10798  10797  10801     1  0.0000000  0.6508444  3
  10800  10798  10799  10803     1  0.0000000  1.0460000  1
  10800  10798  10799  10803     1  0.0000000  0.0000000  3
  10800  10798  10799  10815     1  0.0000000  1.0460000  1
  10800  10798  10799  10815     1  0.0000000  0.0000000  3
  10800  10798  10799  10802     1  0.0000000  0.6508444  3
  10800  10798  10804  10810     1  0.0000000  0.6973333  3
  10800  10798  10797  10805     1  0.0000000  1.0460000  1
  10800  10798  10797  10805     1  0.0000000  0.0000000  3
  10800  10798  10797  10801     1  0.0000000  0.6508444  3
  10801  10797  10798  10804     1  0.0000000  1.0460000  1
  10801  10797  10798  10804     1  0.0000000  0.0000000  3
  10801  10797  10805  10808     1  0.0000000  0.6973333  3
  10801  10797  10794  10806     1  0.0000000  1.0460000  1
  10801  10797  10794  10806     1  0.0000000  0.0000000  3
  10802  10799  10798  10804     1  0.0000000  0.6508444  3
  10811  10807  10813  10814     1  0.0000000  0.6973333  3
  10811  10807  10793  10815     1  0.0000000  1.0460000  1
  10811  10807  10793  10815     1  0.0000000  0.0000000  3
  10812  10807  10813  10814     1  0.0000000  0.6973333  3
  10812  10807  10793  10815     1  0.0000000  1.0460000  1
  10812  10807  10793  10815     1  0.0000000  0.0000000  3
  10816  10817  10820  10824     1  0.0000000  0.6508444  3
  10816  10817  10829  10832     1  0.0000000  1.0460000  1
  10816  10817  10829  10832     1  0.0000000  0.6694400  3
  10816  10830  10836  10837     1  0.0000000  1.0460000  1
  10816  10830  10836  10837     1  0.0000000  0.6694400  3
  10816  10838  10822  10825     1  0.0000000  1.6038667  3
  10817  10816  10830  10834     1  0.0000000  0.6508444  3
  10817  10816  10830  10835     1  0.0000000  0.6508444  3
  10817  10820  10821  10823     1  0.0000000  0.6508444  3
  10817  10820  10828  10831     1  0.0000000  1.0460000  1
  10817  10820  10828  10831     1  0.0000000  0.6694400  3
  10818  10816  10817  10820     1  0.0000000  0.6508444  3
  10818  10816  10817  10829     1  0.0000000  1.0460000  1
  10818  10816  10817  10829     1  0.0000000  0.0000000  3
  10818  10816  10817  10819     1  0.0000000  0.6508444  3
  10818  10816  10830  10836     1  0.0000000  1.0460000  1
  10818  10816  10830  10836     1  0.0000000  0.0000000  3
  10818  10816  10830  10834     1  0.0000000  0.6508444  3
  10818  10816  10830  10835     1  0.0000000  0.6508444  3
  10818  10816  10838  10822     1  0.0000000  1.6038667  3
  10819  10817  10816  10830     1  0.0000000  0.6508444  3
  10819  10817  10816  10838     1  0.0000000  1.0460000  1
  10819  10817  10816  10838     1  0.0000000  0.0000000  3
  10819  10817  10820  10821     1  0.0000000  0.6508444  3
  10819  10817  10820  10828     1  0.0000000  1.0460000  1
  10819  10817  10820  10828     1  0.0000000  0.0000000  3
  10819  10817  10820  10824     1  0.0000000  0.6508444  3
  10819  10817  10829  10832     1  0.0000000  0.6973333  3
  10820  10817  10829  10832     1  0.0000000  1.0460000  1
  10820  10817  10829  10832     1  0.0000000  0.6694400  3
  10820  10821  10822  10825     1  0.0000000  0.6508444  3
  10820  10821  10827  10833     1  0.0000000  1.0460000  1
  10820  10821  10827  10833     1  0.0000000  0.6694400  3
  10821  10820  10828  10831     1  0.0000000  1.0460000  1
  10821  10820  10828  10831     1  0.0000000  0.6694400  3
  10822  10821  10820  10824     1  0.0000000  0.6508444  3
  10822  10821  10827  10833     1  0.0000000  1.0460000  1
  10822  10821  10827  10833     1  0.0000000  0.6694400  3
  10823  10821  10820  10828     1  0.0000000  1.0460000  1
  10823  10821  10820  10828     1  0.0000000  0.0000000  3
  10823  10821  10820  10824     1  0.0000000  0.6508444  3
  10823  10821  10822  10826     1  0.0000000  1.0460000  1
  10823  10821  10822  10826     1  0.0000000  0.0000000  3
  10823  10821  10822  10838     1  0.0000000  1.0460000  1
  10823  10821  10822  10838     1  0.0000000  0.0000000  3
  10823  10821  10822  10825     1  0.0000000  0.6508444  3
  10823  10821  10827  10833     1  0.0000000  0.6973333  3
  10824  10820  10817  10829     1  0.0000000  1.0460000  1
  10824  10820  10817  10829     1  0.0000000  0.0000000  3
  10824  10820  10821  10827     1  0.0000000  1.0460000  1
  10824  10820  10821  10827     1  0.0000000  0.0000000  3
  10824  10820  10828  10831     1  0.0000000  0.6973333  3
  10825  10822  10821  10827     1  0.0000000  0.6508444  3
  10834  10830  10816  10838     1  0.0000000  1.0460000  1
  10834  10830  10816  10838     1  0.0000000  0.0000000  3
  10834  10830  10836  10837     1  0.0000000  0.6973333  3
  10835  10830  10816  10838     1  0.0000000  1.0460000  1
  10835  10830  10816  10838     1  0.0000000  0.0000000  3
  10835  10830  10836  10837     1  0.0000000  0.6973333  3
  10839  10840  10843  10847     1  0.0000000  0.6508444  3
  10839  10840  10852  10855     1  0.0000000  1.0460000  1
  10839  10840  10852  10855     1  0.0000000  0.6694400  3
  10839  10853  10859  10860     1  0.0000000  1.0460000  1
  10839  10853  10859  10860     1  0.0000000  0.6694400  3
  10839  10861  10845  10848     1  0.0000000  1.6038667  3
  10840  10843  10844  10846     1  0.0000000  0.6508444  3
  10840  10843  10851  10854     1  0.0000000  1.0460000  1
  10840  10843  10851  10854     1  0.0000000  0.6694400  3
  10840  10839  10853  10857     1  0.0000000  0.6508444  3
  10840  10839  10853  10858     1  0.0000000  0.6508444  3
  10841  10839  10840  10843     1  0.0000000  0.6508444  3
  10841  10839  10840  10852     1  0.0000000  1.0460000  1
  10841  10839  10840  10852     1  0.0000000  0.0000000  3
  10841  10839  10840  10842     1  0.0000000  0.6508444  3
  10841  10839  10853  10859     1  0.0000000  1.0460000  1
  10841  10839  10853  10859     1  0.0000000  0.0000000  3
  10841  10839  10853  10857     1  0.0000000  0.6508444  3
  10841  10839  10853  10858     1  0.0000000  0.6508444  3
  10841  10839  10861  10845     1  0.0000000  1.6038667  3
  10842  10840  10843  10844     1  0.0000000  0.6508444  3
  10842  10840  10843  10851     1  0.0000000  1.0460000  1
  10842  10840  10843  10851     1  0.0000000  0.0000000  3
  10842  10840  10843  10847     1  0.0000000  0.6508444  3
  10842  10840  10852  10855     1  0.0000000  0.6973333  3
  10842  10840  10839  10853     1  0.0000000  0.6508444  3
  10842  10840  10839  10861     1  0.0000000  1.0460000  1
  10842  10840  10839  10861     1  0.0000000  0.0000000  3
  10843  10844  10845  10848     1  0.0000000  0.6508444  3
  10843  10844  10850  10856     1  0.0000000  1.0460000  1
  10843  10844  10850  10856     1  0.0000000  0.6694400  3
  10843  10840  10852  10855     1  0.0000000  1.0460000  1
  10843  10840  10852  10855     1  0.0000000  0.6694400  3
  10844  10843  10851  10854     1  0.0000000  1.0460000  1
  10844  10843  10851  10854     1  0.0000000  0.6694400  3
  10845  10844  10850  10856     1  0.0000000  1.0460000  1
  10845  10844  10850  10856     1  0.0000000  0.6694400  3
  10845  10844  10843  10847     1  0.0000000  0.6508444  3
  10846  10844  10845  10849     1  0.0000000  1.0460000  1
  10846  10844  10845  10849     1  0.0000000  0.0000000  3
  10846  10844  10845  10861     1  0.0000000  1.0460000  1
  10846  10844  10845  10861     1  0.0000000  0.0000000  3
  10846  10844  10845  10848     1  0.0000000  0.6508444  3
  10846  10844  10850  10856     1  0.0000000  0.6973333  3
  10846  10844  10843  10851     1  0.0000000  1.0460000  1
  10846  10844  10843  10851     1  0.0000000  0.0000000  3
  10846  10844  10843  10847     1  0.0000000  0.6508444  3
  10847  10843  10844  10850     1  0.0000000  1.0460000  1
  10847  10843  10844  10850     1  0.0000000  0.0000000  3
  10847  10843  10851  10854     1  0.0000000  0.6973333  3
  10847  10843  10840  10852     1  0.0000000  1.0460000  1
  10847  10843  10840  10852     1  0.0000000  0.0000000  3
  10848  10845  10844  10850     1  0.0000000  0.6508444  3
  10857  10853  10859  10860     1  0.0000000  0.6973333  3
  10857  10853  10839  10861     1  0.0000000  1.0460000  1
  10857  10853  10839  10861     1  0.0000000  0.0000000  3
  10858  10853  10859  10860     1  0.0000000  0.6973333  3
  10858  10853  10839  10861     1  0.0000000  1.0460000  1
  10858  10853  10839  10861     1  0.0000000  0.0000000  3
  10862  10863  10866  10870     1  0.0000000  0.6508444  3
  10862  10863  10875  10878     1  0.0000000  1.0460000  1
  10862  10863  10875  10878     1  0.0000000  0.6694400  3
  10862  10876  10882  10883     1  0.0000000  1.0460000  1
  10862  10876  10882  10883     1  0.0000000  0.6694400  3
  10862  10884  10868  10871     1  0.0000000  1.6038667  3
  10863  10862  10876  10880     1  0.0000000  0.6508444  3
  10863  10862  10876  10881     1  0.0000000  0.6508444  3
  10863  10866  10867  10869     1  0.0000000  0.6508444  3
  10863  10866  10874  10877     1  0.0000000  1.0460000  1
  10863  10866  10874  10877     1  0.0000000  0.6694400  3
  10864  10862  10863  10866     1  0.0000000  0.6508444  3
  10864  10862  10863  10875     1  0.0000000  1.0460000  1
  10864  10862  10863  10875     1  0.0000000  0.0000000  3
  10864  10862  10863  10865     1  0.0000000  0.6508444  3
  10864  10862  10876  10882     1  0.0000000  1.0460000  1
  10864  10862  10876  10882     1  0.0000000  0.0000000  3
  10864  10862  10876  10880     1  0.0000000  0.6508444  3
  10864  10862  10876  10881     1  0.0000000  0.6508444  3
  10864  10862  10884  10868     1  0.0000000  1.6038667  3
  10865  10863  10862  10876     1  0.0000000  0.6508444  3
  10865  10863  10862  10884     1  0.0000000  1.0460000  1
  10865  10863  10862  10884     1  0.0000000  0.0000000  3
  10865  10863  10866  10867     1  0.0000000  0.6508444  3
  10865  10863  10866  10874     1  0.0000000  1.0460000  1
  10865  10863  10866  10874     1  0.0000000  0.0000000  3
  10865  10863  10866  10870     1  0.0000000  0.6508444  3
  10865  10863  10875  10878     1  0.0000000  0.6973333  3
  10866  10863  10875  10878     1  0.0000000  1.0460000  1
  10866  10863  10875  10878     1  0.0000000  0.6694400  3
  10866  10867  10868  10871     1  0.0000000  0.6508444  3
  10866  10867  10873  10879     1  0.0000000  1.0460000  1
  10866  10867  10873  10879     1  0.0000000  0.6694400  3
  10867  10866  10874  10877     1  0.0000000  1.0460000  1
  10867  10866  10874  10877     1  0.0000000  0.6694400  3
  10868  10867  10866  10870     1  0.0000000  0.6508444  3
  10868  10867  10873  10879     1  0.0000000  1.0460000  1
  10868  10867  10873  10879     1  0.0000000  0.6694400  3
  10869  10867  10866  10874     1  0.0000000  1.0460000  1
  10869  10867  10866  10874     1  0.0000000  0.0000000  3
  10869  10867  10866  10870     1  0.0000000  0.6508444  3
  10869  10867  10868  10872     1  0.0000000  1.0460000  1
  10869  10867  10868  10872     1  0.0000000  0.0000000  3
  10869  10867  10868  10884     1  0.0000000  1.0460000  1
  10869  10867  10868  10884     1  0.0000000  0.0000000  3
  10869  10867  10868  10871     1  0.0000000  0.6508444  3
  10869  10867  10873  10879     1  0.0000000  0.6973333  3
  10870  10866  10863  10875     1  0.0000000  1.0460000  1
  10870  10866  10863  10875     1  0.0000000  0.0000000  3
  10870  10866  10867  10873     1  0.0000000  1.0460000  1
  10870  10866  10867  10873     1  0.0000000  0.0000000  3
  10870  10866  10874  10877     1  0.0000000  0.6973333  3
  10871  10868  10867  10873     1  0.0000000  0.6508444  3
  10880  10876  10862  10884     1  0.0000000  1.0460000  1
  10880  10876  10862  10884     1  0.0000000  0.0000000  3
  10880  10876  10882  10883     1  0.0000000  0.6973333  3
  10881  10876  10862  10884     1  0.0000000  1.0460000  1
  10881  10876  10862  10884     1  0.0000000  0.0000000  3
  10881  10876  10882  10883     1  0.0000000  0.6973333  3
  10885  10886  10889  10893     1  0.0000000  0.6508444  3
  10885  10886  10898  10901     1  0.0000000  1.0460000  1
  10885  10886  10898  10901     1  0.0000000  0.6694400  3
  10885  10899  10905  10906     1  0.0000000  1.0460000  1
  10885  10899  10905  10906     1  0.0000000  0.6694400  3
  10885  10907  10891  10894     1  0.0000000  1.6038667  3
  10886  10889  10890  10892     1  0.0000000  0.6508444  3
  10886  10889  10897  10900     1  0.0000000  1.0460000  1
  10886  10889  10897  10900     1  0.0000000  0.6694400  3
  10886  10885  10899  10903     1  0.0000000  0.6508444  3
  10886  10885  10899  10904     1  0.0000000  0.6508444  3
  10887  10885  10886  10889     1  0.0000000  0.6508444  3
  10887  10885  10886  10898     1  0.0000000  1.0460000  1
  10887  10885  10886  10898     1  0.0000000  0.0000000  3
  10887  10885  10886  10888     1  0.0000000  0.6508444  3
  10887  10885  10899  10905     1  0.0000000  1.0460000  1
  10887  10885  10899  10905     1  0.0000000  0.0000000  3
  10887  10885  10899  10903     1  0.0000000  0.6508444  3
  10887  10885  10899  10904     1  0.0000000  0.6508444  3
  10887  10885  10907  10891     1  0.0000000  1.6038667  3
  10888  10886  10889  10890     1  0.0000000  0.6508444  3
  10888  10886  10889  10897     1  0.0000000  1.0460000  1
  10888  10886  10889  10897     1  0.0000000  0.0000000  3
  10888  10886  10889  10893     1  0.0000000  0.6508444  3
  10888  10886  10898  10901     1  0.0000000  0.6973333  3
  10888  10886  10885  10899     1  0.0000000  0.6508444  3
  10888  10886  10885  10907     1  0.0000000  1.0460000  1
  10888  10886  10885  10907     1  0.0000000  0.0000000  3
  10889  10890  10891  10894     1  0.0000000  0.6508444  3
  10889  10890  10896  10902     1  0.0000000  1.0460000  1
  10889  10890  10896  10902     1  0.0000000  0.6694400  3
  10889  10886  10898  10901     1  0.0000000  1.0460000  1
  10889  10886  10898  10901     1  0.0000000  0.6694400  3
  10890  10889  10897  10900     1  0.0000000  1.0460000  1
  10890  10889  10897  10900     1  0.0000000  0.6694400  3
  10891  10890  10896  10902     1  0.0000000  1.0460000  1
  10891  10890  10896  10902     1  0.0000000  0.6694400  3
  10891  10890  10889  10893     1  0.0000000  0.6508444  3
  10892  10890  10891  10895     1  0.0000000  1.0460000  1
  10892  10890  10891  10895     1  0.0000000  0.0000000  3
  10892  10890  10891  10907     1  0.0000000  1.0460000  1
  10892  10890  10891  10907     1  0.0000000  0.0000000  3
  10892  10890  10891  10894     1  0.0000000  0.6508444  3
  10892  10890  10896  10902     1  0.0000000  0.6973333  3
  10892  10890  10889  10897     1  0.0000000  1.0460000  1
  10892  10890  10889  10897     1  0.0000000  0.0000000  3
  10892  10890  10889  10893     1  0.0000000  0.6508444  3
  10893  10889  10890  10896     1  0.0000000  1.0460000  1
  10893  10889  10890  10896     1  0.0000000  0.0000000  3
  10893  10889  10897  10900     1  0.0000000  0.6973333  3
  10893  10889  10886  10898     1  0.0000000  1.0460000  1
  10893  10889  10886  10898     1  0.0000000  0.0000000  3
  10894  10891  10890  10896     1  0.0000000  0.6508444  3
  10903  10899  10905  10906     1  0.0000000  0.6973333  3
  10903  10899  10885  10907     1  0.0000000  1.0460000  1
  10903  10899  10885  10907     1  0.0000000  0.0000000  3
  10904  10899  10905  10906     1  0.0000000  0.6973333  3
  10904  10899  10885  10907     1  0.0000000  1.0460000  1
  10904  10899  10885  10907     1  0.0000000  0.0000000  3
  10908  10909  10912  10916     1  0.0000000  0.6508444  3
  10908  10909  10921  10924     1  0.0000000  1.0460000  1
  10908  10909  10921  10924     1  0.0000000  0.6694400  3
  10908  10922  10928  10929     1  0.0000000  1.0460000  1
  10908  10922  10928  10929     1  0.0000000  0.6694400  3
  10908  10930  10914  10917     1  0.0000000  1.6038667  3
  10909  10908  10922  10926     1  0.0000000  0.6508444  3
  10909  10908  10922  10927     1  0.0000000  0.6508444  3
  10909  10912  10913  10915     1  0.0000000  0.6508444  3
  10909  10912  10920  10923     1  0.0000000  1.0460000  1
  10909  10912  10920  10923     1  0.0000000  0.6694400  3
  10910  10908  10909  10912     1  0.0000000  0.6508444  3
  10910  10908  10909  10921     1  0.0000000  1.0460000  1
  10910  10908  10909  10921     1  0.0000000  0.0000000  3
  10910  10908  10909  10911     1  0.0000000  0.6508444  3
  10910  10908  10922  10928     1  0.0000000  1.0460000  1
  10910  10908  10922  10928     1  0.0000000  0.0000000  3
  10910  10908  10922  10926     1  0.0000000  0.6508444  3
  10910  10908  10922  10927     1  0.0000000  0.6508444  3
  10910  10908  10930  10914     1  0.0000000  1.6038667  3
  10911  10909  10908  10922     1  0.0000000  0.6508444  3
  10911  10909  10908  10930     1  0.0000000  1.0460000  1
  10911  10909  10908  10930     1  0.0000000  0.0000000  3
  10911  10909  10912  10913     1  0.0000000  0.6508444  3
  10911  10909  10912  10920     1  0.0000000  1.0460000  1
  10911  10909  10912  10920     1  0.0000000  0.0000000  3
  10911  10909  10912  10916     1  0.0000000  0.6508444  3
  10911  10909  10921  10924     1  0.0000000  0.6973333  3
  10912  10909  10921  10924     1  0.0000000  1.0460000  1
  10912  10909  10921  10924     1  0.0000000  0.6694400  3
  10912  10913  10914  10917     1  0.0000000  0.6508444  3
  10912  10913  10919  10925     1  0.0000000  1.0460000  1
  10912  10913  10919  10925     1  0.0000000  0.6694400  3
  10913  10912  10920  10923     1  0.0000000  1.0460000  1
  10913  10912  10920  10923     1  0.0000000  0.6694400  3
  10914  10913  10912  10916     1  0.0000000  0.6508444  3
  10914  10913  10919  10925     1  0.0000000  1.0460000  1
  10914  10913  10919  10925     1  0.0000000  0.6694400  3
  10915  10913  10912  10920     1  0.0000000  1.0460000  1
  10915  10913  10912  10920     1  0.0000000  0.0000000  3
  10915  10913  10912  10916     1  0.0000000  0.6508444  3
  10915  10913  10914  10918     1  0.0000000  1.0460000  1
  10915  10913  10914  10918     1  0.0000000  0.0000000  3
  10915  10913  10914  10930     1  0.0000000  1.0460000  1
  10915  10913  10914  10930     1  0.0000000  0.0000000  3
  10915  10913  10914  10917     1  0.0000000  0.6508444  3
  10915  10913  10919  10925     1  0.0000000  0.6973333  3
  10916  10912  10909  10921     1  0.0000000  1.0460000  1
  10916  10912  10909  10921     1  0.0000000  0.0000000  3
  10916  10912  10913  10919     1  0.0000000  1.0460000  1
  10916  10912  10913  10919     1  0.0000000  0.0000000  3
  10916  10912  10920  10923     1  0.0000000  0.6973333  3
  10917  10914  10913  10919     1  0.0000000  0.6508444  3
  10926  10922  10908  10930     1  0.0000000  1.0460000  1
  10926  10922  10908  10930     1  0.0000000  0.0000000  3
  10926  10922  10928  10929     1  0.0000000  0.6973333  3
  10927  10922  10908  10930     1  0.0000000  1.0460000  1
  10927  10922  10908  10930     1  0.0000000  0.0000000  3
  10927  10922  10928  10929     1  0.0000000  0.6973333  3
  10931  10932  10935  10939     1  0.0000000  0.6508444  3
  10931  10932  10944  10947     1  0.0000000  1.0460000  1
  10931  10932  10944  10947     1  0.0000000  0.6694400  3
  10931  10945  10951  10952     1  0.0000000  1.0460000  1
  10931  10945  10951  10952     1  0.0000000  0.6694400  3
  10931  10953  10937  10940     1  0.0000000  1.6038667  3
  10932  10935  10936  10938     1  0.0000000  0.6508444  3
  10932  10935  10943  10946     1  0.0000000  1.0460000  1
  10932  10935  10943  10946     1  0.0000000  0.6694400  3
  10932  10931  10945  10949     1  0.0000000  0.6508444  3
  10932  10931  10945  10950     1  0.0000000  0.6508444  3
  10933  10931  10932  10935     1  0.0000000  0.6508444  3
  10933  10931  10932  10944     1  0.0000000  1.0460000  1
  10933  10931  10932  10944     1  0.0000000  0.0000000  3
  10933  10931  10932  10934     1  0.0000000  0.6508444  3
  10933  10931  10945  10951     1  0.0000000  1.0460000  1
  10933  10931  10945  10951     1  0.0000000  0.0000000  3
  10933  10931  10945  10949     1  0.0000000  0.6508444  3
  10933  10931  10945  10950     1  0.0000000  0.6508444  3
  10933  10931  10953  10937     1  0.0000000  1.6038667  3
  10934  10932  10935  10936     1  0.0000000  0.6508444  3
  10934  10932  10935  10943     1  0.0000000  1.0460000  1
  10934  10932  10935  10943     1  0.0000000  0.0000000  3
  10934  10932  10935  10939     1  0.0000000  0.6508444  3
  10934  10932  10944  10947     1  0.0000000  0.6973333  3
  10934  10932  10931  10945     1  0.0000000  0.6508444  3
  10934  10932  10931  10953     1  0.0000000  1.0460000  1
  10934  10932  10931  10953     1  0.0000000  0.0000000  3
  10935  10936  10937  10940     1  0.0000000  0.6508444  3
  10935  10936  10942  10948     1  0.0000000  1.0460000  1
  10935  10936  10942  10948     1  0.0000000  0.6694400  3
  10935  10932  10944  10947     1  0.0000000  1.0460000  1
  10935  10932  10944  10947     1  0.0000000  0.6694400  3
  10936  10935  10943  10946     1  0.0000000  1.0460000  1
  10936  10935  10943  10946     1  0.0000000  0.6694400  3
  10937  10936  10942  10948     1  0.0000000  1.0460000  1
  10937  10936  10942  10948     1  0.0000000  0.6694400  3
  10937  10936  10935  10939     1  0.0000000  0.6508444  3
  10938  10936  10937  10941     1  0.0000000  1.0460000  1
  10938  10936  10937  10941     1  0.0000000  0.0000000  3
  10938  10936  10937  10953     1  0.0000000  1.0460000  1
  10938  10936  10937  10953     1  0.0000000  0.0000000  3
  10938  10936  10937  10940     1  0.0000000  0.6508444  3
  10938  10936  10942  10948     1  0.0000000  0.6973333  3
  10938  10936  10935  10943     1  0.0000000  1.0460000  1
  10938  10936  10935  10943     1  0.0000000  0.0000000  3
  10938  10936  10935  10939     1  0.0000000  0.6508444  3
  10939  10935  10936  10942     1  0.0000000  1.0460000  1
  10939  10935  10936  10942     1  0.0000000  0.0000000  3
  10939  10935  10943  10946     1  0.0000000  0.6973333  3
  10939  10935  10932  10944     1  0.0000000  1.0460000  1
  10939  10935  10932  10944     1  0.0000000  0.0000000  3
  10940  10937  10936  10942     1  0.0000000  0.6508444  3
  10949  10945  10951  10952     1  0.0000000  0.6973333  3
  10949  10945  10931  10953     1  0.0000000  1.0460000  1
  10949  10945  10931  10953     1  0.0000000  0.0000000  3
  10950  10945  10951  10952     1  0.0000000  0.6973333  3
  10950  10945  10931  10953     1  0.0000000  1.0460000  1
  10950  10945  10931  10953     1  0.0000000  0.0000000  3
  10954  10955  10958  10962     1  0.0000000  0.6508444  3
  10954  10955  10967  10970     1  0.0000000  1.0460000  1
  10954  10955  10967  10970     1  0.0000000  0.6694400  3
  10954  10968  10974  10975     1  0.0000000  1.0460000  1
  10954  10968  10974  10975     1  0.0000000  0.6694400  3
  10954  10976  10960  10963     1  0.0000000  1.6038667  3
  10955  10954  10968  10972     1  0.0000000  0.6508444  3
  10955  10954  10968  10973     1  0.0000000  0.6508444  3
  10955  10958  10959  10961     1  0.0000000  0.6508444  3
  10955  10958  10966  10969     1  0.0000000  1.0460000  1
  10955  10958  10966  10969     1  0.0000000  0.6694400  3
  10956  10954  10955  10958     1  0.0000000  0.6508444  3
  10956  10954  10955  10967     1  0.0000000  1.0460000  1
  10956  10954  10955  10967     1  0.0000000  0.0000000  3
  10956  10954  10955  10957     1  0.0000000  0.6508444  3
  10956  10954  10968  10974     1  0.0000000  1.0460000  1
  10956  10954  10968  10974     1  0.0000000  0.0000000  3
  10956  10954  10968  10972     1  0.0000000  0.6508444  3
  10956  10954  10968  10973     1  0.0000000  0.6508444  3
  10956  10954  10976  10960     1  0.0000000  1.6038667  3
  10957  10955  10954  10968     1  0.0000000  0.6508444  3
  10957  10955  10954  10976     1  0.0000000  1.0460000  1
  10957  10955  10954  10976     1  0.0000000  0.0000000  3
  10957  10955  10958  10959     1  0.0000000  0.6508444  3
  10957  10955  10958  10966     1  0.0000000  1.0460000  1
  10957  10955  10958  10966     1  0.0000000  0.0000000  3
  10957  10955  10958  10962     1  0.0000000  0.6508444  3
  10957  10955  10967  10970     1  0.0000000  0.6973333  3
  10958  10955  10967  10970     1  0.0000000  1.0460000  1
  10958  10955  10967  10970     1  0.0000000  0.6694400  3
  10958  10959  10960  10963     1  0.0000000  0.6508444  3
  10958  10959  10965  10971     1  0.0000000  1.0460000  1
  10958  10959  10965  10971     1  0.0000000  0.6694400  3
  10959  10958  10966  10969     1  0.0000000  1.0460000  1
  10959  10958  10966  10969     1  0.0000000  0.6694400  3
  10960  10959  10958  10962     1  0.0000000  0.6508444  3
  10960  10959  10965  10971     1  0.0000000  1.0460000  1
  10960  10959  10965  10971     1  0.0000000  0.6694400  3
  10961  10959  10958  10966     1  0.0000000  1.0460000  1
  10961  10959  10958  10966     1  0.0000000  0.0000000  3
  10961  10959  10958  10962     1  0.0000000  0.6508444  3
  10961  10959  10960  10964     1  0.0000000  1.0460000  1
  10961  10959  10960  10964     1  0.0000000  0.0000000  3
  10961  10959  10960  10976     1  0.0000000  1.0460000  1
  10961  10959  10960  10976     1  0.0000000  0.0000000  3
  10961  10959  10960  10963     1  0.0000000  0.6508444  3
  10961  10959  10965  10971     1  0.0000000  0.6973333  3
  10962  10958  10955  10967     1  0.0000000  1.0460000  1
  10962  10958  10955  10967     1  0.0000000  0.0000000  3
  10962  10958  10959  10965     1  0.0000000  1.0460000  1
  10962  10958  10959  10965     1  0.0000000  0.0000000  3
  10962  10958  10966  10969     1  0.0000000  0.6973333  3
  10963  10960  10959  10965     1  0.0000000  0.6508444  3
  10972  10968  10954  10976     1  0.0000000  1.0460000  1
  10972  10968  10954  10976     1  0.0000000  0.0000000  3
  10972  10968  10974  10975     1  0.0000000  0.6973333  3
  10973  10968  10954  10976     1  0.0000000  1.0460000  1
  10973  10968  10954  10976     1  0.0000000  0.0000000  3
  10973  10968  10974  10975     1  0.0000000  0.6973333  3
  10977  10978  10981  10985     1  0.0000000  0.6508444  3
  10977  10978  10990  10993     1  0.0000000  1.0460000  1
  10977  10978  10990  10993     1  0.0000000  0.6694400  3
  10977  10991  10997  10998     1  0.0000000  1.0460000  1
  10977  10991  10997  10998     1  0.0000000  0.6694400  3
  10977  10999  10983  10986     1  0.0000000  1.6038667  3
  10978  10981  10982  10984     1  0.0000000  0.6508444  3
  10978  10981  10989  10992     1  0.0000000  1.0460000  1
  10978  10981  10989  10992     1  0.0000000  0.6694400  3
  10978  10977  10991  10995     1  0.0000000  0.6508444  3
  10978  10977  10991  10996     1  0.0000000  0.6508444  3
  10979  10977  10978  10981     1  0.0000000  0.6508444  3
  10979  10977  10978  10990     1  0.0000000  1.0460000  1
  10979  10977  10978  10990     1  0.0000000  0.0000000  3
  10979  10977  10978  10980     1  0.0000000  0.6508444  3
  10979  10977  10991  10997     1  0.0000000  1.0460000  1
  10979  10977  10991  10997     1  0.0000000  0.0000000  3
  10979  10977  10991  10995     1  0.0000000  0.6508444  3
  10979  10977  10991  10996     1  0.0000000  0.6508444  3
  10979  10977  10999  10983     1  0.0000000  1.6038667  3
  10980  10978  10981  10982     1  0.0000000  0.6508444  3
  10980  10978  10981  10989     1  0.0000000  1.0460000  1
  10980  10978  10981  10989     1  0.0000000  0.0000000  3
  10980  10978  10981  10985     1  0.0000000  0.6508444  3
  10980  10978  10990  10993     1  0.0000000  0.6973333  3
  10980  10978  10977  10991     1  0.0000000  0.6508444  3
  10980  10978  10977  10999     1  0.0000000  1.0460000  1
  10980  10978  10977  10999     1  0.0000000  0.0000000  3
  10981  10982  10983  10986     1  0.0000000  0.6508444  3
  10981  10982  10988  10994     1  0.0000000  1.0460000  1
  10981  10982  10988  10994     1  0.0000000  0.6694400  3
  10981  10978  10990  10993     1  0.0000000  1.0460000  1
  10981  10978  10990  10993     1  0.0000000  0.6694400  3
  10982  10981  10989  10992     1  0.0000000  1.0460000  1
  10982  10981  10989  10992     1  0.0000000  0.6694400  3
  10983  10982  10988  10994     1  0.0000000  1.0460000  1
  10983  10982  10988  10994     1  0.0000000  0.6694400  3
  10983  10982  10981  10985     1  0.0000000  0.6508444  3
  10984  10982  10983  10987     1  0.0000000  1.0460000  1
  10984  10982  10983  10987     1  0.0000000  0.0000000  3
  10984  10982  10983  10999     1  0.0000000  1.0460000  1
  10984  10982  10983  10999     1  0.0000000  0.0000000  3
  10984  10982  10983  10986     1  0.0000000  0.6508444  3
  10984  10982  10988  10994     1  0.0000000  0.6973333  3
  10984  10982  10981  10989     1  0.0000000  1.0460000  1
  10984  10982  10981  10989     1  0.0000000  0.0000000  3
  10984  10982  10981  10985     1  0.0000000  0.6508444  3
  10985  10981  10982  10988     1  0.0000000  1.0460000  1
  10985  10981  10982  10988     1  0.0000000  0.0000000  3
  10985  10981  10989  10992     1  0.0000000  0.6973333  3
  10985  10981  10978  10990     1  0.0000000  1.0460000  1
  10985  10981  10978  10990     1  0.0000000  0.0000000  3
  10986  10983  10982  10988     1  0.0000000  0.6508444  3
  10995  10991  10997  10998     1  0.0000000  0.6973333  3
  10995  10991  10977  10999     1  0.0000000  1.0460000  1
  10995  10991  10977  10999     1  0.0000000  0.0000000  3
  10996  10991  10997  10998     1  0.0000000  0.6973333  3
  10996  10991  10977  10999     1  0.0000000  1.0460000  1
  10996  10991  10977  10999     1  0.0000000  0.0000000  3
  11000  11001  11004  11008     1  0.0000000  0.6508444  3
  11000  11001  11013  11016     1  0.0000000  1.0460000  1
  11000  11001  11013  11016     1  0.0000000  0.6694400  3
  11000  11014  11020  11021     1  0.0000000  1.0460000  1
  11000  11014  11020  11021     1  0.0000000  0.6694400  3
  11000  11022  11006  11009     1  0.0000000  1.6038667  3
  11001  11000  11014  11018     1  0.0000000  0.6508444  3
  11001  11000  11014  11019     1  0.0000000  0.6508444  3
  11001  11004  11005  11007     1  0.0000000  0.6508444  3
  11001  11004  11012  11015     1  0.0000000  1.0460000  1
  11001  11004  11012  11015     1  0.0000000  0.6694400  3
  11002  11000  11001  11004     1  0.0000000  0.6508444  3
  11002  11000  11001  11013     1  0.0000000  1.0460000  1
  11002  11000  11001  11013     1  0.0000000  0.0000000  3
  11002  11000  11001  11003     1  0.0000000  0.6508444  3
  11002  11000  11014  11020     1  0.0000000  1.0460000  1
  11002  11000  11014  11020     1  0.0000000  0.0000000  3
  11002  11000  11014  11018     1  0.0000000  0.6508444  3
  11002  11000  11014  11019     1  0.0000000  0.6508444  3
  11002  11000  11022  11006     1  0.0000000  1.6038667  3
  11003  11001  11000  11014     1  0.0000000  0.6508444  3
  11003  11001  11000  11022     1  0.0000000  1.0460000  1
  11003  11001  11000  11022     1  0.0000000  0.0000000  3
  11003  11001  11004  11005     1  0.0000000  0.6508444  3
  11003  11001  11004  11012     1  0.0000000  1.0460000  1
  11003  11001  11004  11012     1  0.0000000  0.0000000  3
  11003  11001  11004  11008     1  0.0000000  0.6508444  3
  11003  11001  11013  11016     1  0.0000000  0.6973333  3
  11004  11001  11013  11016     1  0.0000000  1.0460000  1
  11004  11001  11013  11016     1  0.0000000  0.6694400  3
  11004  11005  11006  11009     1  0.0000000  0.6508444  3
  11004  11005  11011  11017     1  0.0000000  1.0460000  1
  11004  11005  11011  11017     1  0.0000000  0.6694400  3
  11005  11004  11012  11015     1  0.0000000  1.0460000  1
  11005  11004  11012  11015     1  0.0000000  0.6694400  3
  11006  11005  11004  11008     1  0.0000000  0.6508444  3
  11006  11005  11011  11017     1  0.0000000  1.0460000  1
  11006  11005  11011  11017     1  0.0000000  0.6694400  3
  11007  11005  11004  11012     1  0.0000000  1.0460000  1
  11007  11005  11004  11012     1  0.0000000  0.0000000  3
  11007  11005  11004  11008     1  0.0000000  0.6508444  3
  11007  11005  11006  11010     1  0.0000000  1.0460000  1
  11007  11005  11006  11010     1  0.0000000  0.0000000  3
  11007  11005  11006  11022     1  0.0000000  1.0460000  1
  11007  11005  11006  11022     1  0.0000000  0.0000000  3
  11007  11005  11006  11009     1  0.0000000  0.6508444  3
  11007  11005  11011  11017     1  0.0000000  0.6973333  3
  11008  11004  11001  11013     1  0.0000000  1.0460000  1
  11008  11004  11001  11013     1  0.0000000  0.0000000  3
  11008  11004  11005  11011     1  0.0000000  1.0460000  1
  11008  11004  11005  11011     1  0.0000000  0.0000000  3
  11008  11004  11012  11015     1  0.0000000  0.6973333  3
  11009  11006  11005  11011     1  0.0000000  0.6508444  3
  11018  11014  11000  11022     1  0.0000000  1.0460000  1
  11018  11014  11000  11022     1  0.0000000  0.0000000  3
  11018  11014  11020  11021     1  0.0000000  0.6973333  3
  11019  11014  11000  11022     1  0.0000000  1.0460000  1
  11019  11014  11000  11022     1  0.0000000  0.0000000  3
  11019  11014  11020  11021     1  0.0000000  0.6973333  3
  11023  11024  11027  11031     1  0.0000000  0.6508444  3
  11023  11024  11036  11039     1  0.0000000  1.0460000  1
  11023  11024  11036  11039     1  0.0000000  0.6694400  3
  11023  11037  11043  11044     1  0.0000000  1.0460000  1
  11023  11037  11043  11044     1  0.0000000  0.6694400  3
  11023  11045  11029  11032     1  0.0000000  1.6038667  3
  11024  11027  11028  11030     1  0.0000000  0.6508444  3
  11024  11027  11035  11038     1  0.0000000  1.0460000  1
  11024  11027  11035  11038     1  0.0000000  0.6694400  3
  11024  11023  11037  11041     1  0.0000000  0.6508444  3
  11024  11023  11037  11042     1  0.0000000  0.6508444  3
  11025  11023  11024  11027     1  0.0000000  0.6508444  3
  11025  11023  11024  11036     1  0.0000000  1.0460000  1
  11025  11023  11024  11036     1  0.0000000  0.0000000  3
  11025  11023  11024  11026     1  0.0000000  0.6508444  3
  11025  11023  11037  11043     1  0.0000000  1.0460000  1
  11025  11023  11037  11043     1  0.0000000  0.0000000  3
  11025  11023  11037  11041     1  0.0000000  0.6508444  3
  11025  11023  11037  11042     1  0.0000000  0.6508444  3
  11025  11023  11045  11029     1  0.0000000  1.6038667  3
  11026  11024  11027  11028     1  0.0000000  0.6508444  3
  11026  11024  11027  11035     1  0.0000000  1.0460000  1
  11026  11024  11027  11035     1  0.0000000  0.0000000  3
  11026  11024  11027  11031     1  0.0000000  0.6508444  3
  11026  11024  11036  11039     1  0.0000000  0.6973333  3
  11026  11024  11023  11037     1  0.0000000  0.6508444  3
  11026  11024  11023  11045     1  0.0000000  1.0460000  1
  11026  11024  11023  11045     1  0.0000000  0.0000000  3
  11027  11028  11029  11032     1  0.0000000  0.6508444  3
  11027  11028  11034  11040     1  0.0000000  1.0460000  1
  11027  11028  11034  11040     1  0.0000000  0.6694400  3
  11027  11024  11036  11039     1  0.0000000  1.0460000  1
  11027  11024  11036  11039     1  0.0000000  0.6694400  3
  11028  11027  11035  11038     1  0.0000000  1.0460000  1
  11028  11027  11035  11038     1  0.0000000  0.6694400  3
  11029  11028  11034  11040     1  0.0000000  1.0460000  1
  11029  11028  11034  11040     1  0.0000000  0.6694400  3
  11029  11028  11027  11031     1  0.0000000  0.6508444  3
  11030  11028  11029  11033     1  0.0000000  1.0460000  1
  11030  11028  11029  11033     1  0.0000000  0.0000000  3
  11030  11028  11029  11045     1  0.0000000  1.0460000  1
  11030  11028  11029  11045     1  0.0000000  0.0000000  3
  11030  11028  11029  11032     1  0.0000000  0.6508444  3
  11030  11028  11034  11040     1  0.0000000  0.6973333  3
  11030  11028  11027  11035     1  0.0000000  1.0460000  1
  11030  11028  11027  11035     1  0.0000000  0.0000000  3
  11030  11028  11027  11031     1  0.0000000  0.6508444  3
  11031  11027  11028  11034     1  0.0000000  1.0460000  1
  11031  11027  11028  11034     1  0.0000000  0.0000000  3
  11031  11027  11035  11038     1  0.0000000  0.6973333  3
  11031  11027  11024  11036     1  0.0000000  1.0460000  1
  11031  11027  11024  11036     1  0.0000000  0.0000000  3
  11032  11029  11028  11034     1  0.0000000  0.6508444  3
  11041  11037  11043  11044     1  0.0000000  0.6973333  3
  11041  11037  11023  11045     1  0.0000000  1.0460000  1
  11041  11037  11023  11045     1  0.0000000  0.0000000  3
  11042  11037  11043  11044     1  0.0000000  0.6973333  3
  11042  11037  11023  11045     1  0.0000000  1.0460000  1
  11042  11037  11023  11045     1  0.0000000  0.0000000  3
  11046  11047  11050  11054     1  0.0000000  0.6508444  3
  11046  11047  11059  11062     1  0.0000000  1.0460000  1
  11046  11047  11059  11062     1  0.0000000  0.6694400  3
  11046  11060  11066  11067     1  0.0000000  1.0460000  1
  11046  11060  11066  11067     1  0.0000000  0.6694400  3
  11046  11068  11052  11055     1  0.0000000  1.6038667  3
  11047  11046  11060  11064     1  0.0000000  0.6508444  3
  11047  11046  11060  11065     1  0.0000000  0.6508444  3
  11047  11050  11051  11053     1  0.0000000  0.6508444  3
  11047  11050  11058  11061     1  0.0000000  1.0460000  1
  11047  11050  11058  11061     1  0.0000000  0.6694400  3
  11048  11046  11047  11050     1  0.0000000  0.6508444  3
  11048  11046  11047  11059     1  0.0000000  1.0460000  1
  11048  11046  11047  11059     1  0.0000000  0.0000000  3
  11048  11046  11047  11049     1  0.0000000  0.6508444  3
  11048  11046  11060  11066     1  0.0000000  1.0460000  1
  11048  11046  11060  11066     1  0.0000000  0.0000000  3
  11048  11046  11060  11064     1  0.0000000  0.6508444  3
  11048  11046  11060  11065     1  0.0000000  0.6508444  3
  11048  11046  11068  11052     1  0.0000000  1.6038667  3
  11049  11047  11046  11060     1  0.0000000  0.6508444  3
  11049  11047  11046  11068     1  0.0000000  1.0460000  1
  11049  11047  11046  11068     1  0.0000000  0.0000000  3
  11049  11047  11050  11051     1  0.0000000  0.6508444  3
  11049  11047  11050  11058     1  0.0000000  1.0460000  1
  11049  11047  11050  11058     1  0.0000000  0.0000000  3
  11049  11047  11050  11054     1  0.0000000  0.6508444  3
  11049  11047  11059  11062     1  0.0000000  0.6973333  3
  11050  11047  11059  11062     1  0.0000000  1.0460000  1
  11050  11047  11059  11062     1  0.0000000  0.6694400  3
  11050  11051  11052  11055     1  0.0000000  0.6508444  3
  11050  11051  11057  11063     1  0.0000000  1.0460000  1
  11050  11051  11057  11063     1  0.0000000  0.6694400  3
  11051  11050  11058  11061     1  0.0000000  1.0460000  1
  11051  11050  11058  11061     1  0.0000000  0.6694400  3
  11052  11051  11050  11054     1  0.0000000  0.6508444  3
  11052  11051  11057  11063     1  0.0000000  1.0460000  1
  11052  11051  11057  11063     1  0.0000000  0.6694400  3
  11053  11051  11050  11058     1  0.0000000  1.0460000  1
  11053  11051  11050  11058     1  0.0000000  0.0000000  3
  11053  11051  11050  11054     1  0.0000000  0.6508444  3
  11053  11051  11052  11056     1  0.0000000  1.0460000  1
  11053  11051  11052  11056     1  0.0000000  0.0000000  3
  11053  11051  11052  11068     1  0.0000000  1.0460000  1
  11053  11051  11052  11068     1  0.0000000  0.0000000  3
  11053  11051  11052  11055     1  0.0000000  0.6508444  3
  11053  11051  11057  11063     1  0.0000000  0.6973333  3
  11054  11050  11047  11059     1  0.0000000  1.0460000  1
  11054  11050  11047  11059     1  0.0000000  0.0000000  3
  11054  11050  11051  11057     1  0.0000000  1.0460000  1
  11054  11050  11051  11057     1  0.0000000  0.0000000  3
  11054  11050  11058  11061     1  0.0000000  0.6973333  3
  11055  11052  11051  11057     1  0.0000000  0.6508444  3
  11064  11060  11046  11068     1  0.0000000  1.0460000  1
  11064  11060  11046  11068     1  0.0000000  0.0000000  3
  11064  11060  11066  11067     1  0.0000000  0.6973333  3
  11065  11060  11046  11068     1  0.0000000  1.0460000  1
  11065  11060  11046  11068     1  0.0000000  0.0000000  3
  11065  11060  11066  11067     1  0.0000000  0.6973333  3
  11069  11070  11073  11077     1  0.0000000  0.6508444  3
  11069  11070  11082  11085     1  0.0000000  1.0460000  1
  11069  11070  11082  11085     1  0.0000000  0.6694400  3
  11069  11083  11089  11090     1  0.0000000  1.0460000  1
  11069  11083  11089  11090     1  0.0000000  0.6694400  3
  11069  11091  11075  11078     1  0.0000000  1.6038667  3
  11070  11073  11074  11076     1  0.0000000  0.6508444  3
  11070  11073  11081  11084     1  0.0000000  1.0460000  1
  11070  11073  11081  11084     1  0.0000000  0.6694400  3
  11070  11069  11083  11087     1  0.0000000  0.6508444  3
  11070  11069  11083  11088     1  0.0000000  0.6508444  3
  11071  11069  11070  11073     1  0.0000000  0.6508444  3
  11071  11069  11070  11082     1  0.0000000  1.0460000  1
  11071  11069  11070  11082     1  0.0000000  0.0000000  3
  11071  11069  11070  11072     1  0.0000000  0.6508444  3
  11071  11069  11083  11089     1  0.0000000  1.0460000  1
  11071  11069  11083  11089     1  0.0000000  0.0000000  3
  11071  11069  11083  11087     1  0.0000000  0.6508444  3
  11071  11069  11083  11088     1  0.0000000  0.6508444  3
  11071  11069  11091  11075     1  0.0000000  1.6038667  3
  11072  11070  11073  11074     1  0.0000000  0.6508444  3
  11072  11070  11073  11081     1  0.0000000  1.0460000  1
  11072  11070  11073  11081     1  0.0000000  0.0000000  3
  11072  11070  11073  11077     1  0.0000000  0.6508444  3
  11072  11070  11082  11085     1  0.0000000  0.6973333  3
  11072  11070  11069  11083     1  0.0000000  0.6508444  3
  11072  11070  11069  11091     1  0.0000000  1.0460000  1
  11072  11070  11069  11091     1  0.0000000  0.0000000  3
  11073  11074  11075  11078     1  0.0000000  0.6508444  3
  11073  11074  11080  11086     1  0.0000000  1.0460000  1
  11073  11074  11080  11086     1  0.0000000  0.6694400  3
  11073  11070  11082  11085     1  0.0000000  1.0460000  1
  11073  11070  11082  11085     1  0.0000000  0.6694400  3
  11074  11073  11081  11084     1  0.0000000  1.0460000  1
  11074  11073  11081  11084     1  0.0000000  0.6694400  3
  11075  11074  11080  11086     1  0.0000000  1.0460000  1
  11075  11074  11080  11086     1  0.0000000  0.6694400  3
  11075  11074  11073  11077     1  0.0000000  0.6508444  3
  11076  11074  11075  11079     1  0.0000000  1.0460000  1
  11076  11074  11075  11079     1  0.0000000  0.0000000  3
  11076  11074  11075  11091     1  0.0000000  1.0460000  1
  11076  11074  11075  11091     1  0.0000000  0.0000000  3
  11076  11074  11075  11078     1  0.0000000  0.6508444  3
  11076  11074  11080  11086     1  0.0000000  0.6973333  3
  11076  11074  11073  11081     1  0.0000000  1.0460000  1
  11076  11074  11073  11081     1  0.0000000  0.0000000  3
  11076  11074  11073  11077     1  0.0000000  0.6508444  3
  11077  11073  11074  11080     1  0.0000000  1.0460000  1
  11077  11073  11074  11080     1  0.0000000  0.0000000  3
  11077  11073  11081  11084     1  0.0000000  0.6973333  3
  11077  11073  11070  11082     1  0.0000000  1.0460000  1
  11077  11073  11070  11082     1  0.0000000  0.0000000  3
  11078  11075  11074  11080     1  0.0000000  0.6508444  3
  11087  11083  11089  11090     1  0.0000000  0.6973333  3
  11087  11083  11069  11091     1  0.0000000  1.0460000  1
  11087  11083  11069  11091     1  0.0000000  0.0000000  3
  11088  11083  11089  11090     1  0.0000000  0.6973333  3
  11088  11083  11069  11091     1  0.0000000  1.0460000  1
  11088  11083  11069  11091     1  0.0000000  0.0000000  3
  11092  11093  11096  11100     1  0.0000000  0.6508444  3
  11092  11093  11105  11108     1  0.0000000  1.0460000  1
  11092  11093  11105  11108     1  0.0000000  0.6694400  3
  11092  11106  11112  11113     1  0.0000000  1.0460000  1
  11092  11106  11112  11113     1  0.0000000  0.6694400  3
  11092  11114  11098  11101     1  0.0000000  1.6038667  3
  11093  11092  11106  11110     1  0.0000000  0.6508444  3
  11093  11092  11106  11111     1  0.0000000  0.6508444  3
  11093  11096  11097  11099     1  0.0000000  0.6508444  3
  11093  11096  11104  11107     1  0.0000000  1.0460000  1
  11093  11096  11104  11107     1  0.0000000  0.6694400  3
  11094  11092  11093  11096     1  0.0000000  0.6508444  3
  11094  11092  11093  11105     1  0.0000000  1.0460000  1
  11094  11092  11093  11105     1  0.0000000  0.0000000  3
  11094  11092  11093  11095     1  0.0000000  0.6508444  3
  11094  11092  11106  11112     1  0.0000000  1.0460000  1
  11094  11092  11106  11112     1  0.0000000  0.0000000  3
  11094  11092  11106  11110     1  0.0000000  0.6508444  3
  11094  11092  11106  11111     1  0.0000000  0.6508444  3
  11094  11092  11114  11098     1  0.0000000  1.6038667  3
  11095  11093  11092  11106     1  0.0000000  0.6508444  3
  11095  11093  11092  11114     1  0.0000000  1.0460000  1
  11095  11093  11092  11114     1  0.0000000  0.0000000  3
  11095  11093  11096  11097     1  0.0000000  0.6508444  3
  11095  11093  11096  11104     1  0.0000000  1.0460000  1
  11095  11093  11096  11104     1  0.0000000  0.0000000  3
  11095  11093  11096  11100     1  0.0000000  0.6508444  3
  11095  11093  11105  11108     1  0.0000000  0.6973333  3
  11096  11093  11105  11108     1  0.0000000  1.0460000  1
  11096  11093  11105  11108     1  0.0000000  0.6694400  3
  11096  11097  11098  11101     1  0.0000000  0.6508444  3
  11096  11097  11103  11109     1  0.0000000  1.0460000  1
  11096  11097  11103  11109     1  0.0000000  0.6694400  3
  11097  11096  11104  11107     1  0.0000000  1.0460000  1
  11097  11096  11104  11107     1  0.0000000  0.6694400  3
  11098  11097  11096  11100     1  0.0000000  0.6508444  3
  11098  11097  11103  11109     1  0.0000000  1.0460000  1
  11098  11097  11103  11109     1  0.0000000  0.6694400  3
  11099  11097  11096  11104     1  0.0000000  1.0460000  1
  11099  11097  11096  11104     1  0.0000000  0.0000000  3
  11099  11097  11096  11100     1  0.0000000  0.6508444  3
  11099  11097  11098  11102     1  0.0000000  1.0460000  1
  11099  11097  11098  11102     1  0.0000000  0.0000000  3
  11099  11097  11098  11114     1  0.0000000  1.0460000  1
  11099  11097  11098  11114     1  0.0000000  0.0000000  3
  11099  11097  11098  11101     1  0.0000000  0.6508444  3
  11099  11097  11103  11109     1  0.0000000  0.6973333  3
  11100  11096  11093  11105     1  0.0000000  1.0460000  1
  11100  11096  11093  11105     1  0.0000000  0.0000000  3
  11100  11096  11097  11103     1  0.0000000  1.0460000  1
  11100  11096  11097  11103     1  0.0000000  0.0000000  3
  11100  11096  11104  11107     1  0.0000000  0.6973333  3
  11101  11098  11097  11103     1  0.0000000  0.6508444  3
  11110  11106  11092  11114     1  0.0000000  1.0460000  1
  11110  11106  11092  11114     1  0.0000000  0.0000000  3
  11110  11106  11112  11113     1  0.0000000  0.6973333  3
  11111  11106  11092  11114     1  0.0000000  1.0460000  1
  11111  11106  11092  11114     1  0.0000000  0.0000000  3
  11111  11106  11112  11113     1  0.0000000  0.6973333  3
  11115  11116  11119  11123     1  0.0000000  0.6508444  3
  11115  11116  11128  11131     1  0.0000000  1.0460000  1
  11115  11116  11128  11131     1  0.0000000  0.6694400  3
  11115  11129  11135  11136     1  0.0000000  1.0460000  1
  11115  11129  11135  11136     1  0.0000000  0.6694400  3
  11115  11137  11121  11124     1  0.0000000  1.6038667  3
  11116  11119  11120  11122     1  0.0000000  0.6508444  3
  11116  11119  11127  11130     1  0.0000000  1.0460000  1
  11116  11119  11127  11130     1  0.0000000  0.6694400  3
  11116  11115  11129  11133     1  0.0000000  0.6508444  3
  11116  11115  11129  11134     1  0.0000000  0.6508444  3
  11117  11115  11116  11119     1  0.0000000  0.6508444  3
  11117  11115  11116  11128     1  0.0000000  1.0460000  1
  11117  11115  11116  11128     1  0.0000000  0.0000000  3
  11117  11115  11116  11118     1  0.0000000  0.6508444  3
  11117  11115  11129  11135     1  0.0000000  1.0460000  1
  11117  11115  11129  11135     1  0.0000000  0.0000000  3
  11117  11115  11129  11133     1  0.0000000  0.6508444  3
  11117  11115  11129  11134     1  0.0000000  0.6508444  3
  11117  11115  11137  11121     1  0.0000000  1.6038667  3
  11118  11116  11119  11120     1  0.0000000  0.6508444  3
  11118  11116  11119  11127     1  0.0000000  1.0460000  1
  11118  11116  11119  11127     1  0.0000000  0.0000000  3
  11118  11116  11119  11123     1  0.0000000  0.6508444  3
  11118  11116  11128  11131     1  0.0000000  0.6973333  3
  11118  11116  11115  11129     1  0.0000000  0.6508444  3
  11118  11116  11115  11137     1  0.0000000  1.0460000  1
  11118  11116  11115  11137     1  0.0000000  0.0000000  3
  11119  11120  11121  11124     1  0.0000000  0.6508444  3
  11119  11120  11126  11132     1  0.0000000  1.0460000  1
  11119  11120  11126  11132     1  0.0000000  0.6694400  3
  11119  11116  11128  11131     1  0.0000000  1.0460000  1
  11119  11116  11128  11131     1  0.0000000  0.6694400  3
  11120  11119  11127  11130     1  0.0000000  1.0460000  1
  11120  11119  11127  11130     1  0.0000000  0.6694400  3
  11121  11120  11126  11132     1  0.0000000  1.0460000  1
  11121  11120  11126  11132     1  0.0000000  0.6694400  3
  11121  11120  11119  11123     1  0.0000000  0.6508444  3
  11122  11120  11121  11125     1  0.0000000  1.0460000  1
  11122  11120  11121  11125     1  0.0000000  0.0000000  3
  11122  11120  11121  11137     1  0.0000000  1.0460000  1
  11122  11120  11121  11137     1  0.0000000  0.0000000  3
  11122  11120  11121  11124     1  0.0000000  0.6508444  3
  11122  11120  11126  11132     1  0.0000000  0.6973333  3
  11122  11120  11119  11127     1  0.0000000  1.0460000  1
  11122  11120  11119  11127     1  0.0000000  0.0000000  3
  11122  11120  11119  11123     1  0.0000000  0.6508444  3
  11123  11119  11120  11126     1  0.0000000  1.0460000  1
  11123  11119  11120  11126     1  0.0000000  0.0000000  3
  11123  11119  11127  11130     1  0.0000000  0.6973333  3
  11123  11119  11116  11128     1  0.0000000  1.0460000  1
  11123  11119  11116  11128     1  0.0000000  0.0000000  3
  11124  11121  11120  11126     1  0.0000000  0.6508444  3
  11133  11129  11135  11136     1  0.0000000  0.6973333  3
  11133  11129  11115  11137     1  0.0000000  1.0460000  1
  11133  11129  11115  11137     1  0.0000000  0.0000000  3
  11134  11129  11135  11136     1  0.0000000  0.6973333  3
  11134  11129  11115  11137     1  0.0000000  1.0460000  1
  11134  11129  11115  11137     1  0.0000000  0.0000000  3
  11138  11139  11142  11146     1  0.0000000  0.6508444  3
  11138  11139  11151  11154     1  0.0000000  1.0460000  1
  11138  11139  11151  11154     1  0.0000000  0.6694400  3
  11138  11152  11158  11159     1  0.0000000  1.0460000  1
  11138  11152  11158  11159     1  0.0000000  0.6694400  3
  11138  11160  11144  11147     1  0.0000000  1.6038667  3
  11139  11138  11152  11156     1  0.0000000  0.6508444  3
  11139  11138  11152  11157     1  0.0000000  0.6508444  3
  11139  11142  11143  11145     1  0.0000000  0.6508444  3
  11139  11142  11150  11153     1  0.0000000  1.0460000  1
  11139  11142  11150  11153     1  0.0000000  0.6694400  3
  11140  11138  11139  11142     1  0.0000000  0.6508444  3
  11140  11138  11139  11151     1  0.0000000  1.0460000  1
  11140  11138  11139  11151     1  0.0000000  0.0000000  3
  11140  11138  11139  11141     1  0.0000000  0.6508444  3
  11140  11138  11152  11158     1  0.0000000  1.0460000  1
  11140  11138  11152  11158     1  0.0000000  0.0000000  3
  11140  11138  11152  11156     1  0.0000000  0.6508444  3
  11140  11138  11152  11157     1  0.0000000  0.6508444  3
  11140  11138  11160  11144     1  0.0000000  1.6038667  3
  11141  11139  11138  11152     1  0.0000000  0.6508444  3
  11141  11139  11138  11160     1  0.0000000  1.0460000  1
  11141  11139  11138  11160     1  0.0000000  0.0000000  3
  11141  11139  11142  11143     1  0.0000000  0.6508444  3
  11141  11139  11142  11150     1  0.0000000  1.0460000  1
  11141  11139  11142  11150     1  0.0000000  0.0000000  3
  11141  11139  11142  11146     1  0.0000000  0.6508444  3
  11141  11139  11151  11154     1  0.0000000  0.6973333  3
  11142  11139  11151  11154     1  0.0000000  1.0460000  1
  11142  11139  11151  11154     1  0.0000000  0.6694400  3
  11142  11143  11144  11147     1  0.0000000  0.6508444  3
  11142  11143  11149  11155     1  0.0000000  1.0460000  1
  11142  11143  11149  11155     1  0.0000000  0.6694400  3
  11143  11142  11150  11153     1  0.0000000  1.0460000  1
  11143  11142  11150  11153     1  0.0000000  0.6694400  3
  11144  11143  11142  11146     1  0.0000000  0.6508444  3
  11144  11143  11149  11155     1  0.0000000  1.0460000  1
  11144  11143  11149  11155     1  0.0000000  0.6694400  3
  11145  11143  11142  11150     1  0.0000000  1.0460000  1
  11145  11143  11142  11150     1  0.0000000  0.0000000  3
  11145  11143  11142  11146     1  0.0000000  0.6508444  3
  11145  11143  11144  11148     1  0.0000000  1.0460000  1
  11145  11143  11144  11148     1  0.0000000  0.0000000  3
  11145  11143  11144  11160     1  0.0000000  1.0460000  1
  11145  11143  11144  11160     1  0.0000000  0.0000000  3
  11145  11143  11144  11147     1  0.0000000  0.6508444  3
  11145  11143  11149  11155     1  0.0000000  0.6973333  3
  11146  11142  11139  11151     1  0.0000000  1.0460000  1
  11146  11142  11139  11151     1  0.0000000  0.0000000  3
  11146  11142  11143  11149     1  0.0000000  1.0460000  1
  11146  11142  11143  11149     1  0.0000000  0.0000000  3
  11146  11142  11150  11153     1  0.0000000  0.6973333  3
  11147  11144  11143  11149     1  0.0000000  0.6508444  3
  11156  11152  11138  11160     1  0.0000000  1.0460000  1
  11156  11152  11138  11160     1  0.0000000  0.0000000  3
  11156  11152  11158  11159     1  0.0000000  0.6973333  3
  11157  11152  11138  11160     1  0.0000000  1.0460000  1
  11157  11152  11138  11160     1  0.0000000  0.0000000  3
  11157  11152  11158  11159     1  0.0000000  0.6973333  3
  11161  11162  11165  11169     1  0.0000000  0.6508444  3
  11161  11162  11174  11177     1  0.0000000  1.0460000  1
  11161  11162  11174  11177     1  0.0000000  0.6694400  3
  11161  11175  11181  11182     1  0.0000000  1.0460000  1
  11161  11175  11181  11182     1  0.0000000  0.6694400  3
  11161  11183  11167  11170     1  0.0000000  1.6038667  3
  11162  11165  11166  11168     1  0.0000000  0.6508444  3
  11162  11165  11173  11176     1  0.0000000  1.0460000  1
  11162  11165  11173  11176     1  0.0000000  0.6694400  3
  11162  11161  11175  11179     1  0.0000000  0.6508444  3
  11162  11161  11175  11180     1  0.0000000  0.6508444  3
  11163  11161  11162  11165     1  0.0000000  0.6508444  3
  11163  11161  11162  11174     1  0.0000000  1.0460000  1
  11163  11161  11162  11174     1  0.0000000  0.0000000  3
  11163  11161  11162  11164     1  0.0000000  0.6508444  3
  11163  11161  11175  11181     1  0.0000000  1.0460000  1
  11163  11161  11175  11181     1  0.0000000  0.0000000  3
  11163  11161  11175  11179     1  0.0000000  0.6508444  3
  11163  11161  11175  11180     1  0.0000000  0.6508444  3
  11163  11161  11183  11167     1  0.0000000  1.6038667  3
  11164  11162  11165  11166     1  0.0000000  0.6508444  3
  11164  11162  11165  11173     1  0.0000000  1.0460000  1
  11164  11162  11165  11173     1  0.0000000  0.0000000  3
  11164  11162  11165  11169     1  0.0000000  0.6508444  3
  11164  11162  11174  11177     1  0.0000000  0.6973333  3
  11164  11162  11161  11175     1  0.0000000  0.6508444  3
  11164  11162  11161  11183     1  0.0000000  1.0460000  1
  11164  11162  11161  11183     1  0.0000000  0.0000000  3
  11165  11166  11167  11170     1  0.0000000  0.6508444  3
  11165  11166  11172  11178     1  0.0000000  1.0460000  1
  11165  11166  11172  11178     1  0.0000000  0.6694400  3
  11165  11162  11174  11177     1  0.0000000  1.0460000  1
  11165  11162  11174  11177     1  0.0000000  0.6694400  3
  11166  11165  11173  11176     1  0.0000000  1.0460000  1
  11166  11165  11173  11176     1  0.0000000  0.6694400  3
  11167  11166  11172  11178     1  0.0000000  1.0460000  1
  11167  11166  11172  11178     1  0.0000000  0.6694400  3
  11167  11166  11165  11169     1  0.0000000  0.6508444  3
  11168  11166  11167  11171     1  0.0000000  1.0460000  1
  11168  11166  11167  11171     1  0.0000000  0.0000000  3
  11168  11166  11167  11183     1  0.0000000  1.0460000  1
  11168  11166  11167  11183     1  0.0000000  0.0000000  3
  11168  11166  11167  11170     1  0.0000000  0.6508444  3
  11168  11166  11172  11178     1  0.0000000  0.6973333  3
  11168  11166  11165  11173     1  0.0000000  1.0460000  1
  11168  11166  11165  11173     1  0.0000000  0.0000000  3
  11168  11166  11165  11169     1  0.0000000  0.6508444  3
  11169  11165  11166  11172     1  0.0000000  1.0460000  1
  11169  11165  11166  11172     1  0.0000000  0.0000000  3
  11169  11165  11173  11176     1  0.0000000  0.6973333  3
  11169  11165  11162  11174     1  0.0000000  1.0460000  1
  11169  11165  11162  11174     1  0.0000000  0.0000000  3
  11170  11167  11166  11172     1  0.0000000  0.6508444  3
  11179  11175  11181  11182     1  0.0000000  0.6973333  3
  11179  11175  11161  11183     1  0.0000000  1.0460000  1
  11179  11175  11161  11183     1  0.0000000  0.0000000  3
  11180  11175  11181  11182     1  0.0000000  0.6973333  3
  11180  11175  11161  11183     1  0.0000000  1.0460000  1
  11180  11175  11161  11183     1  0.0000000  0.0000000  3
  11184  11185  11188  11192     1  0.0000000  0.6508444  3
  11184  11185  11197  11200     1  0.0000000  1.0460000  1
  11184  11185  11197  11200     1  0.0000000  0.6694400  3
  11184  11198  11204  11205     1  0.0000000  1.0460000  1
  11184  11198  11204  11205     1  0.0000000  0.6694400  3
  11184  11206  11190  11193     1  0.0000000  1.6038667  3
  11185  11184  11198  11202     1  0.0000000  0.6508444  3
  11185  11184  11198  11203     1  0.0000000  0.6508444  3
  11185  11188  11189  11191     1  0.0000000  0.6508444  3
  11185  11188  11196  11199     1  0.0000000  1.0460000  1
  11185  11188  11196  11199     1  0.0000000  0.6694400  3
  11186  11184  11185  11188     1  0.0000000  0.6508444  3
  11186  11184  11185  11197     1  0.0000000  1.0460000  1
  11186  11184  11185  11197     1  0.0000000  0.0000000  3
  11186  11184  11185  11187     1  0.0000000  0.6508444  3
  11186  11184  11198  11204     1  0.0000000  1.0460000  1
  11186  11184  11198  11204     1  0.0000000  0.0000000  3
  11186  11184  11198  11202     1  0.0000000  0.6508444  3
  11186  11184  11198  11203     1  0.0000000  0.6508444  3
  11186  11184  11206  11190     1  0.0000000  1.6038667  3
  11187  11185  11184  11198     1  0.0000000  0.6508444  3
  11187  11185  11184  11206     1  0.0000000  1.0460000  1
  11187  11185  11184  11206     1  0.0000000  0.0000000  3
  11187  11185  11188  11189     1  0.0000000  0.6508444  3
  11187  11185  11188  11196     1  0.0000000  1.0460000  1
  11187  11185  11188  11196     1  0.0000000  0.0000000  3
  11187  11185  11188  11192     1  0.0000000  0.6508444  3
  11187  11185  11197  11200     1  0.0000000  0.6973333  3
  11188  11185  11197  11200     1  0.0000000  1.0460000  1
  11188  11185  11197  11200     1  0.0000000  0.6694400  3
  11188  11189  11190  11193     1  0.0000000  0.6508444  3
  11188  11189  11195  11201     1  0.0000000  1.0460000  1
  11188  11189  11195  11201     1  0.0000000  0.6694400  3
  11189  11188  11196  11199     1  0.0000000  1.0460000  1
  11189  11188  11196  11199     1  0.0000000  0.6694400  3
  11190  11189  11188  11192     1  0.0000000  0.6508444  3
  11190  11189  11195  11201     1  0.0000000  1.0460000  1
  11190  11189  11195  11201     1  0.0000000  0.6694400  3
  11191  11189  11188  11196     1  0.0000000  1.0460000  1
  11191  11189  11188  11196     1  0.0000000  0.0000000  3
  11191  11189  11188  11192     1  0.0000000  0.6508444  3
  11191  11189  11190  11194     1  0.0000000  1.0460000  1
  11191  11189  11190  11194     1  0.0000000  0.0000000  3
  11191  11189  11190  11206     1  0.0000000  1.0460000  1
  11191  11189  11190  11206     1  0.0000000  0.0000000  3
  11191  11189  11190  11193     1  0.0000000  0.6508444  3
  11191  11189  11195  11201     1  0.0000000  0.6973333  3
  11192  11188  11185  11197     1  0.0000000  1.0460000  1
  11192  11188  11185  11197     1  0.0000000  0.0000000  3
  11192  11188  11189  11195     1  0.0000000  1.0460000  1
  11192  11188  11189  11195     1  0.0000000  0.0000000  3
  11192  11188  11196  11199     1  0.0000000  0.6973333  3
  11193  11190  11189  11195     1  0.0000000  0.6508444  3
  11202  11198  11184  11206     1  0.0000000  1.0460000  1
  11202  11198  11184  11206     1  0.0000000  0.0000000  3
  11202  11198  11204  11205     1  0.0000000  0.6973333  3
  11203  11198  11184  11206     1  0.0000000  1.0460000  1
  11203  11198  11184  11206     1  0.0000000  0.0000000  3
  11203  11198  11204  11205     1  0.0000000  0.6973333  3
  11207  11208  11211  11215     1  0.0000000  0.6508444  3
  11207  11208  11220  11223     1  0.0000000  1.0460000  1
  11207  11208  11220  11223     1  0.0000000  0.6694400  3
  11207  11221  11227  11228     1  0.0000000  1.0460000  1
  11207  11221  11227  11228     1  0.0000000  0.6694400  3
  11207  11229  11213  11216     1  0.0000000  1.6038667  3
  11208  11211  11212  11214     1  0.0000000  0.6508444  3
  11208  11211  11219  11222     1  0.0000000  1.0460000  1
  11208  11211  11219  11222     1  0.0000000  0.6694400  3
  11208  11207  11221  11225     1  0.0000000  0.6508444  3
  11208  11207  11221  11226     1  0.0000000  0.6508444  3
  11209  11207  11208  11211     1  0.0000000  0.6508444  3
  11209  11207  11208  11220     1  0.0000000  1.0460000  1
  11209  11207  11208  11220     1  0.0000000  0.0000000  3
  11209  11207  11208  11210     1  0.0000000  0.6508444  3
  11209  11207  11221  11227     1  0.0000000  1.0460000  1
  11209  11207  11221  11227     1  0.0000000  0.0000000  3
  11209  11207  11221  11225     1  0.0000000  0.6508444  3
  11209  11207  11221  11226     1  0.0000000  0.6508444  3
  11209  11207  11229  11213     1  0.0000000  1.6038667  3
  11210  11208  11211  11212     1  0.0000000  0.6508444  3
  11210  11208  11211  11219     1  0.0000000  1.0460000  1
  11210  11208  11211  11219     1  0.0000000  0.0000000  3
  11210  11208  11211  11215     1  0.0000000  0.6508444  3
  11210  11208  11220  11223     1  0.0000000  0.6973333  3
  11210  11208  11207  11221     1  0.0000000  0.6508444  3
  11210  11208  11207  11229     1  0.0000000  1.0460000  1
  11210  11208  11207  11229     1  0.0000000  0.0000000  3
  11211  11212  11213  11216     1  0.0000000  0.6508444  3
  11211  11212  11218  11224     1  0.0000000  1.0460000  1
  11211  11212  11218  11224     1  0.0000000  0.6694400  3
  11211  11208  11220  11223     1  0.0000000  1.0460000  1
  11211  11208  11220  11223     1  0.0000000  0.6694400  3
  11212  11211  11219  11222     1  0.0000000  1.0460000  1
  11212  11211  11219  11222     1  0.0000000  0.6694400  3
  11213  11212  11218  11224     1  0.0000000  1.0460000  1
  11213  11212  11218  11224     1  0.0000000  0.6694400  3
  11213  11212  11211  11215     1  0.0000000  0.6508444  3
  11214  11212  11213  11217     1  0.0000000  1.0460000  1
  11214  11212  11213  11217     1  0.0000000  0.0000000  3
  11214  11212  11213  11229     1  0.0000000  1.0460000  1
  11214  11212  11213  11229     1  0.0000000  0.0000000  3
  11214  11212  11213  11216     1  0.0000000  0.6508444  3
  11214  11212  11218  11224     1  0.0000000  0.6973333  3
  11214  11212  11211  11219     1  0.0000000  1.0460000  1
  11214  11212  11211  11219     1  0.0000000  0.0000000  3
  11214  11212  11211  11215     1  0.0000000  0.6508444  3
  11215  11211  11212  11218     1  0.0000000  1.0460000  1
  11215  11211  11212  11218     1  0.0000000  0.0000000  3
  11215  11211  11219  11222     1  0.0000000  0.6973333  3
  11215  11211  11208  11220     1  0.0000000  1.0460000  1
  11215  11211  11208  11220     1  0.0000000  0.0000000  3
  11216  11213  11212  11218     1  0.0000000  0.6508444  3
  11225  11221  11227  11228     1  0.0000000  0.6973333  3
  11225  11221  11207  11229     1  0.0000000  1.0460000  1
  11225  11221  11207  11229     1  0.0000000  0.0000000  3
  11226  11221  11227  11228     1  0.0000000  0.6973333  3
  11226  11221  11207  11229     1  0.0000000  1.0460000  1
  11226  11221  11207  11229     1  0.0000000  0.0000000  3
  11230  11231  11234  11238     1  0.0000000  0.6508444  3
  11230  11231  11243  11246     1  0.0000000  1.0460000  1
  11230  11231  11243  11246     1  0.0000000  0.6694400  3
  11230  11244  11250  11251     1  0.0000000  1.0460000  1
  11230  11244  11250  11251     1  0.0000000  0.6694400  3
  11230  11252  11236  11239     1  0.0000000  1.6038667  3
  11231  11230  11244  11248     1  0.0000000  0.6508444  3
  11231  11230  11244  11249     1  0.0000000  0.6508444  3
  11231  11234  11235  11237     1  0.0000000  0.6508444  3
  11231  11234  11242  11245     1  0.0000000  1.0460000  1
  11231  11234  11242  11245     1  0.0000000  0.6694400  3
  11232  11230  11231  11234     1  0.0000000  0.6508444  3
  11232  11230  11231  11243     1  0.0000000  1.0460000  1
  11232  11230  11231  11243     1  0.0000000  0.0000000  3
  11232  11230  11231  11233     1  0.0000000  0.6508444  3
  11232  11230  11244  11250     1  0.0000000  1.0460000  1
  11232  11230  11244  11250     1  0.0000000  0.0000000  3
  11232  11230  11244  11248     1  0.0000000  0.6508444  3
  11232  11230  11244  11249     1  0.0000000  0.6508444  3
  11232  11230  11252  11236     1  0.0000000  1.6038667  3
  11233  11231  11230  11244     1  0.0000000  0.6508444  3
  11233  11231  11230  11252     1  0.0000000  1.0460000  1
  11233  11231  11230  11252     1  0.0000000  0.0000000  3
  11233  11231  11234  11235     1  0.0000000  0.6508444  3
  11233  11231  11234  11242     1  0.0000000  1.0460000  1
  11233  11231  11234  11242     1  0.0000000  0.0000000  3
  11233  11231  11234  11238     1  0.0000000  0.6508444  3
  11233  11231  11243  11246     1  0.0000000  0.6973333  3
  11234  11231  11243  11246     1  0.0000000  1.0460000  1
  11234  11231  11243  11246     1  0.0000000  0.6694400  3
  11234  11235  11236  11239     1  0.0000000  0.6508444  3
  11234  11235  11241  11247     1  0.0000000  1.0460000  1
  11234  11235  11241  11247     1  0.0000000  0.6694400  3
  11235  11234  11242  11245     1  0.0000000  1.0460000  1
  11235  11234  11242  11245     1  0.0000000  0.6694400  3
  11236  11235  11234  11238     1  0.0000000  0.6508444  3
  11236  11235  11241  11247     1  0.0000000  1.0460000  1
  11236  11235  11241  11247     1  0.0000000  0.6694400  3
  11237  11235  11234  11242     1  0.0000000  1.0460000  1
  11237  11235  11234  11242     1  0.0000000  0.0000000  3
  11237  11235  11234  11238     1  0.0000000  0.6508444  3
  11237  11235  11236  11240     1  0.0000000  1.0460000  1
  11237  11235  11236  11240     1  0.0000000  0.0000000  3
  11237  11235  11236  11252     1  0.0000000  1.0460000  1
  11237  11235  11236  11252     1  0.0000000  0.0000000  3
  11237  11235  11236  11239     1  0.0000000  0.6508444  3
  11237  11235  11241  11247     1  0.0000000  0.6973333  3
  11238  11234  11231  11243     1  0.0000000  1.0460000  1
  11238  11234  11231  11243     1  0.0000000  0.0000000  3
  11238  11234  11235  11241     1  0.0000000  1.0460000  1
  11238  11234  11235  11241     1  0.0000000  0.0000000  3
  11238  11234  11242  11245     1  0.0000000  0.6973333  3
  11239  11236  11235  11241     1  0.0000000  0.6508444  3
  11248  11244  11230  11252     1  0.0000000  1.0460000  1
  11248  11244  11230  11252     1  0.0000000  0.0000000  3
  11248  11244  11250  11251     1  0.0000000  0.6973333  3
  11249  11244  11230  11252     1  0.0000000  1.0460000  1
  11249  11244  11230  11252     1  0.0000000  0.0000000  3
  11249  11244  11250  11251     1  0.0000000  0.6973333  3
  11253  11254  11257  11261     1  0.0000000  0.6508444  3
  11253  11254  11266  11269     1  0.0000000  1.0460000  1
  11253  11254  11266  11269     1  0.0000000  0.6694400  3
  11253  11267  11273  11274     1  0.0000000  1.0460000  1
  11253  11267  11273  11274     1  0.0000000  0.6694400  3
  11253  11275  11259  11262     1  0.0000000  1.6038667  3
  11254  11257  11258  11260     1  0.0000000  0.6508444  3
  11254  11257  11265  11268     1  0.0000000  1.0460000  1
  11254  11257  11265  11268     1  0.0000000  0.6694400  3
  11254  11253  11267  11271     1  0.0000000  0.6508444  3
  11254  11253  11267  11272     1  0.0000000  0.6508444  3
  11255  11253  11254  11257     1  0.0000000  0.6508444  3
  11255  11253  11254  11266     1  0.0000000  1.0460000  1
  11255  11253  11254  11266     1  0.0000000  0.0000000  3
  11255  11253  11254  11256     1  0.0000000  0.6508444  3
  11255  11253  11267  11273     1  0.0000000  1.0460000  1
  11255  11253  11267  11273     1  0.0000000  0.0000000  3
  11255  11253  11267  11271     1  0.0000000  0.6508444  3
  11255  11253  11267  11272     1  0.0000000  0.6508444  3
  11255  11253  11275  11259     1  0.0000000  1.6038667  3
  11256  11254  11257  11258     1  0.0000000  0.6508444  3
  11256  11254  11257  11265     1  0.0000000  1.0460000  1
  11256  11254  11257  11265     1  0.0000000  0.0000000  3
  11256  11254  11257  11261     1  0.0000000  0.6508444  3
  11256  11254  11266  11269     1  0.0000000  0.6973333  3
  11256  11254  11253  11267     1  0.0000000  0.6508444  3
  11256  11254  11253  11275     1  0.0000000  1.0460000  1
  11256  11254  11253  11275     1  0.0000000  0.0000000  3
  11257  11258  11259  11262     1  0.0000000  0.6508444  3
  11257  11258  11264  11270     1  0.0000000  1.0460000  1
  11257  11258  11264  11270     1  0.0000000  0.6694400  3
  11257  11254  11266  11269     1  0.0000000  1.0460000  1
  11257  11254  11266  11269     1  0.0000000  0.6694400  3
  11258  11257  11265  11268     1  0.0000000  1.0460000  1
  11258  11257  11265  11268     1  0.0000000  0.6694400  3
  11259  11258  11264  11270     1  0.0000000  1.0460000  1
  11259  11258  11264  11270     1  0.0000000  0.6694400  3
  11259  11258  11257  11261     1  0.0000000  0.6508444  3
  11260  11258  11259  11263     1  0.0000000  1.0460000  1
  11260  11258  11259  11263     1  0.0000000  0.0000000  3
  11260  11258  11259  11275     1  0.0000000  1.0460000  1
  11260  11258  11259  11275     1  0.0000000  0.0000000  3
  11260  11258  11259  11262     1  0.0000000  0.6508444  3
  11260  11258  11264  11270     1  0.0000000  0.6973333  3
  11260  11258  11257  11265     1  0.0000000  1.0460000  1
  11260  11258  11257  11265     1  0.0000000  0.0000000  3
  11260  11258  11257  11261     1  0.0000000  0.6508444  3
  11261  11257  11258  11264     1  0.0000000  1.0460000  1
  11261  11257  11258  11264     1  0.0000000  0.0000000  3
  11261  11257  11265  11268     1  0.0000000  0.6973333  3
  11261  11257  11254  11266     1  0.0000000  1.0460000  1
  11261  11257  11254  11266     1  0.0000000  0.0000000  3
  11262  11259  11258  11264     1  0.0000000  0.6508444  3
  11271  11267  11273  11274     1  0.0000000  0.6973333  3
  11271  11267  11253  11275     1  0.0000000  1.0460000  1
  11271  11267  11253  11275     1  0.0000000  0.0000000  3
  11272  11267  11273  11274     1  0.0000000  0.6973333  3
  11272  11267  11253  11275     1  0.0000000  1.0460000  1
  11272  11267  11253  11275     1  0.0000000  0.0000000  3
  11276  11277  11280  11284     1  0.0000000  0.6508444  3
  11276  11277  11289  11292     1  0.0000000  1.0460000  1
  11276  11277  11289  11292     1  0.0000000  0.6694400  3
  11276  11290  11296  11297     1  0.0000000  1.0460000  1
  11276  11290  11296  11297     1  0.0000000  0.6694400  3
  11276  11298  11282  11285     1  0.0000000  1.6038667  3
  11277  11276  11290  11294     1  0.0000000  0.6508444  3
  11277  11276  11290  11295     1  0.0000000  0.6508444  3
  11277  11280  11281  11283     1  0.0000000  0.6508444  3
  11277  11280  11288  11291     1  0.0000000  1.0460000  1
  11277  11280  11288  11291     1  0.0000000  0.6694400  3
  11278  11276  11277  11280     1  0.0000000  0.6508444  3
  11278  11276  11277  11289     1  0.0000000  1.0460000  1
  11278  11276  11277  11289     1  0.0000000  0.0000000  3
  11278  11276  11277  11279     1  0.0000000  0.6508444  3
  11278  11276  11290  11296     1  0.0000000  1.0460000  1
  11278  11276  11290  11296     1  0.0000000  0.0000000  3
  11278  11276  11290  11294     1  0.0000000  0.6508444  3
  11278  11276  11290  11295     1  0.0000000  0.6508444  3
  11278  11276  11298  11282     1  0.0000000  1.6038667  3
  11279  11277  11276  11290     1  0.0000000  0.6508444  3
  11279  11277  11276  11298     1  0.0000000  1.0460000  1
  11279  11277  11276  11298     1  0.0000000  0.0000000  3
  11279  11277  11280  11281     1  0.0000000  0.6508444  3
  11279  11277  11280  11288     1  0.0000000  1.0460000  1
  11279  11277  11280  11288     1  0.0000000  0.0000000  3
  11279  11277  11280  11284     1  0.0000000  0.6508444  3
  11279  11277  11289  11292     1  0.0000000  0.6973333  3
  11280  11277  11289  11292     1  0.0000000  1.0460000  1
  11280  11277  11289  11292     1  0.0000000  0.6694400  3
  11280  11281  11282  11285     1  0.0000000  0.6508444  3
  11280  11281  11287  11293     1  0.0000000  1.0460000  1
  11280  11281  11287  11293     1  0.0000000  0.6694400  3
  11281  11280  11288  11291     1  0.0000000  1.0460000  1
  11281  11280  11288  11291     1  0.0000000  0.6694400  3
  11282  11281  11280  11284     1  0.0000000  0.6508444  3
  11282  11281  11287  11293     1  0.0000000  1.0460000  1
  11282  11281  11287  11293     1  0.0000000  0.6694400  3
  11283  11281  11280  11288     1  0.0000000  1.0460000  1
  11283  11281  11280  11288     1  0.0000000  0.0000000  3
  11283  11281  11280  11284     1  0.0000000  0.6508444  3
  11283  11281  11282  11286     1  0.0000000  1.0460000  1
  11283  11281  11282  11286     1  0.0000000  0.0000000  3
  11283  11281  11282  11298     1  0.0000000  1.0460000  1
  11283  11281  11282  11298     1  0.0000000  0.0000000  3
  11283  11281  11282  11285     1  0.0000000  0.6508444  3
  11283  11281  11287  11293     1  0.0000000  0.6973333  3
  11284  11280  11277  11289     1  0.0000000  1.0460000  1
  11284  11280  11277  11289     1  0.0000000  0.0000000  3
  11284  11280  11281  11287     1  0.0000000  1.0460000  1
  11284  11280  11281  11287     1  0.0000000  0.0000000  3
  11284  11280  11288  11291     1  0.0000000  0.6973333  3
  11285  11282  11281  11287     1  0.0000000  0.6508444  3
  11294  11290  11276  11298     1  0.0000000  1.0460000  1
  11294  11290  11276  11298     1  0.0000000  0.0000000  3
  11294  11290  11296  11297     1  0.0000000  0.6973333  3
  11295  11290  11276  11298     1  0.0000000  1.0460000  1
  11295  11290  11276  11298     1  0.0000000  0.0000000  3
  11295  11290  11296  11297     1  0.0000000  0.6973333  3
  11299  11300  11303  11307     1  0.0000000  0.6508444  3
  11299  11300  11312  11315     1  0.0000000  1.0460000  1
  11299  11300  11312  11315     1  0.0000000  0.6694400  3
  11299  11313  11319  11320     1  0.0000000  1.0460000  1
  11299  11313  11319  11320     1  0.0000000  0.6694400  3
  11299  11321  11305  11308     1  0.0000000  1.6038667  3
  11300  11303  11304  11306     1  0.0000000  0.6508444  3
  11300  11303  11311  11314     1  0.0000000  1.0460000  1
  11300  11303  11311  11314     1  0.0000000  0.6694400  3
  11300  11299  11313  11317     1  0.0000000  0.6508444  3
  11300  11299  11313  11318     1  0.0000000  0.6508444  3
  11301  11299  11300  11303     1  0.0000000  0.6508444  3
  11301  11299  11300  11312     1  0.0000000  1.0460000  1
  11301  11299  11300  11312     1  0.0000000  0.0000000  3
  11301  11299  11300  11302     1  0.0000000  0.6508444  3
  11301  11299  11313  11319     1  0.0000000  1.0460000  1
  11301  11299  11313  11319     1  0.0000000  0.0000000  3
  11301  11299  11313  11317     1  0.0000000  0.6508444  3
  11301  11299  11313  11318     1  0.0000000  0.6508444  3
  11301  11299  11321  11305     1  0.0000000  1.6038667  3
  11302  11300  11303  11304     1  0.0000000  0.6508444  3
  11302  11300  11303  11311     1  0.0000000  1.0460000  1
  11302  11300  11303  11311     1  0.0000000  0.0000000  3
  11302  11300  11303  11307     1  0.0000000  0.6508444  3
  11302  11300  11312  11315     1  0.0000000  0.6973333  3
  11302  11300  11299  11313     1  0.0000000  0.6508444  3
  11302  11300  11299  11321     1  0.0000000  1.0460000  1
  11302  11300  11299  11321     1  0.0000000  0.0000000  3
  11303  11304  11305  11308     1  0.0000000  0.6508444  3
  11303  11304  11310  11316     1  0.0000000  1.0460000  1
  11303  11304  11310  11316     1  0.0000000  0.6694400  3
  11303  11300  11312  11315     1  0.0000000  1.0460000  1
  11303  11300  11312  11315     1  0.0000000  0.6694400  3
  11304  11303  11311  11314     1  0.0000000  1.0460000  1
  11304  11303  11311  11314     1  0.0000000  0.6694400  3
  11305  11304  11310  11316     1  0.0000000  1.0460000  1
  11305  11304  11310  11316     1  0.0000000  0.6694400  3
  11305  11304  11303  11307     1  0.0000000  0.6508444  3
  11306  11304  11305  11309     1  0.0000000  1.0460000  1
  11306  11304  11305  11309     1  0.0000000  0.0000000  3
  11306  11304  11305  11321     1  0.0000000  1.0460000  1
  11306  11304  11305  11321     1  0.0000000  0.0000000  3
  11306  11304  11305  11308     1  0.0000000  0.6508444  3
  11306  11304  11310  11316     1  0.0000000  0.6973333  3
  11306  11304  11303  11311     1  0.0000000  1.0460000  1
  11306  11304  11303  11311     1  0.0000000  0.0000000  3
  11306  11304  11303  11307     1  0.0000000  0.6508444  3
  11307  11303  11304  11310     1  0.0000000  1.0460000  1
  11307  11303  11304  11310     1  0.0000000  0.0000000  3
  11307  11303  11311  11314     1  0.0000000  0.6973333  3
  11307  11303  11300  11312     1  0.0000000  1.0460000  1
  11307  11303  11300  11312     1  0.0000000  0.0000000  3
  11308  11305  11304  11310     1  0.0000000  0.6508444  3
  11317  11313  11319  11320     1  0.0000000  0.6973333  3
  11317  11313  11299  11321     1  0.0000000  1.0460000  1
  11317  11313  11299  11321     1  0.0000000  0.0000000  3
  11318  11313  11319  11320     1  0.0000000  0.6973333  3
  11318  11313  11299  11321     1  0.0000000  1.0460000  1
  11318  11313  11299  11321     1  0.0000000  0.0000000  3
  11322  11323  11326  11330     1  0.0000000  0.6508444  3
  11322  11323  11335  11338     1  0.0000000  1.0460000  1
  11322  11323  11335  11338     1  0.0000000  0.6694400  3
  11322  11336  11342  11343     1  0.0000000  1.0460000  1
  11322  11336  11342  11343     1  0.0000000  0.6694400  3
  11322  11344  11328  11331     1  0.0000000  1.6038667  3
  11323  11322  11336  11340     1  0.0000000  0.6508444  3
  11323  11322  11336  11341     1  0.0000000  0.6508444  3
  11323  11326  11327  11329     1  0.0000000  0.6508444  3
  11323  11326  11334  11337     1  0.0000000  1.0460000  1
  11323  11326  11334  11337     1  0.0000000  0.6694400  3
  11324  11322  11323  11326     1  0.0000000  0.6508444  3
  11324  11322  11323  11335     1  0.0000000  1.0460000  1
  11324  11322  11323  11335     1  0.0000000  0.0000000  3
  11324  11322  11323  11325     1  0.0000000  0.6508444  3
  11324  11322  11336  11342     1  0.0000000  1.0460000  1
  11324  11322  11336  11342     1  0.0000000  0.0000000  3
  11324  11322  11336  11340     1  0.0000000  0.6508444  3
  11324  11322  11336  11341     1  0.0000000  0.6508444  3
  11324  11322  11344  11328     1  0.0000000  1.6038667  3
  11325  11323  11322  11336     1  0.0000000  0.6508444  3
  11325  11323  11322  11344     1  0.0000000  1.0460000  1
  11325  11323  11322  11344     1  0.0000000  0.0000000  3
  11325  11323  11326  11327     1  0.0000000  0.6508444  3
  11325  11323  11326  11334     1  0.0000000  1.0460000  1
  11325  11323  11326  11334     1  0.0000000  0.0000000  3
  11325  11323  11326  11330     1  0.0000000  0.6508444  3
  11325  11323  11335  11338     1  0.0000000  0.6973333  3
  11326  11323  11335  11338     1  0.0000000  1.0460000  1
  11326  11323  11335  11338     1  0.0000000  0.6694400  3
  11326  11327  11328  11331     1  0.0000000  0.6508444  3
  11326  11327  11333  11339     1  0.0000000  1.0460000  1
  11326  11327  11333  11339     1  0.0000000  0.6694400  3
  11327  11326  11334  11337     1  0.0000000  1.0460000  1
  11327  11326  11334  11337     1  0.0000000  0.6694400  3
  11328  11327  11326  11330     1  0.0000000  0.6508444  3
  11328  11327  11333  11339     1  0.0000000  1.0460000  1
  11328  11327  11333  11339     1  0.0000000  0.6694400  3
  11329  11327  11326  11334     1  0.0000000  1.0460000  1
  11329  11327  11326  11334     1  0.0000000  0.0000000  3
  11329  11327  11326  11330     1  0.0000000  0.6508444  3
  11329  11327  11328  11332     1  0.0000000  1.0460000  1
  11329  11327  11328  11332     1  0.0000000  0.0000000  3
  11329  11327  11328  11344     1  0.0000000  1.0460000  1
  11329  11327  11328  11344     1  0.0000000  0.0000000  3
  11329  11327  11328  11331     1  0.0000000  0.6508444  3
  11329  11327  11333  11339     1  0.0000000  0.6973333  3
  11330  11326  11323  11335     1  0.0000000  1.0460000  1
  11330  11326  11323  11335     1  0.0000000  0.0000000  3
  11330  11326  11327  11333     1  0.0000000  1.0460000  1
  11330  11326  11327  11333     1  0.0000000  0.0000000  3
  11330  11326  11334  11337     1  0.0000000  0.6973333  3
  11331  11328  11327  11333     1  0.0000000  0.6508444  3
  11340  11336  11322  11344     1  0.0000000  1.0460000  1
  11340  11336  11322  11344     1  0.0000000  0.0000000  3
  11340  11336  11342  11343     1  0.0000000  0.6973333  3
  11341  11336  11322  11344     1  0.0000000  1.0460000  1
  11341  11336  11322  11344     1  0.0000000  0.0000000  3
  11341  11336  11342  11343     1  0.0000000  0.6973333  3
  11345  11346  11349  11353     1  0.0000000  0.6508444  3
  11345  11346  11358  11361     1  0.0000000  1.0460000  1
  11345  11346  11358  11361     1  0.0000000  0.6694400  3
  11345  11359  11365  11366     1  0.0000000  1.0460000  1
  11345  11359  11365  11366     1  0.0000000  0.6694400  3
  11345  11367  11351  11354     1  0.0000000  1.6038667  3
  11346  11349  11350  11352     1  0.0000000  0.6508444  3
  11346  11349  11357  11360     1  0.0000000  1.0460000  1
  11346  11349  11357  11360     1  0.0000000  0.6694400  3
  11346  11345  11359  11363     1  0.0000000  0.6508444  3
  11346  11345  11359  11364     1  0.0000000  0.6508444  3
  11347  11345  11346  11349     1  0.0000000  0.6508444  3
  11347  11345  11346  11358     1  0.0000000  1.0460000  1
  11347  11345  11346  11358     1  0.0000000  0.0000000  3
  11347  11345  11346  11348     1  0.0000000  0.6508444  3
  11347  11345  11359  11365     1  0.0000000  1.0460000  1
  11347  11345  11359  11365     1  0.0000000  0.0000000  3
  11347  11345  11359  11363     1  0.0000000  0.6508444  3
  11347  11345  11359  11364     1  0.0000000  0.6508444  3
  11347  11345  11367  11351     1  0.0000000  1.6038667  3
  11348  11346  11349  11350     1  0.0000000  0.6508444  3
  11348  11346  11349  11357     1  0.0000000  1.0460000  1
  11348  11346  11349  11357     1  0.0000000  0.0000000  3
  11348  11346  11349  11353     1  0.0000000  0.6508444  3
  11348  11346  11358  11361     1  0.0000000  0.6973333  3
  11348  11346  11345  11359     1  0.0000000  0.6508444  3
  11348  11346  11345  11367     1  0.0000000  1.0460000  1
  11348  11346  11345  11367     1  0.0000000  0.0000000  3
  11349  11350  11351  11354     1  0.0000000  0.6508444  3
  11349  11350  11356  11362     1  0.0000000  1.0460000  1
  11349  11350  11356  11362     1  0.0000000  0.6694400  3
  11349  11346  11358  11361     1  0.0000000  1.0460000  1
  11349  11346  11358  11361     1  0.0000000  0.6694400  3
  11350  11349  11357  11360     1  0.0000000  1.0460000  1
  11350  11349  11357  11360     1  0.0000000  0.6694400  3
  11351  11350  11356  11362     1  0.0000000  1.0460000  1
  11351  11350  11356  11362     1  0.0000000  0.6694400  3
  11351  11350  11349  11353     1  0.0000000  0.6508444  3
  11352  11350  11351  11355     1  0.0000000  1.0460000  1
  11352  11350  11351  11355     1  0.0000000  0.0000000  3
  11352  11350  11351  11367     1  0.0000000  1.0460000  1
  11352  11350  11351  11367     1  0.0000000  0.0000000  3
  11352  11350  11351  11354     1  0.0000000  0.6508444  3
  11352  11350  11356  11362     1  0.0000000  0.6973333  3
  11352  11350  11349  11357     1  0.0000000  1.0460000  1
  11352  11350  11349  11357     1  0.0000000  0.0000000  3
  11352  11350  11349  11353     1  0.0000000  0.6508444  3
  11353  11349  11350  11356     1  0.0000000  1.0460000  1
  11353  11349  11350  11356     1  0.0000000  0.0000000  3
  11353  11349  11357  11360     1  0.0000000  0.6973333  3
  11353  11349  11346  11358     1  0.0000000  1.0460000  1
  11353  11349  11346  11358     1  0.0000000  0.0000000  3
  11354  11351  11350  11356     1  0.0000000  0.6508444  3
  11363  11359  11365  11366     1  0.0000000  0.6973333  3
  11363  11359  11345  11367     1  0.0000000  1.0460000  1
  11363  11359  11345  11367     1  0.0000000  0.0000000  3
  11364  11359  11365  11366     1  0.0000000  0.6973333  3
  11364  11359  11345  11367     1  0.0000000  1.0460000  1
  11364  11359  11345  11367     1  0.0000000  0.0000000  3
  11368  11369  11372  11376     1  0.0000000  0.6508444  3
  11368  11369  11381  11384     1  0.0000000  1.0460000  1
  11368  11369  11381  11384     1  0.0000000  0.6694400  3
  11368  11382  11388  11389     1  0.0000000  1.0460000  1
  11368  11382  11388  11389     1  0.0000000  0.6694400  3
  11368  11390  11374  11377     1  0.0000000  1.6038667  3
  11369  11368  11382  11386     1  0.0000000  0.6508444  3
  11369  11368  11382  11387     1  0.0000000  0.6508444  3
  11369  11372  11373  11375     1  0.0000000  0.6508444  3
  11369  11372  11380  11383     1  0.0000000  1.0460000  1
  11369  11372  11380  11383     1  0.0000000  0.6694400  3
  11370  11368  11369  11372     1  0.0000000  0.6508444  3
  11370  11368  11369  11381     1  0.0000000  1.0460000  1
  11370  11368  11369  11381     1  0.0000000  0.0000000  3
  11370  11368  11369  11371     1  0.0000000  0.6508444  3
  11370  11368  11382  11388     1  0.0000000  1.0460000  1
  11370  11368  11382  11388     1  0.0000000  0.0000000  3
  11370  11368  11382  11386     1  0.0000000  0.6508444  3
  11370  11368  11382  11387     1  0.0000000  0.6508444  3
  11370  11368  11390  11374     1  0.0000000  1.6038667  3
  11371  11369  11368  11382     1  0.0000000  0.6508444  3
  11371  11369  11368  11390     1  0.0000000  1.0460000  1
  11371  11369  11368  11390     1  0.0000000  0.0000000  3
  11371  11369  11372  11373     1  0.0000000  0.6508444  3
  11371  11369  11372  11380     1  0.0000000  1.0460000  1
  11371  11369  11372  11380     1  0.0000000  0.0000000  3
  11371  11369  11372  11376     1  0.0000000  0.6508444  3
  11371  11369  11381  11384     1  0.0000000  0.6973333  3
  11372  11369  11381  11384     1  0.0000000  1.0460000  1
  11372  11369  11381  11384     1  0.0000000  0.6694400  3
  11372  11373  11374  11377     1  0.0000000  0.6508444  3
  11372  11373  11379  11385     1  0.0000000  1.0460000  1
  11372  11373  11379  11385     1  0.0000000  0.6694400  3
  11373  11372  11380  11383     1  0.0000000  1.0460000  1
  11373  11372  11380  11383     1  0.0000000  0.6694400  3
  11374  11373  11372  11376     1  0.0000000  0.6508444  3
  11374  11373  11379  11385     1  0.0000000  1.0460000  1
  11374  11373  11379  11385     1  0.0000000  0.6694400  3
  11375  11373  11372  11380     1  0.0000000  1.0460000  1
  11375  11373  11372  11380     1  0.0000000  0.0000000  3
  11375  11373  11372  11376     1  0.0000000  0.6508444  3
  11375  11373  11374  11378     1  0.0000000  1.0460000  1
  11375  11373  11374  11378     1  0.0000000  0.0000000  3
  11375  11373  11374  11390     1  0.0000000  1.0460000  1
  11375  11373  11374  11390     1  0.0000000  0.0000000  3
  11375  11373  11374  11377     1  0.0000000  0.6508444  3
  11375  11373  11379  11385     1  0.0000000  0.6973333  3
  11376  11372  11369  11381     1  0.0000000  1.0460000  1
  11376  11372  11369  11381     1  0.0000000  0.0000000  3
  11376  11372  11373  11379     1  0.0000000  1.0460000  1
  11376  11372  11373  11379     1  0.0000000  0.0000000  3
  11376  11372  11380  11383     1  0.0000000  0.6973333  3
  11377  11374  11373  11379     1  0.0000000  0.6508444  3
  11386  11382  11368  11390     1  0.0000000  1.0460000  1
  11386  11382  11368  11390     1  0.0000000  0.0000000  3
  11386  11382  11388  11389     1  0.0000000  0.6973333  3
  11387  11382  11368  11390     1  0.0000000  1.0460000  1
  11387  11382  11368  11390     1  0.0000000  0.0000000  3
  11387  11382  11388  11389     1  0.0000000  0.6973333  3
  11391  11392  11395  11399     1  0.0000000  0.6508444  3
  11391  11392  11404  11407     1  0.0000000  1.0460000  1
  11391  11392  11404  11407     1  0.0000000  0.6694400  3
  11391  11405  11411  11412     1  0.0000000  1.0460000  1
  11391  11405  11411  11412     1  0.0000000  0.6694400  3
  11391  11413  11397  11400     1  0.0000000  1.6038667  3
  11392  11395  11396  11398     1  0.0000000  0.6508444  3
  11392  11395  11403  11406     1  0.0000000  1.0460000  1
  11392  11395  11403  11406     1  0.0000000  0.6694400  3
  11392  11391  11405  11409     1  0.0000000  0.6508444  3
  11392  11391  11405  11410     1  0.0000000  0.6508444  3
  11393  11391  11392  11395     1  0.0000000  0.6508444  3
  11393  11391  11392  11404     1  0.0000000  1.0460000  1
  11393  11391  11392  11404     1  0.0000000  0.0000000  3
  11393  11391  11392  11394     1  0.0000000  0.6508444  3
  11393  11391  11405  11411     1  0.0000000  1.0460000  1
  11393  11391  11405  11411     1  0.0000000  0.0000000  3
  11393  11391  11405  11409     1  0.0000000  0.6508444  3
  11393  11391  11405  11410     1  0.0000000  0.6508444  3
  11393  11391  11413  11397     1  0.0000000  1.6038667  3
  11394  11392  11395  11396     1  0.0000000  0.6508444  3
  11394  11392  11395  11403     1  0.0000000  1.0460000  1
  11394  11392  11395  11403     1  0.0000000  0.0000000  3
  11394  11392  11395  11399     1  0.0000000  0.6508444  3
  11394  11392  11404  11407     1  0.0000000  0.6973333  3
  11394  11392  11391  11405     1  0.0000000  0.6508444  3
  11394  11392  11391  11413     1  0.0000000  1.0460000  1
  11394  11392  11391  11413     1  0.0000000  0.0000000  3
  11395  11396  11397  11400     1  0.0000000  0.6508444  3
  11395  11396  11402  11408     1  0.0000000  1.0460000  1
  11395  11396  11402  11408     1  0.0000000  0.6694400  3
  11395  11392  11404  11407     1  0.0000000  1.0460000  1
  11395  11392  11404  11407     1  0.0000000  0.6694400  3
  11396  11395  11403  11406     1  0.0000000  1.0460000  1
  11396  11395  11403  11406     1  0.0000000  0.6694400  3
  11397  11396  11402  11408     1  0.0000000  1.0460000  1
  11397  11396  11402  11408     1  0.0000000  0.6694400  3
  11397  11396  11395  11399     1  0.0000000  0.6508444  3
  11398  11396  11397  11401     1  0.0000000  1.0460000  1
  11398  11396  11397  11401     1  0.0000000  0.0000000  3
  11398  11396  11397  11413     1  0.0000000  1.0460000  1
  11398  11396  11397  11413     1  0.0000000  0.0000000  3
  11398  11396  11397  11400     1  0.0000000  0.6508444  3
  11398  11396  11402  11408     1  0.0000000  0.6973333  3
  11398  11396  11395  11403     1  0.0000000  1.0460000  1
  11398  11396  11395  11403     1  0.0000000  0.0000000  3
  11398  11396  11395  11399     1  0.0000000  0.6508444  3
  11399  11395  11396  11402     1  0.0000000  1.0460000  1
  11399  11395  11396  11402     1  0.0000000  0.0000000  3
  11399  11395  11403  11406     1  0.0000000  0.6973333  3
  11399  11395  11392  11404     1  0.0000000  1.0460000  1
  11399  11395  11392  11404     1  0.0000000  0.0000000  3
  11400  11397  11396  11402     1  0.0000000  0.6508444  3
  11409  11405  11411  11412     1  0.0000000  0.6973333  3
  11409  11405  11391  11413     1  0.0000000  1.0460000  1
  11409  11405  11391  11413     1  0.0000000  0.0000000  3
  11410  11405  11411  11412     1  0.0000000  0.6973333  3
  11410  11405  11391  11413     1  0.0000000  1.0460000  1
  11410  11405  11391  11413     1  0.0000000  0.0000000  3
  11414  11415  11418  11422     1  0.0000000  0.6508444  3
  11414  11415  11427  11430     1  0.0000000  1.0460000  1
  11414  11415  11427  11430     1  0.0000000  0.6694400  3
  11414  11428  11434  11435     1  0.0000000  1.0460000  1
  11414  11428  11434  11435     1  0.0000000  0.6694400  3
  11414  11436  11420  11423     1  0.0000000  1.6038667  3
  11415  11414  11428  11432     1  0.0000000  0.6508444  3
  11415  11414  11428  11433     1  0.0000000  0.6508444  3
  11415  11418  11419  11421     1  0.0000000  0.6508444  3
  11415  11418  11426  11429     1  0.0000000  1.0460000  1
  11415  11418  11426  11429     1  0.0000000  0.6694400  3
  11416  11414  11415  11418     1  0.0000000  0.6508444  3
  11416  11414  11415  11427     1  0.0000000  1.0460000  1
  11416  11414  11415  11427     1  0.0000000  0.0000000  3
  11416  11414  11415  11417     1  0.0000000  0.6508444  3
  11416  11414  11428  11434     1  0.0000000  1.0460000  1
  11416  11414  11428  11434     1  0.0000000  0.0000000  3
  11416  11414  11428  11432     1  0.0000000  0.6508444  3
  11416  11414  11428  11433     1  0.0000000  0.6508444  3
  11416  11414  11436  11420     1  0.0000000  1.6038667  3
  11417  11415  11414  11428     1  0.0000000  0.6508444  3
  11417  11415  11414  11436     1  0.0000000  1.0460000  1
  11417  11415  11414  11436     1  0.0000000  0.0000000  3
  11417  11415  11418  11419     1  0.0000000  0.6508444  3
  11417  11415  11418  11426     1  0.0000000  1.0460000  1
  11417  11415  11418  11426     1  0.0000000  0.0000000  3
  11417  11415  11418  11422     1  0.0000000  0.6508444  3
  11417  11415  11427  11430     1  0.0000000  0.6973333  3
  11418  11415  11427  11430     1  0.0000000  1.0460000  1
  11418  11415  11427  11430     1  0.0000000  0.6694400  3
  11418  11419  11420  11423     1  0.0000000  0.6508444  3
  11418  11419  11425  11431     1  0.0000000  1.0460000  1
  11418  11419  11425  11431     1  0.0000000  0.6694400  3
  11419  11418  11426  11429     1  0.0000000  1.0460000  1
  11419  11418  11426  11429     1  0.0000000  0.6694400  3
  11420  11419  11418  11422     1  0.0000000  0.6508444  3
  11420  11419  11425  11431     1  0.0000000  1.0460000  1
  11420  11419  11425  11431     1  0.0000000  0.6694400  3
  11421  11419  11418  11426     1  0.0000000  1.0460000  1
  11421  11419  11418  11426     1  0.0000000  0.0000000  3
  11421  11419  11418  11422     1  0.0000000  0.6508444  3
  11421  11419  11420  11424     1  0.0000000  1.0460000  1
  11421  11419  11420  11424     1  0.0000000  0.0000000  3
  11421  11419  11420  11436     1  0.0000000  1.0460000  1
  11421  11419  11420  11436     1  0.0000000  0.0000000  3
  11421  11419  11420  11423     1  0.0000000  0.6508444  3
  11421  11419  11425  11431     1  0.0000000  0.6973333  3
  11422  11418  11415  11427     1  0.0000000  1.0460000  1
  11422  11418  11415  11427     1  0.0000000  0.0000000  3
  11422  11418  11419  11425     1  0.0000000  1.0460000  1
  11422  11418  11419  11425     1  0.0000000  0.0000000  3
  11422  11418  11426  11429     1  0.0000000  0.6973333  3
  11423  11420  11419  11425     1  0.0000000  0.6508444  3
  11432  11428  11414  11436     1  0.0000000  1.0460000  1
  11432  11428  11414  11436     1  0.0000000  0.0000000  3
  11432  11428  11434  11435     1  0.0000000  0.6973333  3
  11433  11428  11414  11436     1  0.0000000  1.0460000  1
  11433  11428  11414  11436     1  0.0000000  0.0000000  3
  11433  11428  11434  11435     1  0.0000000  0.6973333  3
  11437  11438  11441  11445     1  0.0000000  0.6508444  3
  11437  11438  11450  11453     1  0.0000000  1.0460000  1
  11437  11438  11450  11453     1  0.0000000  0.6694400  3
  11437  11451  11457  11458     1  0.0000000  1.0460000  1
  11437  11451  11457  11458     1  0.0000000  0.6694400  3
  11437  11459  11443  11446     1  0.0000000  1.6038667  3
  11438  11441  11442  11444     1  0.0000000  0.6508444  3
  11438  11441  11449  11452     1  0.0000000  1.0460000  1
  11438  11441  11449  11452     1  0.0000000  0.6694400  3
  11438  11437  11451  11455     1  0.0000000  0.6508444  3
  11438  11437  11451  11456     1  0.0000000  0.6508444  3
  11439  11437  11438  11441     1  0.0000000  0.6508444  3
  11439  11437  11438  11450     1  0.0000000  1.0460000  1
  11439  11437  11438  11450     1  0.0000000  0.0000000  3
  11439  11437  11438  11440     1  0.0000000  0.6508444  3
  11439  11437  11451  11457     1  0.0000000  1.0460000  1
  11439  11437  11451  11457     1  0.0000000  0.0000000  3
  11439  11437  11451  11455     1  0.0000000  0.6508444  3
  11439  11437  11451  11456     1  0.0000000  0.6508444  3
  11439  11437  11459  11443     1  0.0000000  1.6038667  3
  11440  11438  11441  11442     1  0.0000000  0.6508444  3
  11440  11438  11441  11449     1  0.0000000  1.0460000  1
  11440  11438  11441  11449     1  0.0000000  0.0000000  3
  11440  11438  11441  11445     1  0.0000000  0.6508444  3
  11440  11438  11450  11453     1  0.0000000  0.6973333  3
  11440  11438  11437  11451     1  0.0000000  0.6508444  3
  11440  11438  11437  11459     1  0.0000000  1.0460000  1
  11440  11438  11437  11459     1  0.0000000  0.0000000  3
  11441  11442  11443  11446     1  0.0000000  0.6508444  3
  11441  11442  11448  11454     1  0.0000000  1.0460000  1
  11441  11442  11448  11454     1  0.0000000  0.6694400  3
  11441  11438  11450  11453     1  0.0000000  1.0460000  1
  11441  11438  11450  11453     1  0.0000000  0.6694400  3
  11442  11441  11449  11452     1  0.0000000  1.0460000  1
  11442  11441  11449  11452     1  0.0000000  0.6694400  3
  11443  11442  11448  11454     1  0.0000000  1.0460000  1
  11443  11442  11448  11454     1  0.0000000  0.6694400  3
  11443  11442  11441  11445     1  0.0000000  0.6508444  3
  11444  11442  11443  11447     1  0.0000000  1.0460000  1
  11444  11442  11443  11447     1  0.0000000  0.0000000  3
  11444  11442  11443  11459     1  0.0000000  1.0460000  1
  11444  11442  11443  11459     1  0.0000000  0.0000000  3
  11444  11442  11443  11446     1  0.0000000  0.6508444  3
  11444  11442  11448  11454     1  0.0000000  0.6973333  3
  11444  11442  11441  11449     1  0.0000000  1.0460000  1
  11444  11442  11441  11449     1  0.0000000  0.0000000  3
  11444  11442  11441  11445     1  0.0000000  0.6508444  3
  11445  11441  11442  11448     1  0.0000000  1.0460000  1
  11445  11441  11442  11448     1  0.0000000  0.0000000  3
  11445  11441  11449  11452     1  0.0000000  0.6973333  3
  11445  11441  11438  11450     1  0.0000000  1.0460000  1
  11445  11441  11438  11450     1  0.0000000  0.0000000  3
  11446  11443  11442  11448     1  0.0000000  0.6508444  3
  11455  11451  11457  11458     1  0.0000000  0.6973333  3
  11455  11451  11437  11459     1  0.0000000  1.0460000  1
  11455  11451  11437  11459     1  0.0000000  0.0000000  3
  11456  11451  11457  11458     1  0.0000000  0.6973333  3
  11456  11451  11437  11459     1  0.0000000  1.0460000  1
  11456  11451  11437  11459     1  0.0000000  0.0000000  3
  11460  11461  11464  11468     1  0.0000000  0.6508444  3
  11460  11461  11473  11476     1  0.0000000  1.0460000  1
  11460  11461  11473  11476     1  0.0000000  0.6694400  3
  11460  11474  11480  11481     1  0.0000000  1.0460000  1
  11460  11474  11480  11481     1  0.0000000  0.6694400  3
  11460  11482  11466  11469     1  0.0000000  1.6038667  3
  11461  11460  11474  11478     1  0.0000000  0.6508444  3
  11461  11460  11474  11479     1  0.0000000  0.6508444  3
  11461  11464  11465  11467     1  0.0000000  0.6508444  3
  11461  11464  11472  11475     1  0.0000000  1.0460000  1
  11461  11464  11472  11475     1  0.0000000  0.6694400  3
  11462  11460  11461  11464     1  0.0000000  0.6508444  3
  11462  11460  11461  11473     1  0.0000000  1.0460000  1
  11462  11460  11461  11473     1  0.0000000  0.0000000  3
  11462  11460  11461  11463     1  0.0000000  0.6508444  3
  11462  11460  11474  11480     1  0.0000000  1.0460000  1
  11462  11460  11474  11480     1  0.0000000  0.0000000  3
  11462  11460  11474  11478     1  0.0000000  0.6508444  3
  11462  11460  11474  11479     1  0.0000000  0.6508444  3
  11462  11460  11482  11466     1  0.0000000  1.6038667  3
  11463  11461  11460  11474     1  0.0000000  0.6508444  3
  11463  11461  11460  11482     1  0.0000000  1.0460000  1
  11463  11461  11460  11482     1  0.0000000  0.0000000  3
  11463  11461  11464  11465     1  0.0000000  0.6508444  3
  11463  11461  11464  11472     1  0.0000000  1.0460000  1
  11463  11461  11464  11472     1  0.0000000  0.0000000  3
  11463  11461  11464  11468     1  0.0000000  0.6508444  3
  11463  11461  11473  11476     1  0.0000000  0.6973333  3
  11464  11461  11473  11476     1  0.0000000  1.0460000  1
  11464  11461  11473  11476     1  0.0000000  0.6694400  3
  11464  11465  11466  11469     1  0.0000000  0.6508444  3
  11464  11465  11471  11477     1  0.0000000  1.0460000  1
  11464  11465  11471  11477     1  0.0000000  0.6694400  3
  11465  11464  11472  11475     1  0.0000000  1.0460000  1
  11465  11464  11472  11475     1  0.0000000  0.6694400  3
  11466  11465  11464  11468     1  0.0000000  0.6508444  3
  11466  11465  11471  11477     1  0.0000000  1.0460000  1
  11466  11465  11471  11477     1  0.0000000  0.6694400  3
  11467  11465  11464  11472     1  0.0000000  1.0460000  1
  11467  11465  11464  11472     1  0.0000000  0.0000000  3
  11467  11465  11464  11468     1  0.0000000  0.6508444  3
  11467  11465  11466  11470     1  0.0000000  1.0460000  1
  11467  11465  11466  11470     1  0.0000000  0.0000000  3
  11467  11465  11466  11482     1  0.0000000  1.0460000  1
  11467  11465  11466  11482     1  0.0000000  0.0000000  3
  11467  11465  11466  11469     1  0.0000000  0.6508444  3
  11467  11465  11471  11477     1  0.0000000  0.6973333  3
  11468  11464  11461  11473     1  0.0000000  1.0460000  1
  11468  11464  11461  11473     1  0.0000000  0.0000000  3
  11468  11464  11465  11471     1  0.0000000  1.0460000  1
  11468  11464  11465  11471     1  0.0000000  0.0000000  3
  11468  11464  11472  11475     1  0.0000000  0.6973333  3
  11469  11466  11465  11471     1  0.0000000  0.6508444  3
  11478  11474  11460  11482     1  0.0000000  1.0460000  1
  11478  11474  11460  11482     1  0.0000000  0.0000000  3
  11478  11474  11480  11481     1  0.0000000  0.6973333  3
  11479  11474  11460  11482     1  0.0000000  1.0460000  1
  11479  11474  11460  11482     1  0.0000000  0.0000000  3
  11479  11474  11480  11481     1  0.0000000  0.6973333  3
  11483  11484  11487  11491     1  0.0000000  0.6508444  3
  11483  11484  11496  11499     1  0.0000000  1.0460000  1
  11483  11484  11496  11499     1  0.0000000  0.6694400  3
  11483  11497  11503  11504     1  0.0000000  1.0460000  1
  11483  11497  11503  11504     1  0.0000000  0.6694400  3
  11483  11505  11489  11492     1  0.0000000  1.6038667  3
  11484  11487  11488  11490     1  0.0000000  0.6508444  3
  11484  11487  11495  11498     1  0.0000000  1.0460000  1
  11484  11487  11495  11498     1  0.0000000  0.6694400  3
  11484  11483  11497  11501     1  0.0000000  0.6508444  3
  11484  11483  11497  11502     1  0.0000000  0.6508444  3
  11485  11483  11484  11487     1  0.0000000  0.6508444  3
  11485  11483  11484  11496     1  0.0000000  1.0460000  1
  11485  11483  11484  11496     1  0.0000000  0.0000000  3
  11485  11483  11484  11486     1  0.0000000  0.6508444  3
  11485  11483  11497  11503     1  0.0000000  1.0460000  1
  11485  11483  11497  11503     1  0.0000000  0.0000000  3
  11485  11483  11497  11501     1  0.0000000  0.6508444  3
  11485  11483  11497  11502     1  0.0000000  0.6508444  3
  11485  11483  11505  11489     1  0.0000000  1.6038667  3
  11486  11484  11487  11488     1  0.0000000  0.6508444  3
  11486  11484  11487  11495     1  0.0000000  1.0460000  1
  11486  11484  11487  11495     1  0.0000000  0.0000000  3
  11486  11484  11487  11491     1  0.0000000  0.6508444  3
  11486  11484  11496  11499     1  0.0000000  0.6973333  3
  11486  11484  11483  11497     1  0.0000000  0.6508444  3
  11486  11484  11483  11505     1  0.0000000  1.0460000  1
  11486  11484  11483  11505     1  0.0000000  0.0000000  3
  11487  11488  11489  11492     1  0.0000000  0.6508444  3
  11487  11488  11494  11500     1  0.0000000  1.0460000  1
  11487  11488  11494  11500     1  0.0000000  0.6694400  3
  11487  11484  11496  11499     1  0.0000000  1.0460000  1
  11487  11484  11496  11499     1  0.0000000  0.6694400  3
  11488  11487  11495  11498     1  0.0000000  1.0460000  1
  11488  11487  11495  11498     1  0.0000000  0.6694400  3
  11489  11488  11494  11500     1  0.0000000  1.0460000  1
  11489  11488  11494  11500     1  0.0000000  0.6694400  3
  11489  11488  11487  11491     1  0.0000000  0.6508444  3
  11490  11488  11489  11493     1  0.0000000  1.0460000  1
  11490  11488  11489  11493     1  0.0000000  0.0000000  3
  11490  11488  11489  11505     1  0.0000000  1.0460000  1
  11490  11488  11489  11505     1  0.0000000  0.0000000  3
  11490  11488  11489  11492     1  0.0000000  0.6508444  3
  11490  11488  11494  11500     1  0.0000000  0.6973333  3
  11490  11488  11487  11495     1  0.0000000  1.0460000  1
  11490  11488  11487  11495     1  0.0000000  0.0000000  3
  11490  11488  11487  11491     1  0.0000000  0.6508444  3
  11491  11487  11488  11494     1  0.0000000  1.0460000  1
  11491  11487  11488  11494     1  0.0000000  0.0000000  3
  11491  11487  11495  11498     1  0.0000000  0.6973333  3
  11491  11487  11484  11496     1  0.0000000  1.0460000  1
  11491  11487  11484  11496     1  0.0000000  0.0000000  3
  11492  11489  11488  11494     1  0.0000000  0.6508444  3
  11501  11497  11503  11504     1  0.0000000  0.6973333  3
  11501  11497  11483  11505     1  0.0000000  1.0460000  1
  11501  11497  11483  11505     1  0.0000000  0.0000000  3
  11502  11497  11503  11504     1  0.0000000  0.6973333  3
  11502  11497  11483  11505     1  0.0000000  1.0460000  1
  11502  11497  11483  11505     1  0.0000000  0.0000000  3
  11506  11507  11510  11514     1  0.0000000  0.6508444  3
  11506  11507  11519  11522     1  0.0000000  1.0460000  1
  11506  11507  11519  11522     1  0.0000000  0.6694400  3
  11506  11520  11526  11527     1  0.0000000  1.0460000  1
  11506  11520  11526  11527     1  0.0000000  0.6694400  3
  11506  11528  11512  11515     1  0.0000000  1.6038667  3
  11507  11506  11520  11524     1  0.0000000  0.6508444  3
  11507  11506  11520  11525     1  0.0000000  0.6508444  3
  11507  11510  11511  11513     1  0.0000000  0.6508444  3
  11507  11510  11518  11521     1  0.0000000  1.0460000  1
  11507  11510  11518  11521     1  0.0000000  0.6694400  3
  11508  11506  11507  11510     1  0.0000000  0.6508444  3
  11508  11506  11507  11519     1  0.0000000  1.0460000  1
  11508  11506  11507  11519     1  0.0000000  0.0000000  3
  11508  11506  11507  11509     1  0.0000000  0.6508444  3
  11508  11506  11520  11526     1  0.0000000  1.0460000  1
  11508  11506  11520  11526     1  0.0000000  0.0000000  3
  11508  11506  11520  11524     1  0.0000000  0.6508444  3
  11508  11506  11520  11525     1  0.0000000  0.6508444  3
  11508  11506  11528  11512     1  0.0000000  1.6038667  3
  11509  11507  11506  11520     1  0.0000000  0.6508444  3
  11509  11507  11506  11528     1  0.0000000  1.0460000  1
  11509  11507  11506  11528     1  0.0000000  0.0000000  3
  11509  11507  11510  11511     1  0.0000000  0.6508444  3
  11509  11507  11510  11518     1  0.0000000  1.0460000  1
  11509  11507  11510  11518     1  0.0000000  0.0000000  3
  11509  11507  11510  11514     1  0.0000000  0.6508444  3
  11509  11507  11519  11522     1  0.0000000  0.6973333  3
  11510  11507  11519  11522     1  0.0000000  1.0460000  1
  11510  11507  11519  11522     1  0.0000000  0.6694400  3
  11510  11511  11512  11515     1  0.0000000  0.6508444  3
  11510  11511  11517  11523     1  0.0000000  1.0460000  1
  11510  11511  11517  11523     1  0.0000000  0.6694400  3
  11511  11510  11518  11521     1  0.0000000  1.0460000  1
  11511  11510  11518  11521     1  0.0000000  0.6694400  3
  11512  11511  11510  11514     1  0.0000000  0.6508444  3
  11512  11511  11517  11523     1  0.0000000  1.0460000  1
  11512  11511  11517  11523     1  0.0000000  0.6694400  3
  11513  11511  11510  11518     1  0.0000000  1.0460000  1
  11513  11511  11510  11518     1  0.0000000  0.0000000  3
  11513  11511  11510  11514     1  0.0000000  0.6508444  3
  11513  11511  11512  11516     1  0.0000000  1.0460000  1
  11513  11511  11512  11516     1  0.0000000  0.0000000  3
  11513  11511  11512  11528     1  0.0000000  1.0460000  1
  11513  11511  11512  11528     1  0.0000000  0.0000000  3
  11513  11511  11512  11515     1  0.0000000  0.6508444  3
  11513  11511  11517  11523     1  0.0000000  0.6973333  3
  11514  11510  11507  11519     1  0.0000000  1.0460000  1
  11514  11510  11507  11519     1  0.0000000  0.0000000  3
  11514  11510  11511  11517     1  0.0000000  1.0460000  1
  11514  11510  11511  11517     1  0.0000000  0.0000000  3
  11514  11510  11518  11521     1  0.0000000  0.6973333  3
  11515  11512  11511  11517     1  0.0000000  0.6508444  3
  11524  11520  11506  11528     1  0.0000000  1.0460000  1
  11524  11520  11506  11528     1  0.0000000  0.0000000  3
  11524  11520  11526  11527     1  0.0000000  0.6973333  3
  11525  11520  11506  11528     1  0.0000000  1.0460000  1
  11525  11520  11506  11528     1  0.0000000  0.0000000  3
  11525  11520  11526  11527     1  0.0000000  0.6973333  3
  11529  11530  11533  11537     1  0.0000000  0.6508444  3
  11529  11530  11542  11545     1  0.0000000  1.0460000  1
  11529  11530  11542  11545     1  0.0000000  0.6694400  3
  11529  11543  11549  11550     1  0.0000000  1.0460000  1
  11529  11543  11549  11550     1  0.0000000  0.6694400  3
  11529  11551  11535  11538     1  0.0000000  1.6038667  3
  11530  11533  11534  11536     1  0.0000000  0.6508444  3
  11530  11533  11541  11544     1  0.0000000  1.0460000  1
  11530  11533  11541  11544     1  0.0000000  0.6694400  3
  11530  11529  11543  11547     1  0.0000000  0.6508444  3
  11530  11529  11543  11548     1  0.0000000  0.6508444  3
  11531  11529  11530  11533     1  0.0000000  0.6508444  3
  11531  11529  11530  11542     1  0.0000000  1.0460000  1
  11531  11529  11530  11542     1  0.0000000  0.0000000  3
  11531  11529  11530  11532     1  0.0000000  0.6508444  3
  11531  11529  11543  11549     1  0.0000000  1.0460000  1
  11531  11529  11543  11549     1  0.0000000  0.0000000  3
  11531  11529  11543  11547     1  0.0000000  0.6508444  3
  11531  11529  11543  11548     1  0.0000000  0.6508444  3
  11531  11529  11551  11535     1  0.0000000  1.6038667  3
  11532  11530  11533  11534     1  0.0000000  0.6508444  3
  11532  11530  11533  11541     1  0.0000000  1.0460000  1
  11532  11530  11533  11541     1  0.0000000  0.0000000  3
  11532  11530  11533  11537     1  0.0000000  0.6508444  3
  11532  11530  11542  11545     1  0.0000000  0.6973333  3
  11532  11530  11529  11543     1  0.0000000  0.6508444  3
  11532  11530  11529  11551     1  0.0000000  1.0460000  1
  11532  11530  11529  11551     1  0.0000000  0.0000000  3
  11533  11534  11535  11538     1  0.0000000  0.6508444  3
  11533  11534  11540  11546     1  0.0000000  1.0460000  1
  11533  11534  11540  11546     1  0.0000000  0.6694400  3
  11533  11530  11542  11545     1  0.0000000  1.0460000  1
  11533  11530  11542  11545     1  0.0000000  0.6694400  3
  11534  11533  11541  11544     1  0.0000000  1.0460000  1
  11534  11533  11541  11544     1  0.0000000  0.6694400  3
  11535  11534  11540  11546     1  0.0000000  1.0460000  1
  11535  11534  11540  11546     1  0.0000000  0.6694400  3
  11535  11534  11533  11537     1  0.0000000  0.6508444  3
  11536  11534  11535  11539     1  0.0000000  1.0460000  1
  11536  11534  11535  11539     1  0.0000000  0.0000000  3
  11536  11534  11535  11551     1  0.0000000  1.0460000  1
  11536  11534  11535  11551     1  0.0000000  0.0000000  3
  11536  11534  11535  11538     1  0.0000000  0.6508444  3
  11536  11534  11540  11546     1  0.0000000  0.6973333  3
  11536  11534  11533  11541     1  0.0000000  1.0460000  1
  11536  11534  11533  11541     1  0.0000000  0.0000000  3
  11536  11534  11533  11537     1  0.0000000  0.6508444  3
  11537  11533  11534  11540     1  0.0000000  1.0460000  1
  11537  11533  11534  11540     1  0.0000000  0.0000000  3
  11537  11533  11541  11544     1  0.0000000  0.6973333  3
  11537  11533  11530  11542     1  0.0000000  1.0460000  1
  11537  11533  11530  11542     1  0.0000000  0.0000000  3
  11538  11535  11534  11540     1  0.0000000  0.6508444  3
  11547  11543  11549  11550     1  0.0000000  0.6973333  3
  11547  11543  11529  11551     1  0.0000000  1.0460000  1
  11547  11543  11529  11551     1  0.0000000  0.0000000  3
  11548  11543  11549  11550     1  0.0000000  0.6973333  3
  11548  11543  11529  11551     1  0.0000000  1.0460000  1
  11548  11543  11529  11551     1  0.0000000  0.0000000  3
  11552  11553  11556  11560     1  0.0000000  0.6508444  3
  11552  11553  11565  11568     1  0.0000000  1.0460000  1
  11552  11553  11565  11568     1  0.0000000  0.6694400  3
  11552  11566  11572  11573     1  0.0000000  1.0460000  1
  11552  11566  11572  11573     1  0.0000000  0.6694400  3
  11552  11574  11558  11561     1  0.0000000  1.6038667  3
  11553  11552  11566  11570     1  0.0000000  0.6508444  3
  11553  11552  11566  11571     1  0.0000000  0.6508444  3
  11553  11556  11557  11559     1  0.0000000  0.6508444  3
  11553  11556  11564  11567     1  0.0000000  1.0460000  1
  11553  11556  11564  11567     1  0.0000000  0.6694400  3
  11554  11552  11553  11556     1  0.0000000  0.6508444  3
  11554  11552  11553  11565     1  0.0000000  1.0460000  1
  11554  11552  11553  11565     1  0.0000000  0.0000000  3
  11554  11552  11553  11555     1  0.0000000  0.6508444  3
  11554  11552  11566  11572     1  0.0000000  1.0460000  1
  11554  11552  11566  11572     1  0.0000000  0.0000000  3
  11554  11552  11566  11570     1  0.0000000  0.6508444  3
  11554  11552  11566  11571     1  0.0000000  0.6508444  3
  11554  11552  11574  11558     1  0.0000000  1.6038667  3
  11555  11553  11552  11566     1  0.0000000  0.6508444  3
  11555  11553  11552  11574     1  0.0000000  1.0460000  1
  11555  11553  11552  11574     1  0.0000000  0.0000000  3
  11555  11553  11556  11557     1  0.0000000  0.6508444  3
  11555  11553  11556  11564     1  0.0000000  1.0460000  1
  11555  11553  11556  11564     1  0.0000000  0.0000000  3
  11555  11553  11556  11560     1  0.0000000  0.6508444  3
  11555  11553  11565  11568     1  0.0000000  0.6973333  3
  11556  11553  11565  11568     1  0.0000000  1.0460000  1
  11556  11553  11565  11568     1  0.0000000  0.6694400  3
  11556  11557  11558  11561     1  0.0000000  0.6508444  3
  11556  11557  11563  11569     1  0.0000000  1.0460000  1
  11556  11557  11563  11569     1  0.0000000  0.6694400  3
  11557  11556  11564  11567     1  0.0000000  1.0460000  1
  11557  11556  11564  11567     1  0.0000000  0.6694400  3
  11558  11557  11556  11560     1  0.0000000  0.6508444  3
  11558  11557  11563  11569     1  0.0000000  1.0460000  1
  11558  11557  11563  11569     1  0.0000000  0.6694400  3
  11559  11557  11556  11564     1  0.0000000  1.0460000  1
  11559  11557  11556  11564     1  0.0000000  0.0000000  3
  11559  11557  11556  11560     1  0.0000000  0.6508444  3
  11559  11557  11558  11562     1  0.0000000  1.0460000  1
  11559  11557  11558  11562     1  0.0000000  0.0000000  3
  11559  11557  11558  11574     1  0.0000000  1.0460000  1
  11559  11557  11558  11574     1  0.0000000  0.0000000  3
  11559  11557  11558  11561     1  0.0000000  0.6508444  3
  11559  11557  11563  11569     1  0.0000000  0.6973333  3
  11560  11556  11553  11565     1  0.0000000  1.0460000  1
  11560  11556  11553  11565     1  0.0000000  0.0000000  3
  11560  11556  11557  11563     1  0.0000000  1.0460000  1
  11560  11556  11557  11563     1  0.0000000  0.0000000  3
  11560  11556  11564  11567     1  0.0000000  0.6973333  3
  11561  11558  11557  11563     1  0.0000000  0.6508444  3
  11570  11566  11552  11574     1  0.0000000  1.0460000  1
  11570  11566  11552  11574     1  0.0000000  0.0000000  3
  11570  11566  11572  11573     1  0.0000000  0.6973333  3
  11571  11566  11552  11574     1  0.0000000  1.0460000  1
  11571  11566  11552  11574     1  0.0000000  0.0000000  3
  11571  11566  11572  11573     1  0.0000000  0.6973333  3
  11575  11576  11579  11583     1  0.0000000  0.6508444  3
  11575  11576  11588  11591     1  0.0000000  1.0460000  1
  11575  11576  11588  11591     1  0.0000000  0.6694400  3
  11575  11589  11595  11596     1  0.0000000  1.0460000  1
  11575  11589  11595  11596     1  0.0000000  0.6694400  3
  11575  11597  11581  11584     1  0.0000000  1.6038667  3
  11576  11579  11580  11582     1  0.0000000  0.6508444  3
  11576  11579  11587  11590     1  0.0000000  1.0460000  1
  11576  11579  11587  11590     1  0.0000000  0.6694400  3
  11576  11575  11589  11593     1  0.0000000  0.6508444  3
  11576  11575  11589  11594     1  0.0000000  0.6508444  3
  11577  11575  11576  11579     1  0.0000000  0.6508444  3
  11577  11575  11576  11588     1  0.0000000  1.0460000  1
  11577  11575  11576  11588     1  0.0000000  0.0000000  3
  11577  11575  11576  11578     1  0.0000000  0.6508444  3
  11577  11575  11589  11595     1  0.0000000  1.0460000  1
  11577  11575  11589  11595     1  0.0000000  0.0000000  3
  11577  11575  11589  11593     1  0.0000000  0.6508444  3
  11577  11575  11589  11594     1  0.0000000  0.6508444  3
  11577  11575  11597  11581     1  0.0000000  1.6038667  3
  11578  11576  11579  11580     1  0.0000000  0.6508444  3
  11578  11576  11579  11587     1  0.0000000  1.0460000  1
  11578  11576  11579  11587     1  0.0000000  0.0000000  3
  11578  11576  11579  11583     1  0.0000000  0.6508444  3
  11578  11576  11588  11591     1  0.0000000  0.6973333  3
  11578  11576  11575  11589     1  0.0000000  0.6508444  3
  11578  11576  11575  11597     1  0.0000000  1.0460000  1
  11578  11576  11575  11597     1  0.0000000  0.0000000  3
  11579  11580  11581  11584     1  0.0000000  0.6508444  3
  11579  11580  11586  11592     1  0.0000000  1.0460000  1
  11579  11580  11586  11592     1  0.0000000  0.6694400  3
  11579  11576  11588  11591     1  0.0000000  1.0460000  1
  11579  11576  11588  11591     1  0.0000000  0.6694400  3
  11580  11579  11587  11590     1  0.0000000  1.0460000  1
  11580  11579  11587  11590     1  0.0000000  0.6694400  3
  11581  11580  11586  11592     1  0.0000000  1.0460000  1
  11581  11580  11586  11592     1  0.0000000  0.6694400  3
  11581  11580  11579  11583     1  0.0000000  0.6508444  3
  11582  11580  11581  11585     1  0.0000000  1.0460000  1
  11582  11580  11581  11585     1  0.0000000  0.0000000  3
  11582  11580  11581  11597     1  0.0000000  1.0460000  1
  11582  11580  11581  11597     1  0.0000000  0.0000000  3
  11582  11580  11581  11584     1  0.0000000  0.6508444  3
  11582  11580  11586  11592     1  0.0000000  0.6973333  3
  11582  11580  11579  11587     1  0.0000000  1.0460000  1
  11582  11580  11579  11587     1  0.0000000  0.0000000  3
  11582  11580  11579  11583     1  0.0000000  0.6508444  3
  11583  11579  11580  11586     1  0.0000000  1.0460000  1
  11583  11579  11580  11586     1  0.0000000  0.0000000  3
  11583  11579  11587  11590     1  0.0000000  0.6973333  3
  11583  11579  11576  11588     1  0.0000000  1.0460000  1
  11583  11579  11576  11588     1  0.0000000  0.0000000  3
  11584  11581  11580  11586     1  0.0000000  0.6508444  3
  11593  11589  11595  11596     1  0.0000000  0.6973333  3
  11593  11589  11575  11597     1  0.0000000  1.0460000  1
  11593  11589  11575  11597     1  0.0000000  0.0000000  3
  11594  11589  11595  11596     1  0.0000000  0.6973333  3
  11594  11589  11575  11597     1  0.0000000  1.0460000  1
  11594  11589  11575  11597     1  0.0000000  0.0000000  3
  11598  11599  11602  11606     1  0.0000000  0.6508444  3
  11598  11599  11611  11614     1  0.0000000  1.0460000  1
  11598  11599  11611  11614     1  0.0000000  0.6694400  3
  11598  11612  11618  11619     1  0.0000000  1.0460000  1
  11598  11612  11618  11619     1  0.0000000  0.6694400  3
  11598  11620  11604  11607     1  0.0000000  1.6038667  3
  11599  11598  11612  11616     1  0.0000000  0.6508444  3
  11599  11598  11612  11617     1  0.0000000  0.6508444  3
  11599  11602  11603  11605     1  0.0000000  0.6508444  3
  11599  11602  11610  11613     1  0.0000000  1.0460000  1
  11599  11602  11610  11613     1  0.0000000  0.6694400  3
  11600  11598  11599  11602     1  0.0000000  0.6508444  3
  11600  11598  11599  11611     1  0.0000000  1.0460000  1
  11600  11598  11599  11611     1  0.0000000  0.0000000  3
  11600  11598  11599  11601     1  0.0000000  0.6508444  3
  11600  11598  11612  11618     1  0.0000000  1.0460000  1
  11600  11598  11612  11618     1  0.0000000  0.0000000  3
  11600  11598  11612  11616     1  0.0000000  0.6508444  3
  11600  11598  11612  11617     1  0.0000000  0.6508444  3
  11600  11598  11620  11604     1  0.0000000  1.6038667  3
  11601  11599  11598  11612     1  0.0000000  0.6508444  3
  11601  11599  11598  11620     1  0.0000000  1.0460000  1
  11601  11599  11598  11620     1  0.0000000  0.0000000  3
  11601  11599  11602  11603     1  0.0000000  0.6508444  3
  11601  11599  11602  11610     1  0.0000000  1.0460000  1
  11601  11599  11602  11610     1  0.0000000  0.0000000  3
  11601  11599  11602  11606     1  0.0000000  0.6508444  3
  11601  11599  11611  11614     1  0.0000000  0.6973333  3
  11602  11599  11611  11614     1  0.0000000  1.0460000  1
  11602  11599  11611  11614     1  0.0000000  0.6694400  3
  11602  11603  11604  11607     1  0.0000000  0.6508444  3
  11602  11603  11609  11615     1  0.0000000  1.0460000  1
  11602  11603  11609  11615     1  0.0000000  0.6694400  3
  11603  11602  11610  11613     1  0.0000000  1.0460000  1
  11603  11602  11610  11613     1  0.0000000  0.6694400  3
  11604  11603  11602  11606     1  0.0000000  0.6508444  3
  11604  11603  11609  11615     1  0.0000000  1.0460000  1
  11604  11603  11609  11615     1  0.0000000  0.6694400  3
  11605  11603  11602  11610     1  0.0000000  1.0460000  1
  11605  11603  11602  11610     1  0.0000000  0.0000000  3
  11605  11603  11602  11606     1  0.0000000  0.6508444  3
  11605  11603  11604  11608     1  0.0000000  1.0460000  1
  11605  11603  11604  11608     1  0.0000000  0.0000000  3
  11605  11603  11604  11620     1  0.0000000  1.0460000  1
  11605  11603  11604  11620     1  0.0000000  0.0000000  3
  11605  11603  11604  11607     1  0.0000000  0.6508444  3
  11605  11603  11609  11615     1  0.0000000  0.6973333  3
  11606  11602  11599  11611     1  0.0000000  1.0460000  1
  11606  11602  11599  11611     1  0.0000000  0.0000000  3
  11606  11602  11603  11609     1  0.0000000  1.0460000  1
  11606  11602  11603  11609     1  0.0000000  0.0000000  3
  11606  11602  11610  11613     1  0.0000000  0.6973333  3
  11607  11604  11603  11609     1  0.0000000  0.6508444  3
  11616  11612  11598  11620     1  0.0000000  1.0460000  1
  11616  11612  11598  11620     1  0.0000000  0.0000000  3
  11616  11612  11618  11619     1  0.0000000  0.6973333  3
  11617  11612  11598  11620     1  0.0000000  1.0460000  1
  11617  11612  11598  11620     1  0.0000000  0.0000000  3
  11617  11612  11618  11619     1  0.0000000  0.6973333  3
  11621  11622  11625  11629     1  0.0000000  0.6508444  3
  11621  11622  11634  11637     1  0.0000000  1.0460000  1
  11621  11622  11634  11637     1  0.0000000  0.6694400  3
  11621  11635  11641  11642     1  0.0000000  1.0460000  1
  11621  11635  11641  11642     1  0.0000000  0.6694400  3
  11621  11643  11627  11630     1  0.0000000  1.6038667  3
  11622  11625  11626  11628     1  0.0000000  0.6508444  3
  11622  11625  11633  11636     1  0.0000000  1.0460000  1
  11622  11625  11633  11636     1  0.0000000  0.6694400  3
  11622  11621  11635  11639     1  0.0000000  0.6508444  3
  11622  11621  11635  11640     1  0.0000000  0.6508444  3
  11623  11621  11622  11625     1  0.0000000  0.6508444  3
  11623  11621  11622  11634     1  0.0000000  1.0460000  1
  11623  11621  11622  11634     1  0.0000000  0.0000000  3
  11623  11621  11622  11624     1  0.0000000  0.6508444  3
  11623  11621  11635  11641     1  0.0000000  1.0460000  1
  11623  11621  11635  11641     1  0.0000000  0.0000000  3
  11623  11621  11635  11639     1  0.0000000  0.6508444  3
  11623  11621  11635  11640     1  0.0000000  0.6508444  3
  11623  11621  11643  11627     1  0.0000000  1.6038667  3
  11624  11622  11625  11626     1  0.0000000  0.6508444  3
  11624  11622  11625  11633     1  0.0000000  1.0460000  1
  11624  11622  11625  11633     1  0.0000000  0.0000000  3
  11624  11622  11625  11629     1  0.0000000  0.6508444  3
  11624  11622  11634  11637     1  0.0000000  0.6973333  3
  11624  11622  11621  11635     1  0.0000000  0.6508444  3
  11624  11622  11621  11643     1  0.0000000  1.0460000  1
  11624  11622  11621  11643     1  0.0000000  0.0000000  3
  11625  11626  11627  11630     1  0.0000000  0.6508444  3
  11625  11626  11632  11638     1  0.0000000  1.0460000  1
  11625  11626  11632  11638     1  0.0000000  0.6694400  3
  11625  11622  11634  11637     1  0.0000000  1.0460000  1
  11625  11622  11634  11637     1  0.0000000  0.6694400  3
  11626  11625  11633  11636     1  0.0000000  1.0460000  1
  11626  11625  11633  11636     1  0.0000000  0.6694400  3
  11627  11626  11632  11638     1  0.0000000  1.0460000  1
  11627  11626  11632  11638     1  0.0000000  0.6694400  3
  11627  11626  11625  11629     1  0.0000000  0.6508444  3
  11628  11626  11627  11631     1  0.0000000  1.0460000  1
  11628  11626  11627  11631     1  0.0000000  0.0000000  3
  11628  11626  11627  11643     1  0.0000000  1.0460000  1
  11628  11626  11627  11643     1  0.0000000  0.0000000  3
  11628  11626  11627  11630     1  0.0000000  0.6508444  3
  11628  11626  11632  11638     1  0.0000000  0.6973333  3
  11628  11626  11625  11633     1  0.0000000  1.0460000  1
  11628  11626  11625  11633     1  0.0000000  0.0000000  3
  11628  11626  11625  11629     1  0.0000000  0.6508444  3
  11629  11625  11626  11632     1  0.0000000  1.0460000  1
  11629  11625  11626  11632     1  0.0000000  0.0000000  3
  11629  11625  11633  11636     1  0.0000000  0.6973333  3
  11629  11625  11622  11634     1  0.0000000  1.0460000  1
  11629  11625  11622  11634     1  0.0000000  0.0000000  3
  11630  11627  11626  11632     1  0.0000000  0.6508444  3
  11639  11635  11641  11642     1  0.0000000  0.6973333  3
  11639  11635  11621  11643     1  0.0000000  1.0460000  1
  11639  11635  11621  11643     1  0.0000000  0.0000000  3
  11640  11635  11641  11642     1  0.0000000  0.6973333  3
  11640  11635  11621  11643     1  0.0000000  1.0460000  1
  11640  11635  11621  11643     1  0.0000000  0.0000000  3
  11644  11645  11648  11652     1  0.0000000  0.6508444  3
  11644  11645  11657  11660     1  0.0000000  1.0460000  1
  11644  11645  11657  11660     1  0.0000000  0.6694400  3
  11644  11658  11664  11665     1  0.0000000  1.0460000  1
  11644  11658  11664  11665     1  0.0000000  0.6694400  3
  11644  11666  11650  11653     1  0.0000000  1.6038667  3
  11645  11644  11658  11662     1  0.0000000  0.6508444  3
  11645  11644  11658  11663     1  0.0000000  0.6508444  3
  11645  11648  11649  11651     1  0.0000000  0.6508444  3
  11645  11648  11656  11659     1  0.0000000  1.0460000  1
  11645  11648  11656  11659     1  0.0000000  0.6694400  3
  11646  11644  11645  11648     1  0.0000000  0.6508444  3
  11646  11644  11645  11657     1  0.0000000  1.0460000  1
  11646  11644  11645  11657     1  0.0000000  0.0000000  3
  11646  11644  11645  11647     1  0.0000000  0.6508444  3
  11646  11644  11658  11664     1  0.0000000  1.0460000  1
  11646  11644  11658  11664     1  0.0000000  0.0000000  3
  11646  11644  11658  11662     1  0.0000000  0.6508444  3
  11646  11644  11658  11663     1  0.0000000  0.6508444  3
  11646  11644  11666  11650     1  0.0000000  1.6038667  3
  11647  11645  11644  11658     1  0.0000000  0.6508444  3
  11647  11645  11644  11666     1  0.0000000  1.0460000  1
  11647  11645  11644  11666     1  0.0000000  0.0000000  3
  11647  11645  11648  11649     1  0.0000000  0.6508444  3
  11647  11645  11648  11656     1  0.0000000  1.0460000  1
  11647  11645  11648  11656     1  0.0000000  0.0000000  3
  11647  11645  11648  11652     1  0.0000000  0.6508444  3
  11647  11645  11657  11660     1  0.0000000  0.6973333  3
  11648  11645  11657  11660     1  0.0000000  1.0460000  1
  11648  11645  11657  11660     1  0.0000000  0.6694400  3
  11648  11649  11650  11653     1  0.0000000  0.6508444  3
  11648  11649  11655  11661     1  0.0000000  1.0460000  1
  11648  11649  11655  11661     1  0.0000000  0.6694400  3
  11649  11648  11656  11659     1  0.0000000  1.0460000  1
  11649  11648  11656  11659     1  0.0000000  0.6694400  3
  11650  11649  11648  11652     1  0.0000000  0.6508444  3
  11650  11649  11655  11661     1  0.0000000  1.0460000  1
  11650  11649  11655  11661     1  0.0000000  0.6694400  3
  11651  11649  11648  11656     1  0.0000000  1.0460000  1
  11651  11649  11648  11656     1  0.0000000  0.0000000  3
  11651  11649  11648  11652     1  0.0000000  0.6508444  3
  11651  11649  11650  11654     1  0.0000000  1.0460000  1
  11651  11649  11650  11654     1  0.0000000  0.0000000  3
  11651  11649  11650  11666     1  0.0000000  1.0460000  1
  11651  11649  11650  11666     1  0.0000000  0.0000000  3
  11651  11649  11650  11653     1  0.0000000  0.6508444  3
  11651  11649  11655  11661     1  0.0000000  0.6973333  3
  11652  11648  11645  11657     1  0.0000000  1.0460000  1
  11652  11648  11645  11657     1  0.0000000  0.0000000  3
  11652  11648  11649  11655     1  0.0000000  1.0460000  1
  11652  11648  11649  11655     1  0.0000000  0.0000000  3
  11652  11648  11656  11659     1  0.0000000  0.6973333  3
  11653  11650  11649  11655     1  0.0000000  0.6508444  3
  11662  11658  11644  11666     1  0.0000000  1.0460000  1
  11662  11658  11644  11666     1  0.0000000  0.0000000  3
  11662  11658  11664  11665     1  0.0000000  0.6973333  3
  11663  11658  11644  11666     1  0.0000000  1.0460000  1
  11663  11658  11644  11666     1  0.0000000  0.0000000  3
  11663  11658  11664  11665     1  0.0000000  0.6973333  3
  11667  11668  11671  11675     1  0.0000000  0.6508444  3
  11667  11668  11680  11683     1  0.0000000  1.0460000  1
  11667  11668  11680  11683     1  0.0000000  0.6694400  3
  11667  11681  11687  11688     1  0.0000000  1.0460000  1
  11667  11681  11687  11688     1  0.0000000  0.6694400  3
  11667  11689  11673  11676     1  0.0000000  1.6038667  3
  11668  11671  11672  11674     1  0.0000000  0.6508444  3
  11668  11671  11679  11682     1  0.0000000  1.0460000  1
  11668  11671  11679  11682     1  0.0000000  0.6694400  3
  11668  11667  11681  11685     1  0.0000000  0.6508444  3
  11668  11667  11681  11686     1  0.0000000  0.6508444  3
  11669  11667  11668  11671     1  0.0000000  0.6508444  3
  11669  11667  11668  11680     1  0.0000000  1.0460000  1
  11669  11667  11668  11680     1  0.0000000  0.0000000  3
  11669  11667  11668  11670     1  0.0000000  0.6508444  3
  11669  11667  11681  11687     1  0.0000000  1.0460000  1
  11669  11667  11681  11687     1  0.0000000  0.0000000  3
  11669  11667  11681  11685     1  0.0000000  0.6508444  3
  11669  11667  11681  11686     1  0.0000000  0.6508444  3
  11669  11667  11689  11673     1  0.0000000  1.6038667  3
  11670  11668  11671  11672     1  0.0000000  0.6508444  3
  11670  11668  11671  11679     1  0.0000000  1.0460000  1
  11670  11668  11671  11679     1  0.0000000  0.0000000  3
  11670  11668  11671  11675     1  0.0000000  0.6508444  3
  11670  11668  11680  11683     1  0.0000000  0.6973333  3
  11670  11668  11667  11681     1  0.0000000  0.6508444  3
  11670  11668  11667  11689     1  0.0000000  1.0460000  1
  11670  11668  11667  11689     1  0.0000000  0.0000000  3
  11671  11672  11673  11676     1  0.0000000  0.6508444  3
  11671  11672  11678  11684     1  0.0000000  1.0460000  1
  11671  11672  11678  11684     1  0.0000000  0.6694400  3
  11671  11668  11680  11683     1  0.0000000  1.0460000  1
  11671  11668  11680  11683     1  0.0000000  0.6694400  3
  11672  11671  11679  11682     1  0.0000000  1.0460000  1
  11672  11671  11679  11682     1  0.0000000  0.6694400  3
  11673  11672  11678  11684     1  0.0000000  1.0460000  1
  11673  11672  11678  11684     1  0.0000000  0.6694400  3
  11673  11672  11671  11675     1  0.0000000  0.6508444  3
  11674  11672  11673  11677     1  0.0000000  1.0460000  1
  11674  11672  11673  11677     1  0.0000000  0.0000000  3
  11674  11672  11673  11689     1  0.0000000  1.0460000  1
  11674  11672  11673  11689     1  0.0000000  0.0000000  3
  11674  11672  11673  11676     1  0.0000000  0.6508444  3
  11674  11672  11678  11684     1  0.0000000  0.6973333  3
  11674  11672  11671  11679     1  0.0000000  1.0460000  1
  11674  11672  11671  11679     1  0.0000000  0.0000000  3
  11674  11672  11671  11675     1  0.0000000  0.6508444  3
  11675  11671  11672  11678     1  0.0000000  1.0460000  1
  11675  11671  11672  11678     1  0.0000000  0.0000000  3
  11675  11671  11679  11682     1  0.0000000  0.6973333  3
  11675  11671  11668  11680     1  0.0000000  1.0460000  1
  11675  11671  11668  11680     1  0.0000000  0.0000000  3
  11676  11673  11672  11678     1  0.0000000  0.6508444  3
  11685  11681  11687  11688     1  0.0000000  0.6973333  3
  11685  11681  11667  11689     1  0.0000000  1.0460000  1
  11685  11681  11667  11689     1  0.0000000  0.0000000  3
  11686  11681  11687  11688     1  0.0000000  0.6973333  3
  11686  11681  11667  11689     1  0.0000000  1.0460000  1
  11686  11681  11667  11689     1  0.0000000  0.0000000  3
  11690  11691  11694  11698     1  0.0000000  0.6508444  3
  11690  11691  11703  11706     1  0.0000000  1.0460000  1
  11690  11691  11703  11706     1  0.0000000  0.6694400  3
  11690  11704  11710  11711     1  0.0000000  1.0460000  1
  11690  11704  11710  11711     1  0.0000000  0.6694400  3
  11690  11712  11696  11699     1  0.0000000  1.6038667  3
  11691  11690  11704  11708     1  0.0000000  0.6508444  3
  11691  11690  11704  11709     1  0.0000000  0.6508444  3
  11691  11694  11695  11697     1  0.0000000  0.6508444  3
  11691  11694  11702  11705     1  0.0000000  1.0460000  1
  11691  11694  11702  11705     1  0.0000000  0.6694400  3
  11692  11690  11691  11694     1  0.0000000  0.6508444  3
  11692  11690  11691  11703     1  0.0000000  1.0460000  1
  11692  11690  11691  11703     1  0.0000000  0.0000000  3
  11692  11690  11691  11693     1  0.0000000  0.6508444  3
  11692  11690  11704  11710     1  0.0000000  1.0460000  1
  11692  11690  11704  11710     1  0.0000000  0.0000000  3
  11692  11690  11704  11708     1  0.0000000  0.6508444  3
  11692  11690  11704  11709     1  0.0000000  0.6508444  3
  11692  11690  11712  11696     1  0.0000000  1.6038667  3
  11693  11691  11690  11704     1  0.0000000  0.6508444  3
  11693  11691  11690  11712     1  0.0000000  1.0460000  1
  11693  11691  11690  11712     1  0.0000000  0.0000000  3
  11693  11691  11694  11695     1  0.0000000  0.6508444  3
  11693  11691  11694  11702     1  0.0000000  1.0460000  1
  11693  11691  11694  11702     1  0.0000000  0.0000000  3
  11693  11691  11694  11698     1  0.0000000  0.6508444  3
  11693  11691  11703  11706     1  0.0000000  0.6973333  3
  11694  11691  11703  11706     1  0.0000000  1.0460000  1
  11694  11691  11703  11706     1  0.0000000  0.6694400  3
  11694  11695  11696  11699     1  0.0000000  0.6508444  3
  11694  11695  11701  11707     1  0.0000000  1.0460000  1
  11694  11695  11701  11707     1  0.0000000  0.6694400  3
  11695  11694  11702  11705     1  0.0000000  1.0460000  1
  11695  11694  11702  11705     1  0.0000000  0.6694400  3
  11696  11695  11694  11698     1  0.0000000  0.6508444  3
  11696  11695  11701  11707     1  0.0000000  1.0460000  1
  11696  11695  11701  11707     1  0.0000000  0.6694400  3
  11697  11695  11694  11702     1  0.0000000  1.0460000  1
  11697  11695  11694  11702     1  0.0000000  0.0000000  3
  11697  11695  11694  11698     1  0.0000000  0.6508444  3
  11697  11695  11696  11700     1  0.0000000  1.0460000  1
  11697  11695  11696  11700     1  0.0000000  0.0000000  3
  11697  11695  11696  11712     1  0.0000000  1.0460000  1
  11697  11695  11696  11712     1  0.0000000  0.0000000  3
  11697  11695  11696  11699     1  0.0000000  0.6508444  3
  11697  11695  11701  11707     1  0.0000000  0.6973333  3
  11698  11694  11691  11703     1  0.0000000  1.0460000  1
  11698  11694  11691  11703     1  0.0000000  0.0000000  3
  11698  11694  11695  11701     1  0.0000000  1.0460000  1
  11698  11694  11695  11701     1  0.0000000  0.0000000  3
  11698  11694  11702  11705     1  0.0000000  0.6973333  3
  11699  11696  11695  11701     1  0.0000000  0.6508444  3
  11708  11704  11690  11712     1  0.0000000  1.0460000  1
  11708  11704  11690  11712     1  0.0000000  0.0000000  3
  11708  11704  11710  11711     1  0.0000000  0.6973333  3
  11709  11704  11690  11712     1  0.0000000  1.0460000  1
  11709  11704  11690  11712     1  0.0000000  0.0000000  3
  11709  11704  11710  11711     1  0.0000000  0.6973333  3
  11713  11714  11717  11721     1  0.0000000  0.6508444  3
  11713  11714  11726  11729     1  0.0000000  1.0460000  1
  11713  11714  11726  11729     1  0.0000000  0.6694400  3
  11713  11727  11733  11734     1  0.0000000  1.0460000  1
  11713  11727  11733  11734     1  0.0000000  0.6694400  3
  11713  11735  11719  11722     1  0.0000000  1.6038667  3
  11714  11717  11718  11720     1  0.0000000  0.6508444  3
  11714  11717  11725  11728     1  0.0000000  1.0460000  1
  11714  11717  11725  11728     1  0.0000000  0.6694400  3
  11714  11713  11727  11731     1  0.0000000  0.6508444  3
  11714  11713  11727  11732     1  0.0000000  0.6508444  3
  11715  11713  11714  11717     1  0.0000000  0.6508444  3
  11715  11713  11714  11726     1  0.0000000  1.0460000  1
  11715  11713  11714  11726     1  0.0000000  0.0000000  3
  11715  11713  11714  11716     1  0.0000000  0.6508444  3
  11715  11713  11727  11733     1  0.0000000  1.0460000  1
  11715  11713  11727  11733     1  0.0000000  0.0000000  3
  11715  11713  11727  11731     1  0.0000000  0.6508444  3
  11715  11713  11727  11732     1  0.0000000  0.6508444  3
  11715  11713  11735  11719     1  0.0000000  1.6038667  3
  11716  11714  11717  11718     1  0.0000000  0.6508444  3
  11716  11714  11717  11725     1  0.0000000  1.0460000  1
  11716  11714  11717  11725     1  0.0000000  0.0000000  3
  11716  11714  11717  11721     1  0.0000000  0.6508444  3
  11716  11714  11726  11729     1  0.0000000  0.6973333  3
  11716  11714  11713  11727     1  0.0000000  0.6508444  3
  11716  11714  11713  11735     1  0.0000000  1.0460000  1
  11716  11714  11713  11735     1  0.0000000  0.0000000  3
  11717  11718  11719  11722     1  0.0000000  0.6508444  3
  11717  11718  11724  11730     1  0.0000000  1.0460000  1
  11717  11718  11724  11730     1  0.0000000  0.6694400  3
  11717  11714  11726  11729     1  0.0000000  1.0460000  1
  11717  11714  11726  11729     1  0.0000000  0.6694400  3
  11718  11717  11725  11728     1  0.0000000  1.0460000  1
  11718  11717  11725  11728     1  0.0000000  0.6694400  3
  11719  11718  11724  11730     1  0.0000000  1.0460000  1
  11719  11718  11724  11730     1  0.0000000  0.6694400  3
  11719  11718  11717  11721     1  0.0000000  0.6508444  3
  11720  11718  11719  11723     1  0.0000000  1.0460000  1
  11720  11718  11719  11723     1  0.0000000  0.0000000  3
  11720  11718  11719  11735     1  0.0000000  1.0460000  1
  11720  11718  11719  11735     1  0.0000000  0.0000000  3
  11720  11718  11719  11722     1  0.0000000  0.6508444  3
  11720  11718  11724  11730     1  0.0000000  0.6973333  3
  11720  11718  11717  11725     1  0.0000000  1.0460000  1
  11720  11718  11717  11725     1  0.0000000  0.0000000  3
  11720  11718  11717  11721     1  0.0000000  0.6508444  3
  11721  11717  11718  11724     1  0.0000000  1.0460000  1
  11721  11717  11718  11724     1  0.0000000  0.0000000  3
  11721  11717  11725  11728     1  0.0000000  0.6973333  3
  11721  11717  11714  11726     1  0.0000000  1.0460000  1
  11721  11717  11714  11726     1  0.0000000  0.0000000  3
  11722  11719  11718  11724     1  0.0000000  0.6508444  3
  11731  11727  11733  11734     1  0.0000000  0.6973333  3
  11731  11727  11713  11735     1  0.0000000  1.0460000  1
  11731  11727  11713  11735     1  0.0000000  0.0000000  3
  11732  11727  11733  11734     1  0.0000000  0.6973333  3
  11732  11727  11713  11735     1  0.0000000  1.0460000  1
  11732  11727  11713  11735     1  0.0000000  0.0000000  3
  11736  11737  11740  11744     1  0.0000000  0.6508444  3
  11736  11737  11749  11752     1  0.0000000  1.0460000  1
  11736  11737  11749  11752     1  0.0000000  0.6694400  3
  11736  11750  11756  11757     1  0.0000000  1.0460000  1
  11736  11750  11756  11757     1  0.0000000  0.6694400  3
  11736  11758  11742  11745     1  0.0000000  1.6038667  3
  11737  11736  11750  11754     1  0.0000000  0.6508444  3
  11737  11736  11750  11755     1  0.0000000  0.6508444  3
  11737  11740  11741  11743     1  0.0000000  0.6508444  3
  11737  11740  11748  11751     1  0.0000000  1.0460000  1
  11737  11740  11748  11751     1  0.0000000  0.6694400  3
  11738  11736  11737  11740     1  0.0000000  0.6508444  3
  11738  11736  11737  11749     1  0.0000000  1.0460000  1
  11738  11736  11737  11749     1  0.0000000  0.0000000  3
  11738  11736  11737  11739     1  0.0000000  0.6508444  3
  11738  11736  11750  11756     1  0.0000000  1.0460000  1
  11738  11736  11750  11756     1  0.0000000  0.0000000  3
  11738  11736  11750  11754     1  0.0000000  0.6508444  3
  11738  11736  11750  11755     1  0.0000000  0.6508444  3
  11738  11736  11758  11742     1  0.0000000  1.6038667  3
  11739  11737  11736  11750     1  0.0000000  0.6508444  3
  11739  11737  11736  11758     1  0.0000000  1.0460000  1
  11739  11737  11736  11758     1  0.0000000  0.0000000  3
  11739  11737  11740  11741     1  0.0000000  0.6508444  3
  11739  11737  11740  11748     1  0.0000000  1.0460000  1
  11739  11737  11740  11748     1  0.0000000  0.0000000  3
  11739  11737  11740  11744     1  0.0000000  0.6508444  3
  11739  11737  11749  11752     1  0.0000000  0.6973333  3
  11740  11737  11749  11752     1  0.0000000  1.0460000  1
  11740  11737  11749  11752     1  0.0000000  0.6694400  3
  11740  11741  11742  11745     1  0.0000000  0.6508444  3
  11740  11741  11747  11753     1  0.0000000  1.0460000  1
  11740  11741  11747  11753     1  0.0000000  0.6694400  3
  11741  11740  11748  11751     1  0.0000000  1.0460000  1
  11741  11740  11748  11751     1  0.0000000  0.6694400  3
  11742  11741  11740  11744     1  0.0000000  0.6508444  3
  11742  11741  11747  11753     1  0.0000000  1.0460000  1
  11742  11741  11747  11753     1  0.0000000  0.6694400  3
  11743  11741  11740  11748     1  0.0000000  1.0460000  1
  11743  11741  11740  11748     1  0.0000000  0.0000000  3
  11743  11741  11740  11744     1  0.0000000  0.6508444  3
  11743  11741  11742  11746     1  0.0000000  1.0460000  1
  11743  11741  11742  11746     1  0.0000000  0.0000000  3
  11743  11741  11742  11758     1  0.0000000  1.0460000  1
  11743  11741  11742  11758     1  0.0000000  0.0000000  3
  11743  11741  11742  11745     1  0.0000000  0.6508444  3
  11743  11741  11747  11753     1  0.0000000  0.6973333  3
  11744  11740  11737  11749     1  0.0000000  1.0460000  1
  11744  11740  11737  11749     1  0.0000000  0.0000000  3
  11744  11740  11741  11747     1  0.0000000  1.0460000  1
  11744  11740  11741  11747     1  0.0000000  0.0000000  3
  11744  11740  11748  11751     1  0.0000000  0.6973333  3
  11745  11742  11741  11747     1  0.0000000  0.6508444  3
  11754  11750  11736  11758     1  0.0000000  1.0460000  1
  11754  11750  11736  11758     1  0.0000000  0.0000000  3
  11754  11750  11756  11757     1  0.0000000  0.6973333  3
  11755  11750  11736  11758     1  0.0000000  1.0460000  1
  11755  11750  11736  11758     1  0.0000000  0.0000000  3
  11755  11750  11756  11757     1  0.0000000  0.6973333  3
  11759  11760  11763  11767     1  0.0000000  0.6508444  3
  11759  11760  11772  11775     1  0.0000000  1.0460000  1
  11759  11760  11772  11775     1  0.0000000  0.6694400  3
  11759  11773  11779  11780     1  0.0000000  1.0460000  1
  11759  11773  11779  11780     1  0.0000000  0.6694400  3
  11759  11781  11765  11768     1  0.0000000  1.6038667  3
  11760  11763  11764  11766     1  0.0000000  0.6508444  3
  11760  11763  11771  11774     1  0.0000000  1.0460000  1
  11760  11763  11771  11774     1  0.0000000  0.6694400  3
  11760  11759  11773  11777     1  0.0000000  0.6508444  3
  11760  11759  11773  11778     1  0.0000000  0.6508444  3
  11761  11759  11760  11763     1  0.0000000  0.6508444  3
  11761  11759  11760  11772     1  0.0000000  1.0460000  1
  11761  11759  11760  11772     1  0.0000000  0.0000000  3
  11761  11759  11760  11762     1  0.0000000  0.6508444  3
  11761  11759  11773  11779     1  0.0000000  1.0460000  1
  11761  11759  11773  11779     1  0.0000000  0.0000000  3
  11761  11759  11773  11777     1  0.0000000  0.6508444  3
  11761  11759  11773  11778     1  0.0000000  0.6508444  3
  11761  11759  11781  11765     1  0.0000000  1.6038667  3
  11762  11760  11763  11764     1  0.0000000  0.6508444  3
  11762  11760  11763  11771     1  0.0000000  1.0460000  1
  11762  11760  11763  11771     1  0.0000000  0.0000000  3
  11762  11760  11763  11767     1  0.0000000  0.6508444  3
  11762  11760  11772  11775     1  0.0000000  0.6973333  3
  11762  11760  11759  11773     1  0.0000000  0.6508444  3
  11762  11760  11759  11781     1  0.0000000  1.0460000  1
  11762  11760  11759  11781     1  0.0000000  0.0000000  3
  11763  11764  11765  11768     1  0.0000000  0.6508444  3
  11763  11764  11770  11776     1  0.0000000  1.0460000  1
  11763  11764  11770  11776     1  0.0000000  0.6694400  3
  11763  11760  11772  11775     1  0.0000000  1.0460000  1
  11763  11760  11772  11775     1  0.0000000  0.6694400  3
  11764  11763  11771  11774     1  0.0000000  1.0460000  1
  11764  11763  11771  11774     1  0.0000000  0.6694400  3
  11765  11764  11770  11776     1  0.0000000  1.0460000  1
  11765  11764  11770  11776     1  0.0000000  0.6694400  3
  11765  11764  11763  11767     1  0.0000000  0.6508444  3
  11766  11764  11765  11769     1  0.0000000  1.0460000  1
  11766  11764  11765  11769     1  0.0000000  0.0000000  3
  11766  11764  11765  11781     1  0.0000000  1.0460000  1
  11766  11764  11765  11781     1  0.0000000  0.0000000  3
  11766  11764  11765  11768     1  0.0000000  0.6508444  3
  11766  11764  11770  11776     1  0.0000000  0.6973333  3
  11766  11764  11763  11771     1  0.0000000  1.0460000  1
  11766  11764  11763  11771     1  0.0000000  0.0000000  3
  11766  11764  11763  11767     1  0.0000000  0.6508444  3
  11767  11763  11764  11770     1  0.0000000  1.0460000  1
  11767  11763  11764  11770     1  0.0000000  0.0000000  3
  11767  11763  11771  11774     1  0.0000000  0.6973333  3
  11767  11763  11760  11772     1  0.0000000  1.0460000  1
  11767  11763  11760  11772     1  0.0000000  0.0000000  3
  11768  11765  11764  11770     1  0.0000000  0.6508444  3
  11777  11773  11779  11780     1  0.0000000  0.6973333  3
  11777  11773  11759  11781     1  0.0000000  1.0460000  1
  11777  11773  11759  11781     1  0.0000000  0.0000000  3
  11778  11773  11779  11780     1  0.0000000  0.6973333  3
  11778  11773  11759  11781     1  0.0000000  1.0460000  1
  11778  11773  11759  11781     1  0.0000000  0.0000000  3
  11782  11783  11786  11790     1  0.0000000  0.6508444  3
  11782  11783  11795  11798     1  0.0000000  1.0460000  1
  11782  11783  11795  11798     1  0.0000000  0.6694400  3
  11782  11796  11802  11803     1  0.0000000  1.0460000  1
  11782  11796  11802  11803     1  0.0000000  0.6694400  3
  11782  11804  11788  11791     1  0.0000000  1.6038667  3
  11783  11782  11796  11800     1  0.0000000  0.6508444  3
  11783  11782  11796  11801     1  0.0000000  0.6508444  3
  11783  11786  11787  11789     1  0.0000000  0.6508444  3
  11783  11786  11794  11797     1  0.0000000  1.0460000  1
  11783  11786  11794  11797     1  0.0000000  0.6694400  3
  11784  11782  11783  11786     1  0.0000000  0.6508444  3
  11784  11782  11783  11795     1  0.0000000  1.0460000  1
  11784  11782  11783  11795     1  0.0000000  0.0000000  3
  11784  11782  11783  11785     1  0.0000000  0.6508444  3
  11784  11782  11796  11802     1  0.0000000  1.0460000  1
  11784  11782  11796  11802     1  0.0000000  0.0000000  3
  11784  11782  11796  11800     1  0.0000000  0.6508444  3
  11784  11782  11796  11801     1  0.0000000  0.6508444  3
  11784  11782  11804  11788     1  0.0000000  1.6038667  3
  11785  11783  11782  11796     1  0.0000000  0.6508444  3
  11785  11783  11782  11804     1  0.0000000  1.0460000  1
  11785  11783  11782  11804     1  0.0000000  0.0000000  3
  11785  11783  11786  11787     1  0.0000000  0.6508444  3
  11785  11783  11786  11794     1  0.0000000  1.0460000  1
  11785  11783  11786  11794     1  0.0000000  0.0000000  3
  11785  11783  11786  11790     1  0.0000000  0.6508444  3
  11785  11783  11795  11798     1  0.0000000  0.6973333  3
  11786  11783  11795  11798     1  0.0000000  1.0460000  1
  11786  11783  11795  11798     1  0.0000000  0.6694400  3
  11786  11787  11788  11791     1  0.0000000  0.6508444  3
  11786  11787  11793  11799     1  0.0000000  1.0460000  1
  11786  11787  11793  11799     1  0.0000000  0.6694400  3
  11787  11786  11794  11797     1  0.0000000  1.0460000  1
  11787  11786  11794  11797     1  0.0000000  0.6694400  3
  11788  11787  11786  11790     1  0.0000000  0.6508444  3
  11788  11787  11793  11799     1  0.0000000  1.0460000  1
  11788  11787  11793  11799     1  0.0000000  0.6694400  3
  11789  11787  11786  11794     1  0.0000000  1.0460000  1
  11789  11787  11786  11794     1  0.0000000  0.0000000  3
  11789  11787  11786  11790     1  0.0000000  0.6508444  3
  11789  11787  11788  11792     1  0.0000000  1.0460000  1
  11789  11787  11788  11792     1  0.0000000  0.0000000  3
  11789  11787  11788  11804     1  0.0000000  1.0460000  1
  11789  11787  11788  11804     1  0.0000000  0.0000000  3
  11789  11787  11788  11791     1  0.0000000  0.6508444  3
  11789  11787  11793  11799     1  0.0000000  0.6973333  3
  11790  11786  11783  11795     1  0.0000000  1.0460000  1
  11790  11786  11783  11795     1  0.0000000  0.0000000  3
  11790  11786  11787  11793     1  0.0000000  1.0460000  1
  11790  11786  11787  11793     1  0.0000000  0.0000000  3
  11790  11786  11794  11797     1  0.0000000  0.6973333  3
  11791  11788  11787  11793     1  0.0000000  0.6508444  3
  11800  11796  11782  11804     1  0.0000000  1.0460000  1
  11800  11796  11782  11804     1  0.0000000  0.0000000  3
  11800  11796  11802  11803     1  0.0000000  0.6973333  3
  11801  11796  11782  11804     1  0.0000000  1.0460000  1
  11801  11796  11782  11804     1  0.0000000  0.0000000  3
  11801  11796  11802  11803     1  0.0000000  0.6973333  3
  11805  11806  11809  11813     1  0.0000000  0.6508444  3
  11805  11806  11818  11821     1  0.0000000  1.0460000  1
  11805  11806  11818  11821     1  0.0000000  0.6694400  3
  11805  11819  11825  11826     1  0.0000000  1.0460000  1
  11805  11819  11825  11826     1  0.0000000  0.6694400  3
  11805  11827  11811  11814     1  0.0000000  1.6038667  3
  11806  11809  11810  11812     1  0.0000000  0.6508444  3
  11806  11809  11817  11820     1  0.0000000  1.0460000  1
  11806  11809  11817  11820     1  0.0000000  0.6694400  3
  11806  11805  11819  11823     1  0.0000000  0.6508444  3
  11806  11805  11819  11824     1  0.0000000  0.6508444  3
  11807  11805  11806  11809     1  0.0000000  0.6508444  3
  11807  11805  11806  11818     1  0.0000000  1.0460000  1
  11807  11805  11806  11818     1  0.0000000  0.0000000  3
  11807  11805  11806  11808     1  0.0000000  0.6508444  3
  11807  11805  11819  11825     1  0.0000000  1.0460000  1
  11807  11805  11819  11825     1  0.0000000  0.0000000  3
  11807  11805  11819  11823     1  0.0000000  0.6508444  3
  11807  11805  11819  11824     1  0.0000000  0.6508444  3
  11807  11805  11827  11811     1  0.0000000  1.6038667  3
  11808  11806  11809  11810     1  0.0000000  0.6508444  3
  11808  11806  11809  11817     1  0.0000000  1.0460000  1
  11808  11806  11809  11817     1  0.0000000  0.0000000  3
  11808  11806  11809  11813     1  0.0000000  0.6508444  3
  11808  11806  11818  11821     1  0.0000000  0.6973333  3
  11808  11806  11805  11819     1  0.0000000  0.6508444  3
  11808  11806  11805  11827     1  0.0000000  1.0460000  1
  11808  11806  11805  11827     1  0.0000000  0.0000000  3
  11809  11810  11811  11814     1  0.0000000  0.6508444  3
  11809  11810  11816  11822     1  0.0000000  1.0460000  1
  11809  11810  11816  11822     1  0.0000000  0.6694400  3
  11809  11806  11818  11821     1  0.0000000  1.0460000  1
  11809  11806  11818  11821     1  0.0000000  0.6694400  3
  11810  11809  11817  11820     1  0.0000000  1.0460000  1
  11810  11809  11817  11820     1  0.0000000  0.6694400  3
  11811  11810  11816  11822     1  0.0000000  1.0460000  1
  11811  11810  11816  11822     1  0.0000000  0.6694400  3
  11811  11810  11809  11813     1  0.0000000  0.6508444  3
  11812  11810  11811  11815     1  0.0000000  1.0460000  1
  11812  11810  11811  11815     1  0.0000000  0.0000000  3
  11812  11810  11811  11827     1  0.0000000  1.0460000  1
  11812  11810  11811  11827     1  0.0000000  0.0000000  3
  11812  11810  11811  11814     1  0.0000000  0.6508444  3
  11812  11810  11816  11822     1  0.0000000  0.6973333  3
  11812  11810  11809  11817     1  0.0000000  1.0460000  1
  11812  11810  11809  11817     1  0.0000000  0.0000000  3
  11812  11810  11809  11813     1  0.0000000  0.6508444  3
  11813  11809  11810  11816     1  0.0000000  1.0460000  1
  11813  11809  11810  11816     1  0.0000000  0.0000000  3
  11813  11809  11817  11820     1  0.0000000  0.6973333  3
  11813  11809  11806  11818     1  0.0000000  1.0460000  1
  11813  11809  11806  11818     1  0.0000000  0.0000000  3
  11814  11811  11810  11816     1  0.0000000  0.6508444  3
  11823  11819  11825  11826     1  0.0000000  0.6973333  3
  11823  11819  11805  11827     1  0.0000000  1.0460000  1
  11823  11819  11805  11827     1  0.0000000  0.0000000  3
  11824  11819  11825  11826     1  0.0000000  0.6973333  3
  11824  11819  11805  11827     1  0.0000000  1.0460000  1
  11824  11819  11805  11827     1  0.0000000  0.0000000  3
  11828  11829  11832  11836     1  0.0000000  0.6508444  3
  11828  11829  11841  11844     1  0.0000000  1.0460000  1
  11828  11829  11841  11844     1  0.0000000  0.6694400  3
  11828  11842  11848  11849     1  0.0000000  1.0460000  1
  11828  11842  11848  11849     1  0.0000000  0.6694400  3
  11828  11850  11834  11837     1  0.0000000  1.6038667  3
  11829  11828  11842  11846     1  0.0000000  0.6508444  3
  11829  11828  11842  11847     1  0.0000000  0.6508444  3
  11829  11832  11833  11835     1  0.0000000  0.6508444  3
  11829  11832  11840  11843     1  0.0000000  1.0460000  1
  11829  11832  11840  11843     1  0.0000000  0.6694400  3
  11830  11828  11829  11832     1  0.0000000  0.6508444  3
  11830  11828  11829  11841     1  0.0000000  1.0460000  1
  11830  11828  11829  11841     1  0.0000000  0.0000000  3
  11830  11828  11829  11831     1  0.0000000  0.6508444  3
  11830  11828  11842  11848     1  0.0000000  1.0460000  1
  11830  11828  11842  11848     1  0.0000000  0.0000000  3
  11830  11828  11842  11846     1  0.0000000  0.6508444  3
  11830  11828  11842  11847     1  0.0000000  0.6508444  3
  11830  11828  11850  11834     1  0.0000000  1.6038667  3
  11831  11829  11828  11842     1  0.0000000  0.6508444  3
  11831  11829  11828  11850     1  0.0000000  1.0460000  1
  11831  11829  11828  11850     1  0.0000000  0.0000000  3
  11831  11829  11832  11833     1  0.0000000  0.6508444  3
  11831  11829  11832  11840     1  0.0000000  1.0460000  1
  11831  11829  11832  11840     1  0.0000000  0.0000000  3
  11831  11829  11832  11836     1  0.0000000  0.6508444  3
  11831  11829  11841  11844     1  0.0000000  0.6973333  3
  11832  11829  11841  11844     1  0.0000000  1.0460000  1
  11832  11829  11841  11844     1  0.0000000  0.6694400  3
  11832  11833  11834  11837     1  0.0000000  0.6508444  3
  11832  11833  11839  11845     1  0.0000000  1.0460000  1
  11832  11833  11839  11845     1  0.0000000  0.6694400  3
  11833  11832  11840  11843     1  0.0000000  1.0460000  1
  11833  11832  11840  11843     1  0.0000000  0.6694400  3
  11834  11833  11832  11836     1  0.0000000  0.6508444  3
  11834  11833  11839  11845     1  0.0000000  1.0460000  1
  11834  11833  11839  11845     1  0.0000000  0.6694400  3
  11835  11833  11832  11840     1  0.0000000  1.0460000  1
  11835  11833  11832  11840     1  0.0000000  0.0000000  3
  11835  11833  11832  11836     1  0.0000000  0.6508444  3
  11835  11833  11834  11838     1  0.0000000  1.0460000  1
  11835  11833  11834  11838     1  0.0000000  0.0000000  3
  11835  11833  11834  11850     1  0.0000000  1.0460000  1
  11835  11833  11834  11850     1  0.0000000  0.0000000  3
  11835  11833  11834  11837     1  0.0000000  0.6508444  3
  11835  11833  11839  11845     1  0.0000000  0.6973333  3
  11836  11832  11829  11841     1  0.0000000  1.0460000  1
  11836  11832  11829  11841     1  0.0000000  0.0000000  3
  11836  11832  11833  11839     1  0.0000000  1.0460000  1
  11836  11832  11833  11839     1  0.0000000  0.0000000  3
  11836  11832  11840  11843     1  0.0000000  0.6973333  3
  11837  11834  11833  11839     1  0.0000000  0.6508444  3
  11846  11842  11828  11850     1  0.0000000  1.0460000  1
  11846  11842  11828  11850     1  0.0000000  0.0000000  3
  11846  11842  11848  11849     1  0.0000000  0.6973333  3
  11847  11842  11828  11850     1  0.0000000  1.0460000  1
  11847  11842  11828  11850     1  0.0000000  0.0000000  3
  11847  11842  11848  11849     1  0.0000000  0.6973333  3
  11851  11852  11855  11859     1  0.0000000  0.6508444  3
  11851  11852  11864  11867     1  0.0000000  1.0460000  1
  11851  11852  11864  11867     1  0.0000000  0.6694400  3
  11851  11865  11871  11872     1  0.0000000  1.0460000  1
  11851  11865  11871  11872     1  0.0000000  0.6694400  3
  11851  11873  11857  11860     1  0.0000000  1.6038667  3
  11852  11855  11856  11858     1  0.0000000  0.6508444  3
  11852  11855  11863  11866     1  0.0000000  1.0460000  1
  11852  11855  11863  11866     1  0.0000000  0.6694400  3
  11852  11851  11865  11869     1  0.0000000  0.6508444  3
  11852  11851  11865  11870     1  0.0000000  0.6508444  3
  11853  11851  11852  11855     1  0.0000000  0.6508444  3
  11853  11851  11852  11864     1  0.0000000  1.0460000  1
  11853  11851  11852  11864     1  0.0000000  0.0000000  3
  11853  11851  11852  11854     1  0.0000000  0.6508444  3
  11853  11851  11865  11871     1  0.0000000  1.0460000  1
  11853  11851  11865  11871     1  0.0000000  0.0000000  3
  11853  11851  11865  11869     1  0.0000000  0.6508444  3
  11853  11851  11865  11870     1  0.0000000  0.6508444  3
  11853  11851  11873  11857     1  0.0000000  1.6038667  3
  11854  11852  11855  11856     1  0.0000000  0.6508444  3
  11854  11852  11855  11863     1  0.0000000  1.0460000  1
  11854  11852  11855  11863     1  0.0000000  0.0000000  3
  11854  11852  11855  11859     1  0.0000000  0.6508444  3
  11854  11852  11864  11867     1  0.0000000  0.6973333  3
  11854  11852  11851  11865     1  0.0000000  0.6508444  3
  11854  11852  11851  11873     1  0.0000000  1.0460000  1
  11854  11852  11851  11873     1  0.0000000  0.0000000  3
  11855  11856  11857  11860     1  0.0000000  0.6508444  3
  11855  11856  11862  11868     1  0.0000000  1.0460000  1
  11855  11856  11862  11868     1  0.0000000  0.6694400  3
  11855  11852  11864  11867     1  0.0000000  1.0460000  1
  11855  11852  11864  11867     1  0.0000000  0.6694400  3
  11856  11855  11863  11866     1  0.0000000  1.0460000  1
  11856  11855  11863  11866     1  0.0000000  0.6694400  3
  11857  11856  11862  11868     1  0.0000000  1.0460000  1
  11857  11856  11862  11868     1  0.0000000  0.6694400  3
  11857  11856  11855  11859     1  0.0000000  0.6508444  3
  11858  11856  11857  11861     1  0.0000000  1.0460000  1
  11858  11856  11857  11861     1  0.0000000  0.0000000  3
  11858  11856  11857  11873     1  0.0000000  1.0460000  1
  11858  11856  11857  11873     1  0.0000000  0.0000000  3
  11858  11856  11857  11860     1  0.0000000  0.6508444  3
  11858  11856  11862  11868     1  0.0000000  0.6973333  3
  11858  11856  11855  11863     1  0.0000000  1.0460000  1
  11858  11856  11855  11863     1  0.0000000  0.0000000  3
  11858  11856  11855  11859     1  0.0000000  0.6508444  3
  11859  11855  11856  11862     1  0.0000000  1.0460000  1
  11859  11855  11856  11862     1  0.0000000  0.0000000  3
  11859  11855  11863  11866     1  0.0000000  0.6973333  3
  11859  11855  11852  11864     1  0.0000000  1.0460000  1
  11859  11855  11852  11864     1  0.0000000  0.0000000  3
  11860  11857  11856  11862     1  0.0000000  0.6508444  3
  11869  11865  11871  11872     1  0.0000000  0.6973333  3
  11869  11865  11851  11873     1  0.0000000  1.0460000  1
  11869  11865  11851  11873     1  0.0000000  0.0000000  3
  11870  11865  11871  11872     1  0.0000000  0.6973333  3
  11870  11865  11851  11873     1  0.0000000  1.0460000  1
  11870  11865  11851  11873     1  0.0000000  0.0000000  3
  11874  11875  11878  11882     1  0.0000000  0.6508444  3
  11874  11875  11887  11890     1  0.0000000  1.0460000  1
  11874  11875  11887  11890     1  0.0000000  0.6694400  3
  11874  11888  11894  11895     1  0.0000000  1.0460000  1
  11874  11888  11894  11895     1  0.0000000  0.6694400  3
  11874  11896  11880  11883     1  0.0000000  1.6038667  3
  11875  11874  11888  11892     1  0.0000000  0.6508444  3
  11875  11874  11888  11893     1  0.0000000  0.6508444  3
  11875  11878  11879  11881     1  0.0000000  0.6508444  3
  11875  11878  11886  11889     1  0.0000000  1.0460000  1
  11875  11878  11886  11889     1  0.0000000  0.6694400  3
  11876  11874  11875  11878     1  0.0000000  0.6508444  3
  11876  11874  11875  11887     1  0.0000000  1.0460000  1
  11876  11874  11875  11887     1  0.0000000  0.0000000  3
  11876  11874  11875  11877     1  0.0000000  0.6508444  3
  11876  11874  11888  11894     1  0.0000000  1.0460000  1
  11876  11874  11888  11894     1  0.0000000  0.0000000  3
  11876  11874  11888  11892     1  0.0000000  0.6508444  3
  11876  11874  11888  11893     1  0.0000000  0.6508444  3
  11876  11874  11896  11880     1  0.0000000  1.6038667  3
  11877  11875  11874  11888     1  0.0000000  0.6508444  3
  11877  11875  11874  11896     1  0.0000000  1.0460000  1
  11877  11875  11874  11896     1  0.0000000  0.0000000  3
  11877  11875  11878  11879     1  0.0000000  0.6508444  3
  11877  11875  11878  11886     1  0.0000000  1.0460000  1
  11877  11875  11878  11886     1  0.0000000  0.0000000  3
  11877  11875  11878  11882     1  0.0000000  0.6508444  3
  11877  11875  11887  11890     1  0.0000000  0.6973333  3
  11878  11875  11887  11890     1  0.0000000  1.0460000  1
  11878  11875  11887  11890     1  0.0000000  0.6694400  3
  11878  11879  11880  11883     1  0.0000000  0.6508444  3
  11878  11879  11885  11891     1  0.0000000  1.0460000  1
  11878  11879  11885  11891     1  0.0000000  0.6694400  3
  11879  11878  11886  11889     1  0.0000000  1.0460000  1
  11879  11878  11886  11889     1  0.0000000  0.6694400  3
  11880  11879  11878  11882     1  0.0000000  0.6508444  3
  11880  11879  11885  11891     1  0.0000000  1.0460000  1
  11880  11879  11885  11891     1  0.0000000  0.6694400  3
  11881  11879  11878  11886     1  0.0000000  1.0460000  1
  11881  11879  11878  11886     1  0.0000000  0.0000000  3
  11881  11879  11878  11882     1  0.0000000  0.6508444  3
  11881  11879  11880  11884     1  0.0000000  1.0460000  1
  11881  11879  11880  11884     1  0.0000000  0.0000000  3
  11881  11879  11880  11896     1  0.0000000  1.0460000  1
  11881  11879  11880  11896     1  0.0000000  0.0000000  3
  11881  11879  11880  11883     1  0.0000000  0.6508444  3
  11881  11879  11885  11891     1  0.0000000  0.6973333  3
  11882  11878  11875  11887     1  0.0000000  1.0460000  1
  11882  11878  11875  11887     1  0.0000000  0.0000000  3
  11882  11878  11879  11885     1  0.0000000  1.0460000  1
  11882  11878  11879  11885     1  0.0000000  0.0000000  3
  11882  11878  11886  11889     1  0.0000000  0.6973333  3
  11883  11880  11879  11885     1  0.0000000  0.6508444  3
  11892  11888  11874  11896     1  0.0000000  1.0460000  1
  11892  11888  11874  11896     1  0.0000000  0.0000000  3
  11892  11888  11894  11895     1  0.0000000  0.6973333  3
  11893  11888  11874  11896     1  0.0000000  1.0460000  1
  11893  11888  11874  11896     1  0.0000000  0.0000000  3
  11893  11888  11894  11895     1  0.0000000  0.6973333  3
  11897  11898  11901  11905     1  0.0000000  0.6508444  3
  11897  11898  11910  11913     1  0.0000000  1.0460000  1
  11897  11898  11910  11913     1  0.0000000  0.6694400  3
  11897  11911  11917  11918     1  0.0000000  1.0460000  1
  11897  11911  11917  11918     1  0.0000000  0.6694400  3
  11897  11919  11903  11906     1  0.0000000  1.6038667  3
  11898  11901  11902  11904     1  0.0000000  0.6508444  3
  11898  11901  11909  11912     1  0.0000000  1.0460000  1
  11898  11901  11909  11912     1  0.0000000  0.6694400  3
  11898  11897  11911  11915     1  0.0000000  0.6508444  3
  11898  11897  11911  11916     1  0.0000000  0.6508444  3
  11899  11897  11898  11901     1  0.0000000  0.6508444  3
  11899  11897  11898  11910     1  0.0000000  1.0460000  1
  11899  11897  11898  11910     1  0.0000000  0.0000000  3
  11899  11897  11898  11900     1  0.0000000  0.6508444  3
  11899  11897  11911  11917     1  0.0000000  1.0460000  1
  11899  11897  11911  11917     1  0.0000000  0.0000000  3
  11899  11897  11911  11915     1  0.0000000  0.6508444  3
  11899  11897  11911  11916     1  0.0000000  0.6508444  3
  11899  11897  11919  11903     1  0.0000000  1.6038667  3
  11900  11898  11901  11902     1  0.0000000  0.6508444  3
  11900  11898  11901  11909     1  0.0000000  1.0460000  1
  11900  11898  11901  11909     1  0.0000000  0.0000000  3
  11900  11898  11901  11905     1  0.0000000  0.6508444  3
  11900  11898  11910  11913     1  0.0000000  0.6973333  3
  11900  11898  11897  11911     1  0.0000000  0.6508444  3
  11900  11898  11897  11919     1  0.0000000  1.0460000  1
  11900  11898  11897  11919     1  0.0000000  0.0000000  3
  11901  11902  11903  11906     1  0.0000000  0.6508444  3
  11901  11902  11908  11914     1  0.0000000  1.0460000  1
  11901  11902  11908  11914     1  0.0000000  0.6694400  3
  11901  11898  11910  11913     1  0.0000000  1.0460000  1
  11901  11898  11910  11913     1  0.0000000  0.6694400  3
  11902  11901  11909  11912     1  0.0000000  1.0460000  1
  11902  11901  11909  11912     1  0.0000000  0.6694400  3
  11903  11902  11908  11914     1  0.0000000  1.0460000  1
  11903  11902  11908  11914     1  0.0000000  0.6694400  3
  11903  11902  11901  11905     1  0.0000000  0.6508444  3
  11904  11902  11903  11907     1  0.0000000  1.0460000  1
  11904  11902  11903  11907     1  0.0000000  0.0000000  3
  11904  11902  11903  11919     1  0.0000000  1.0460000  1
  11904  11902  11903  11919     1  0.0000000  0.0000000  3
  11904  11902  11903  11906     1  0.0000000  0.6508444  3
  11904  11902  11908  11914     1  0.0000000  0.6973333  3
  11904  11902  11901  11909     1  0.0000000  1.0460000  1
  11904  11902  11901  11909     1  0.0000000  0.0000000  3
  11904  11902  11901  11905     1  0.0000000  0.6508444  3
  11905  11901  11902  11908     1  0.0000000  1.0460000  1
  11905  11901  11902  11908     1  0.0000000  0.0000000  3
  11905  11901  11909  11912     1  0.0000000  0.6973333  3
  11905  11901  11898  11910     1  0.0000000  1.0460000  1
  11905  11901  11898  11910     1  0.0000000  0.0000000  3
  11906  11903  11902  11908     1  0.0000000  0.6508444  3
  11915  11911  11917  11918     1  0.0000000  0.6973333  3
  11915  11911  11897  11919     1  0.0000000  1.0460000  1
  11915  11911  11897  11919     1  0.0000000  0.0000000  3
  11916  11911  11917  11918     1  0.0000000  0.6973333  3
  11916  11911  11897  11919     1  0.0000000  1.0460000  1
  11916  11911  11897  11919     1  0.0000000  0.0000000  3
  11920  11921  11924  11928     1  0.0000000  0.6508444  3
  11920  11921  11933  11936     1  0.0000000  1.0460000  1
  11920  11921  11933  11936     1  0.0000000  0.6694400  3
  11920  11934  11940  11941     1  0.0000000  1.0460000  1
  11920  11934  11940  11941     1  0.0000000  0.6694400  3
  11920  11942  11926  11929     1  0.0000000  1.6038667  3
  11921  11920  11934  11938     1  0.0000000  0.6508444  3
  11921  11920  11934  11939     1  0.0000000  0.6508444  3
  11921  11924  11925  11927     1  0.0000000  0.6508444  3
  11921  11924  11932  11935     1  0.0000000  1.0460000  1
  11921  11924  11932  11935     1  0.0000000  0.6694400  3
  11922  11920  11921  11924     1  0.0000000  0.6508444  3
  11922  11920  11921  11933     1  0.0000000  1.0460000  1
  11922  11920  11921  11933     1  0.0000000  0.0000000  3
  11922  11920  11921  11923     1  0.0000000  0.6508444  3
  11922  11920  11934  11940     1  0.0000000  1.0460000  1
  11922  11920  11934  11940     1  0.0000000  0.0000000  3
  11922  11920  11934  11938     1  0.0000000  0.6508444  3
  11922  11920  11934  11939     1  0.0000000  0.6508444  3
  11922  11920  11942  11926     1  0.0000000  1.6038667  3
  11923  11921  11920  11934     1  0.0000000  0.6508444  3
  11923  11921  11920  11942     1  0.0000000  1.0460000  1
  11923  11921  11920  11942     1  0.0000000  0.0000000  3
  11923  11921  11924  11925     1  0.0000000  0.6508444  3
  11923  11921  11924  11932     1  0.0000000  1.0460000  1
  11923  11921  11924  11932     1  0.0000000  0.0000000  3
  11923  11921  11924  11928     1  0.0000000  0.6508444  3
  11923  11921  11933  11936     1  0.0000000  0.6973333  3
  11924  11921  11933  11936     1  0.0000000  1.0460000  1
  11924  11921  11933  11936     1  0.0000000  0.6694400  3
  11924  11925  11926  11929     1  0.0000000  0.6508444  3
  11924  11925  11931  11937     1  0.0000000  1.0460000  1
  11924  11925  11931  11937     1  0.0000000  0.6694400  3
  11925  11924  11932  11935     1  0.0000000  1.0460000  1
  11925  11924  11932  11935     1  0.0000000  0.6694400  3
  11926  11925  11924  11928     1  0.0000000  0.6508444  3
  11926  11925  11931  11937     1  0.0000000  1.0460000  1
  11926  11925  11931  11937     1  0.0000000  0.6694400  3
  11927  11925  11924  11932     1  0.0000000  1.0460000  1
  11927  11925  11924  11932     1  0.0000000  0.0000000  3
  11927  11925  11924  11928     1  0.0000000  0.6508444  3
  11927  11925  11926  11930     1  0.0000000  1.0460000  1
  11927  11925  11926  11930     1  0.0000000  0.0000000  3
  11927  11925  11926  11942     1  0.0000000  1.0460000  1
  11927  11925  11926  11942     1  0.0000000  0.0000000  3
  11927  11925  11926  11929     1  0.0000000  0.6508444  3
  11927  11925  11931  11937     1  0.0000000  0.6973333  3
  11928  11924  11921  11933     1  0.0000000  1.0460000  1
  11928  11924  11921  11933     1  0.0000000  0.0000000  3
  11928  11924  11925  11931     1  0.0000000  1.0460000  1
  11928  11924  11925  11931     1  0.0000000  0.0000000  3
  11928  11924  11932  11935     1  0.0000000  0.6973333  3
  11929  11926  11925  11931     1  0.0000000  0.6508444  3
  11938  11934  11920  11942     1  0.0000000  1.0460000  1
  11938  11934  11920  11942     1  0.0000000  0.0000000  3
  11938  11934  11940  11941     1  0.0000000  0.6973333  3
  11939  11934  11920  11942     1  0.0000000  1.0460000  1
  11939  11934  11920  11942     1  0.0000000  0.0000000  3
  11939  11934  11940  11941     1  0.0000000  0.6973333  3
  11943  11944  11947  11951     1  0.0000000  0.6508444  3
  11943  11944  11956  11959     1  0.0000000  1.0460000  1
  11943  11944  11956  11959     1  0.0000000  0.6694400  3
  11943  11957  11963  11964     1  0.0000000  1.0460000  1
  11943  11957  11963  11964     1  0.0000000  0.6694400  3
  11943  11965  11949  11952     1  0.0000000  1.6038667  3
  11944  11947  11948  11950     1  0.0000000  0.6508444  3
  11944  11947  11955  11958     1  0.0000000  1.0460000  1
  11944  11947  11955  11958     1  0.0000000  0.6694400  3
  11944  11943  11957  11961     1  0.0000000  0.6508444  3
  11944  11943  11957  11962     1  0.0000000  0.6508444  3
  11945  11943  11944  11947     1  0.0000000  0.6508444  3
  11945  11943  11944  11956     1  0.0000000  1.0460000  1
  11945  11943  11944  11956     1  0.0000000  0.0000000  3
  11945  11943  11944  11946     1  0.0000000  0.6508444  3
  11945  11943  11957  11963     1  0.0000000  1.0460000  1
  11945  11943  11957  11963     1  0.0000000  0.0000000  3
  11945  11943  11957  11961     1  0.0000000  0.6508444  3
  11945  11943  11957  11962     1  0.0000000  0.6508444  3
  11945  11943  11965  11949     1  0.0000000  1.6038667  3
  11946  11944  11947  11948     1  0.0000000  0.6508444  3
  11946  11944  11947  11955     1  0.0000000  1.0460000  1
  11946  11944  11947  11955     1  0.0000000  0.0000000  3
  11946  11944  11947  11951     1  0.0000000  0.6508444  3
  11946  11944  11956  11959     1  0.0000000  0.6973333  3
  11946  11944  11943  11957     1  0.0000000  0.6508444  3
  11946  11944  11943  11965     1  0.0000000  1.0460000  1
  11946  11944  11943  11965     1  0.0000000  0.0000000  3
  11947  11948  11949  11952     1  0.0000000  0.6508444  3
  11947  11948  11954  11960     1  0.0000000  1.0460000  1
  11947  11948  11954  11960     1  0.0000000  0.6694400  3
  11947  11944  11956  11959     1  0.0000000  1.0460000  1
  11947  11944  11956  11959     1  0.0000000  0.6694400  3
  11948  11947  11955  11958     1  0.0000000  1.0460000  1
  11948  11947  11955  11958     1  0.0000000  0.6694400  3
  11949  11948  11954  11960     1  0.0000000  1.0460000  1
  11949  11948  11954  11960     1  0.0000000  0.6694400  3
  11949  11948  11947  11951     1  0.0000000  0.6508444  3
  11950  11948  11949  11953     1  0.0000000  1.0460000  1
  11950  11948  11949  11953     1  0.0000000  0.0000000  3
  11950  11948  11949  11965     1  0.0000000  1.0460000  1
  11950  11948  11949  11965     1  0.0000000  0.0000000  3
  11950  11948  11949  11952     1  0.0000000  0.6508444  3
  11950  11948  11954  11960     1  0.0000000  0.6973333  3
  11950  11948  11947  11955     1  0.0000000  1.0460000  1
  11950  11948  11947  11955     1  0.0000000  0.0000000  3
  11950  11948  11947  11951     1  0.0000000  0.6508444  3
  11951  11947  11948  11954     1  0.0000000  1.0460000  1
  11951  11947  11948  11954     1  0.0000000  0.0000000  3
  11951  11947  11955  11958     1  0.0000000  0.6973333  3
  11951  11947  11944  11956     1  0.0000000  1.0460000  1
  11951  11947  11944  11956     1  0.0000000  0.0000000  3
  11952  11949  11948  11954     1  0.0000000  0.6508444  3
  11961  11957  11963  11964     1  0.0000000  0.6973333  3
  11961  11957  11943  11965     1  0.0000000  1.0460000  1
  11961  11957  11943  11965     1  0.0000000  0.0000000  3
  11962  11957  11963  11964     1  0.0000000  0.6973333  3
  11962  11957  11943  11965     1  0.0000000  1.0460000  1
  11962  11957  11943  11965     1  0.0000000  0.0000000  3
  11966  11967  11970  11974     1  0.0000000  0.6508444  3
  11966  11967  11979  11982     1  0.0000000  1.0460000  1
  11966  11967  11979  11982     1  0.0000000  0.6694400  3
  11966  11980  11986  11987     1  0.0000000  1.0460000  1
  11966  11980  11986  11987     1  0.0000000  0.6694400  3
  11966  11988  11972  11975     1  0.0000000  1.6038667  3
  11967  11966  11980  11984     1  0.0000000  0.6508444  3
  11967  11966  11980  11985     1  0.0000000  0.6508444  3
  11967  11970  11971  11973     1  0.0000000  0.6508444  3
  11967  11970  11978  11981     1  0.0000000  1.0460000  1
  11967  11970  11978  11981     1  0.0000000  0.6694400  3
  11968  11966  11967  11970     1  0.0000000  0.6508444  3
  11968  11966  11967  11979     1  0.0000000  1.0460000  1
  11968  11966  11967  11979     1  0.0000000  0.0000000  3
  11968  11966  11967  11969     1  0.0000000  0.6508444  3
  11968  11966  11980  11986     1  0.0000000  1.0460000  1
  11968  11966  11980  11986     1  0.0000000  0.0000000  3
  11968  11966  11980  11984     1  0.0000000  0.6508444  3
  11968  11966  11980  11985     1  0.0000000  0.6508444  3
  11968  11966  11988  11972     1  0.0000000  1.6038667  3
  11969  11967  11966  11980     1  0.0000000  0.6508444  3
  11969  11967  11966  11988     1  0.0000000  1.0460000  1
  11969  11967  11966  11988     1  0.0000000  0.0000000  3
  11969  11967  11970  11971     1  0.0000000  0.6508444  3
  11969  11967  11970  11978     1  0.0000000  1.0460000  1
  11969  11967  11970  11978     1  0.0000000  0.0000000  3
  11969  11967  11970  11974     1  0.0000000  0.6508444  3
  11969  11967  11979  11982     1  0.0000000  0.6973333  3
  11970  11967  11979  11982     1  0.0000000  1.0460000  1
  11970  11967  11979  11982     1  0.0000000  0.6694400  3
  11970  11971  11972  11975     1  0.0000000  0.6508444  3
  11970  11971  11977  11983     1  0.0000000  1.0460000  1
  11970  11971  11977  11983     1  0.0000000  0.6694400  3
  11971  11970  11978  11981     1  0.0000000  1.0460000  1
  11971  11970  11978  11981     1  0.0000000  0.6694400  3
  11972  11971  11970  11974     1  0.0000000  0.6508444  3
  11972  11971  11977  11983     1  0.0000000  1.0460000  1
  11972  11971  11977  11983     1  0.0000000  0.6694400  3
  11973  11971  11970  11978     1  0.0000000  1.0460000  1
  11973  11971  11970  11978     1  0.0000000  0.0000000  3
  11973  11971  11970  11974     1  0.0000000  0.6508444  3
  11973  11971  11972  11976     1  0.0000000  1.0460000  1
  11973  11971  11972  11976     1  0.0000000  0.0000000  3
  11973  11971  11972  11988     1  0.0000000  1.0460000  1
  11973  11971  11972  11988     1  0.0000000  0.0000000  3
  11973  11971  11972  11975     1  0.0000000  0.6508444  3
  11973  11971  11977  11983     1  0.0000000  0.6973333  3
  11974  11970  11967  11979     1  0.0000000  1.0460000  1
  11974  11970  11967  11979     1  0.0000000  0.0000000  3
  11974  11970  11971  11977     1  0.0000000  1.0460000  1
  11974  11970  11971  11977     1  0.0000000  0.0000000  3
  11974  11970  11978  11981     1  0.0000000  0.6973333  3
  11975  11972  11971  11977     1  0.0000000  0.6508444  3
  11984  11980  11966  11988     1  0.0000000  1.0460000  1
  11984  11980  11966  11988     1  0.0000000  0.0000000  3
  11984  11980  11986  11987     1  0.0000000  0.6973333  3
  11985  11980  11966  11988     1  0.0000000  1.0460000  1
  11985  11980  11966  11988     1  0.0000000  0.0000000  3
  11985  11980  11986  11987     1  0.0000000  0.6973333  3
  11989  11990  11993  11997     1  0.0000000  0.6508444  3
  11989  11990  12002  12005     1  0.0000000  1.0460000  1
  11989  11990  12002  12005     1  0.0000000  0.6694400  3
  11989  12003  12009  12010     1  0.0000000  1.0460000  1
  11989  12003  12009  12010     1  0.0000000  0.6694400  3
  11989  12011  11995  11998     1  0.0000000  1.6038667  3
  11990  11993  11994  11996     1  0.0000000  0.6508444  3
  11990  11993  12001  12004     1  0.0000000  1.0460000  1
  11990  11993  12001  12004     1  0.0000000  0.6694400  3
  11990  11989  12003  12007     1  0.0000000  0.6508444  3
  11990  11989  12003  12008     1  0.0000000  0.6508444  3
  11991  11989  11990  11993     1  0.0000000  0.6508444  3
  11991  11989  11990  12002     1  0.0000000  1.0460000  1
  11991  11989  11990  12002     1  0.0000000  0.0000000  3
  11991  11989  11990  11992     1  0.0000000  0.6508444  3
  11991  11989  12003  12009     1  0.0000000  1.0460000  1
  11991  11989  12003  12009     1  0.0000000  0.0000000  3
  11991  11989  12003  12007     1  0.0000000  0.6508444  3
  11991  11989  12003  12008     1  0.0000000  0.6508444  3
  11991  11989  12011  11995     1  0.0000000  1.6038667  3
  11992  11990  11993  11994     1  0.0000000  0.6508444  3
  11992  11990  11993  12001     1  0.0000000  1.0460000  1
  11992  11990  11993  12001     1  0.0000000  0.0000000  3
  11992  11990  11993  11997     1  0.0000000  0.6508444  3
  11992  11990  12002  12005     1  0.0000000  0.6973333  3
  11992  11990  11989  12003     1  0.0000000  0.6508444  3
  11992  11990  11989  12011     1  0.0000000  1.0460000  1
  11992  11990  11989  12011     1  0.0000000  0.0000000  3
  11993  11994  11995  11998     1  0.0000000  0.6508444  3
  11993  11994  12000  12006     1  0.0000000  1.0460000  1
  11993  11994  12000  12006     1  0.0000000  0.6694400  3
  11993  11990  12002  12005     1  0.0000000  1.0460000  1
  11993  11990  12002  12005     1  0.0000000  0.6694400  3
  11994  11993  12001  12004     1  0.0000000  1.0460000  1
  11994  11993  12001  12004     1  0.0000000  0.6694400  3
  11995  11994  12000  12006     1  0.0000000  1.0460000  1
  11995  11994  12000  12006     1  0.0000000  0.6694400  3
  11995  11994  11993  11997     1  0.0000000  0.6508444  3
  11996  11994  11995  11999     1  0.0000000  1.0460000  1
  11996  11994  11995  11999     1  0.0000000  0.0000000  3
  11996  11994  11995  12011     1  0.0000000  1.0460000  1
  11996  11994  11995  12011     1  0.0000000  0.0000000  3
  11996  11994  11995  11998     1  0.0000000  0.6508444  3
  11996  11994  12000  12006     1  0.0000000  0.6973333  3
  11996  11994  11993  12001     1  0.0000000  1.0460000  1
  11996  11994  11993  12001     1  0.0000000  0.0000000  3
  11996  11994  11993  11997     1  0.0000000  0.6508444  3
  11997  11993  11994  12000     1  0.0000000  1.0460000  1
  11997  11993  11994  12000     1  0.0000000  0.0000000  3
  11997  11993  12001  12004     1  0.0000000  0.6973333  3
  11997  11993  11990  12002     1  0.0000000  1.0460000  1
  11997  11993  11990  12002     1  0.0000000  0.0000000  3
  11998  11995  11994  12000     1  0.0000000  0.6508444  3
  12007  12003  12009  12010     1  0.0000000  0.6973333  3
  12007  12003  11989  12011     1  0.0000000  1.0460000  1
  12007  12003  11989  12011     1  0.0000000  0.0000000  3
  12008  12003  12009  12010     1  0.0000000  0.6973333  3
  12008  12003  11989  12011     1  0.0000000  1.0460000  1
  12008  12003  11989  12011     1  0.0000000  0.0000000  3
  12012  12013  12016  12020     1  0.0000000  0.6508444  3
  12012  12013  12025  12028     1  0.0000000  1.0460000  1
  12012  12013  12025  12028     1  0.0000000  0.6694400  3
  12012  12026  12032  12033     1  0.0000000  1.0460000  1
  12012  12026  12032  12033     1  0.0000000  0.6694400  3
  12012  12034  12018  12021     1  0.0000000  1.6038667  3
  12013  12012  12026  12030     1  0.0000000  0.6508444  3
  12013  12012  12026  12031     1  0.0000000  0.6508444  3
  12013  12016  12017  12019     1  0.0000000  0.6508444  3
  12013  12016  12024  12027     1  0.0000000  1.0460000  1
  12013  12016  12024  12027     1  0.0000000  0.6694400  3
  12014  12012  12013  12016     1  0.0000000  0.6508444  3
  12014  12012  12013  12025     1  0.0000000  1.0460000  1
  12014  12012  12013  12025     1  0.0000000  0.0000000  3
  12014  12012  12013  12015     1  0.0000000  0.6508444  3
  12014  12012  12026  12032     1  0.0000000  1.0460000  1
  12014  12012  12026  12032     1  0.0000000  0.0000000  3
  12014  12012  12026  12030     1  0.0000000  0.6508444  3
  12014  12012  12026  12031     1  0.0000000  0.6508444  3
  12014  12012  12034  12018     1  0.0000000  1.6038667  3
  12015  12013  12012  12026     1  0.0000000  0.6508444  3
  12015  12013  12012  12034     1  0.0000000  1.0460000  1
  12015  12013  12012  12034     1  0.0000000  0.0000000  3
  12015  12013  12016  12017     1  0.0000000  0.6508444  3
  12015  12013  12016  12024     1  0.0000000  1.0460000  1
  12015  12013  12016  12024     1  0.0000000  0.0000000  3
  12015  12013  12016  12020     1  0.0000000  0.6508444  3
  12015  12013  12025  12028     1  0.0000000  0.6973333  3
  12016  12013  12025  12028     1  0.0000000  1.0460000  1
  12016  12013  12025  12028     1  0.0000000  0.6694400  3
  12016  12017  12018  12021     1  0.0000000  0.6508444  3
  12016  12017  12023  12029     1  0.0000000  1.0460000  1
  12016  12017  12023  12029     1  0.0000000  0.6694400  3
  12017  12016  12024  12027     1  0.0000000  1.0460000  1
  12017  12016  12024  12027     1  0.0000000  0.6694400  3
  12018  12017  12016  12020     1  0.0000000  0.6508444  3
  12018  12017  12023  12029     1  0.0000000  1.0460000  1
  12018  12017  12023  12029     1  0.0000000  0.6694400  3
  12019  12017  12016  12024     1  0.0000000  1.0460000  1
  12019  12017  12016  12024     1  0.0000000  0.0000000  3
  12019  12017  12016  12020     1  0.0000000  0.6508444  3
  12019  12017  12018  12022     1  0.0000000  1.0460000  1
  12019  12017  12018  12022     1  0.0000000  0.0000000  3
  12019  12017  12018  12034     1  0.0000000  1.0460000  1
  12019  12017  12018  12034     1  0.0000000  0.0000000  3
  12019  12017  12018  12021     1  0.0000000  0.6508444  3
  12019  12017  12023  12029     1  0.0000000  0.6973333  3
  12020  12016  12013  12025     1  0.0000000  1.0460000  1
  12020  12016  12013  12025     1  0.0000000  0.0000000  3
  12020  12016  12017  12023     1  0.0000000  1.0460000  1
  12020  12016  12017  12023     1  0.0000000  0.0000000  3
  12020  12016  12024  12027     1  0.0000000  0.6973333  3
  12021  12018  12017  12023     1  0.0000000  0.6508444  3
  12030  12026  12012  12034     1  0.0000000  1.0460000  1
  12030  12026  12012  12034     1  0.0000000  0.0000000  3
  12030  12026  12032  12033     1  0.0000000  0.6973333  3
  12031  12026  12012  12034     1  0.0000000  1.0460000  1
  12031  12026  12012  12034     1  0.0000000  0.0000000  3
  12031  12026  12032  12033     1  0.0000000  0.6973333  3
  12035  12036  12039  12043     1  0.0000000  0.6508444  3
  12035  12036  12048  12051     1  0.0000000  1.0460000  1
  12035  12036  12048  12051     1  0.0000000  0.6694400  3
  12035  12049  12055  12056     1  0.0000000  1.0460000  1
  12035  12049  12055  12056     1  0.0000000  0.6694400  3
  12035  12057  12041  12044     1  0.0000000  1.6038667  3
  12036  12039  12040  12042     1  0.0000000  0.6508444  3
  12036  12039  12047  12050     1  0.0000000  1.0460000  1
  12036  12039  12047  12050     1  0.0000000  0.6694400  3
  12036  12035  12049  12053     1  0.0000000  0.6508444  3
  12036  12035  12049  12054     1  0.0000000  0.6508444  3
  12037  12035  12036  12039     1  0.0000000  0.6508444  3
  12037  12035  12036  12048     1  0.0000000  1.0460000  1
  12037  12035  12036  12048     1  0.0000000  0.0000000  3
  12037  12035  12036  12038     1  0.0000000  0.6508444  3
  12037  12035  12049  12055     1  0.0000000  1.0460000  1
  12037  12035  12049  12055     1  0.0000000  0.0000000  3
  12037  12035  12049  12053     1  0.0000000  0.6508444  3
  12037  12035  12049  12054     1  0.0000000  0.6508444  3
  12037  12035  12057  12041     1  0.0000000  1.6038667  3
  12038  12036  12039  12040     1  0.0000000  0.6508444  3
  12038  12036  12039  12047     1  0.0000000  1.0460000  1
  12038  12036  12039  12047     1  0.0000000  0.0000000  3
  12038  12036  12039  12043     1  0.0000000  0.6508444  3
  12038  12036  12048  12051     1  0.0000000  0.6973333  3
  12038  12036  12035  12049     1  0.0000000  0.6508444  3
  12038  12036  12035  12057     1  0.0000000  1.0460000  1
  12038  12036  12035  12057     1  0.0000000  0.0000000  3
  12039  12040  12041  12044     1  0.0000000  0.6508444  3
  12039  12040  12046  12052     1  0.0000000  1.0460000  1
  12039  12040  12046  12052     1  0.0000000  0.6694400  3
  12039  12036  12048  12051     1  0.0000000  1.0460000  1
  12039  12036  12048  12051     1  0.0000000  0.6694400  3
  12040  12039  12047  12050     1  0.0000000  1.0460000  1
  12040  12039  12047  12050     1  0.0000000  0.6694400  3
  12041  12040  12046  12052     1  0.0000000  1.0460000  1
  12041  12040  12046  12052     1  0.0000000  0.6694400  3
  12041  12040  12039  12043     1  0.0000000  0.6508444  3
  12042  12040  12041  12045     1  0.0000000  1.0460000  1
  12042  12040  12041  12045     1  0.0000000  0.0000000  3
  12042  12040  12041  12057     1  0.0000000  1.0460000  1
  12042  12040  12041  12057     1  0.0000000  0.0000000  3
  12042  12040  12041  12044     1  0.0000000  0.6508444  3
  12042  12040  12046  12052     1  0.0000000  0.6973333  3
  12042  12040  12039  12047     1  0.0000000  1.0460000  1
  12042  12040  12039  12047     1  0.0000000  0.0000000  3
  12042  12040  12039  12043     1  0.0000000  0.6508444  3
  12043  12039  12040  12046     1  0.0000000  1.0460000  1
  12043  12039  12040  12046     1  0.0000000  0.0000000  3
  12043  12039  12047  12050     1  0.0000000  0.6973333  3
  12043  12039  12036  12048     1  0.0000000  1.0460000  1
  12043  12039  12036  12048     1  0.0000000  0.0000000  3
  12044  12041  12040  12046     1  0.0000000  0.6508444  3
  12053  12049  12055  12056     1  0.0000000  0.6973333  3
  12053  12049  12035  12057     1  0.0000000  1.0460000  1
  12053  12049  12035  12057     1  0.0000000  0.0000000  3
  12054  12049  12055  12056     1  0.0000000  0.6973333  3
  12054  12049  12035  12057     1  0.0000000  1.0460000  1
  12054  12049  12035  12057     1  0.0000000  0.0000000  3
  12058  12059  12062  12066     1  0.0000000  0.6508444  3
  12058  12059  12071  12074     1  0.0000000  1.0460000  1
  12058  12059  12071  12074     1  0.0000000  0.6694400  3
  12058  12072  12078  12079     1  0.0000000  1.0460000  1
  12058  12072  12078  12079     1  0.0000000  0.6694400  3
  12058  12080  12064  12067     1  0.0000000  1.6038667  3
  12059  12058  12072  12076     1  0.0000000  0.6508444  3
  12059  12058  12072  12077     1  0.0000000  0.6508444  3
  12059  12062  12063  12065     1  0.0000000  0.6508444  3
  12059  12062  12070  12073     1  0.0000000  1.0460000  1
  12059  12062  12070  12073     1  0.0000000  0.6694400  3
  12060  12058  12059  12062     1  0.0000000  0.6508444  3
  12060  12058  12059  12071     1  0.0000000  1.0460000  1
  12060  12058  12059  12071     1  0.0000000  0.0000000  3
  12060  12058  12059  12061     1  0.0000000  0.6508444  3
  12060  12058  12072  12078     1  0.0000000  1.0460000  1
  12060  12058  12072  12078     1  0.0000000  0.0000000  3
  12060  12058  12072  12076     1  0.0000000  0.6508444  3
  12060  12058  12072  12077     1  0.0000000  0.6508444  3
  12060  12058  12080  12064     1  0.0000000  1.6038667  3
  12061  12059  12058  12072     1  0.0000000  0.6508444  3
  12061  12059  12058  12080     1  0.0000000  1.0460000  1
  12061  12059  12058  12080     1  0.0000000  0.0000000  3
  12061  12059  12062  12063     1  0.0000000  0.6508444  3
  12061  12059  12062  12070     1  0.0000000  1.0460000  1
  12061  12059  12062  12070     1  0.0000000  0.0000000  3
  12061  12059  12062  12066     1  0.0000000  0.6508444  3
  12061  12059  12071  12074     1  0.0000000  0.6973333  3
  12062  12059  12071  12074     1  0.0000000  1.0460000  1
  12062  12059  12071  12074     1  0.0000000  0.6694400  3
  12062  12063  12064  12067     1  0.0000000  0.6508444  3
  12062  12063  12069  12075     1  0.0000000  1.0460000  1
  12062  12063  12069  12075     1  0.0000000  0.6694400  3
  12063  12062  12070  12073     1  0.0000000  1.0460000  1
  12063  12062  12070  12073     1  0.0000000  0.6694400  3
  12064  12063  12062  12066     1  0.0000000  0.6508444  3
  12064  12063  12069  12075     1  0.0000000  1.0460000  1
  12064  12063  12069  12075     1  0.0000000  0.6694400  3
  12065  12063  12062  12070     1  0.0000000  1.0460000  1
  12065  12063  12062  12070     1  0.0000000  0.0000000  3
  12065  12063  12062  12066     1  0.0000000  0.6508444  3
  12065  12063  12064  12068     1  0.0000000  1.0460000  1
  12065  12063  12064  12068     1  0.0000000  0.0000000  3
  12065  12063  12064  12080     1  0.0000000  1.0460000  1
  12065  12063  12064  12080     1  0.0000000  0.0000000  3
  12065  12063  12064  12067     1  0.0000000  0.6508444  3
  12065  12063  12069  12075     1  0.0000000  0.6973333  3
  12066  12062  12059  12071     1  0.0000000  1.0460000  1
  12066  12062  12059  12071     1  0.0000000  0.0000000  3
  12066  12062  12063  12069     1  0.0000000  1.0460000  1
  12066  12062  12063  12069     1  0.0000000  0.0000000  3
  12066  12062  12070  12073     1  0.0000000  0.6973333  3
  12067  12064  12063  12069     1  0.0000000  0.6508444  3
  12076  12072  12058  12080     1  0.0000000  1.0460000  1
  12076  12072  12058  12080     1  0.0000000  0.0000000  3
  12076  12072  12078  12079     1  0.0000000  0.6973333  3
  12077  12072  12058  12080     1  0.0000000  1.0460000  1
  12077  12072  12058  12080     1  0.0000000  0.0000000  3
  12077  12072  12078  12079     1  0.0000000  0.6973333  3
  12081  12082  12085  12089     1  0.0000000  0.6508444  3
  12081  12082  12094  12097     1  0.0000000  1.0460000  1
  12081  12082  12094  12097     1  0.0000000  0.6694400  3
  12081  12095  12101  12102     1  0.0000000  1.0460000  1
  12081  12095  12101  12102     1  0.0000000  0.6694400  3
  12081  12103  12087  12090     1  0.0000000  1.6038667  3
  12082  12085  12086  12088     1  0.0000000  0.6508444  3
  12082  12085  12093  12096     1  0.0000000  1.0460000  1
  12082  12085  12093  12096     1  0.0000000  0.6694400  3
  12082  12081  12095  12099     1  0.0000000  0.6508444  3
  12082  12081  12095  12100     1  0.0000000  0.6508444  3
  12083  12081  12082  12085     1  0.0000000  0.6508444  3
  12083  12081  12082  12094     1  0.0000000  1.0460000  1
  12083  12081  12082  12094     1  0.0000000  0.0000000  3
  12083  12081  12082  12084     1  0.0000000  0.6508444  3
  12083  12081  12095  12101     1  0.0000000  1.0460000  1
  12083  12081  12095  12101     1  0.0000000  0.0000000  3
  12083  12081  12095  12099     1  0.0000000  0.6508444  3
  12083  12081  12095  12100     1  0.0000000  0.6508444  3
  12083  12081  12103  12087     1  0.0000000  1.6038667  3
  12084  12082  12085  12086     1  0.0000000  0.6508444  3
  12084  12082  12085  12093     1  0.0000000  1.0460000  1
  12084  12082  12085  12093     1  0.0000000  0.0000000  3
  12084  12082  12085  12089     1  0.0000000  0.6508444  3
  12084  12082  12094  12097     1  0.0000000  0.6973333  3
  12084  12082  12081  12095     1  0.0000000  0.6508444  3
  12084  12082  12081  12103     1  0.0000000  1.0460000  1
  12084  12082  12081  12103     1  0.0000000  0.0000000  3
  12085  12086  12087  12090     1  0.0000000  0.6508444  3
  12085  12086  12092  12098     1  0.0000000  1.0460000  1
  12085  12086  12092  12098     1  0.0000000  0.6694400  3
  12085  12082  12094  12097     1  0.0000000  1.0460000  1
  12085  12082  12094  12097     1  0.0000000  0.6694400  3
  12086  12085  12093  12096     1  0.0000000  1.0460000  1
  12086  12085  12093  12096     1  0.0000000  0.6694400  3
  12087  12086  12092  12098     1  0.0000000  1.0460000  1
  12087  12086  12092  12098     1  0.0000000  0.6694400  3
  12087  12086  12085  12089     1  0.0000000  0.6508444  3
  12088  12086  12087  12091     1  0.0000000  1.0460000  1
  12088  12086  12087  12091     1  0.0000000  0.0000000  3
  12088  12086  12087  12103     1  0.0000000  1.0460000  1
  12088  12086  12087  12103     1  0.0000000  0.0000000  3
  12088  12086  12087  12090     1  0.0000000  0.6508444  3
  12088  12086  12092  12098     1  0.0000000  0.6973333  3
  12088  12086  12085  12093     1  0.0000000  1.0460000  1
  12088  12086  12085  12093     1  0.0000000  0.0000000  3
  12088  12086  12085  12089     1  0.0000000  0.6508444  3
  12089  12085  12086  12092     1  0.0000000  1.0460000  1
  12089  12085  12086  12092     1  0.0000000  0.0000000  3
  12089  12085  12093  12096     1  0.0000000  0.6973333  3
  12089  12085  12082  12094     1  0.0000000  1.0460000  1
  12089  12085  12082  12094     1  0.0000000  0.0000000  3
  12090  12087  12086  12092     1  0.0000000  0.6508444  3
  12099  12095  12101  12102     1  0.0000000  0.6973333  3
  12099  12095  12081  12103     1  0.0000000  1.0460000  1
  12099  12095  12081  12103     1  0.0000000  0.0000000  3
  12100  12095  12101  12102     1  0.0000000  0.6973333  3
  12100  12095  12081  12103     1  0.0000000  1.0460000  1
  12100  12095  12081  12103     1  0.0000000  0.0000000  3
  12104  12105  12108  12112     1  0.0000000  0.6508444  3
  12104  12105  12117  12120     1  0.0000000  1.0460000  1
  12104  12105  12117  12120     1  0.0000000  0.6694400  3
  12104  12118  12124  12125     1  0.0000000  1.0460000  1
  12104  12118  12124  12125     1  0.0000000  0.6694400  3
  12104  12126  12110  12113     1  0.0000000  1.6038667  3
  12105  12104  12118  12122     1  0.0000000  0.6508444  3
  12105  12104  12118  12123     1  0.0000000  0.6508444  3
  12105  12108  12109  12111     1  0.0000000  0.6508444  3
  12105  12108  12116  12119     1  0.0000000  1.0460000  1
  12105  12108  12116  12119     1  0.0000000  0.6694400  3
  12106  12104  12105  12108     1  0.0000000  0.6508444  3
  12106  12104  12105  12117     1  0.0000000  1.0460000  1
  12106  12104  12105  12117     1  0.0000000  0.0000000  3
  12106  12104  12105  12107     1  0.0000000  0.6508444  3
  12106  12104  12118  12124     1  0.0000000  1.0460000  1
  12106  12104  12118  12124     1  0.0000000  0.0000000  3
  12106  12104  12118  12122     1  0.0000000  0.6508444  3
  12106  12104  12118  12123     1  0.0000000  0.6508444  3
  12106  12104  12126  12110     1  0.0000000  1.6038667  3
  12107  12105  12104  12118     1  0.0000000  0.6508444  3
  12107  12105  12104  12126     1  0.0000000  1.0460000  1
  12107  12105  12104  12126     1  0.0000000  0.0000000  3
  12107  12105  12108  12109     1  0.0000000  0.6508444  3
  12107  12105  12108  12116     1  0.0000000  1.0460000  1
  12107  12105  12108  12116     1  0.0000000  0.0000000  3
  12107  12105  12108  12112     1  0.0000000  0.6508444  3
  12107  12105  12117  12120     1  0.0000000  0.6973333  3
  12108  12105  12117  12120     1  0.0000000  1.0460000  1
  12108  12105  12117  12120     1  0.0000000  0.6694400  3
  12108  12109  12110  12113     1  0.0000000  0.6508444  3
  12108  12109  12115  12121     1  0.0000000  1.0460000  1
  12108  12109  12115  12121     1  0.0000000  0.6694400  3
  12109  12108  12116  12119     1  0.0000000  1.0460000  1
  12109  12108  12116  12119     1  0.0000000  0.6694400  3
  12110  12109  12108  12112     1  0.0000000  0.6508444  3
  12110  12109  12115  12121     1  0.0000000  1.0460000  1
  12110  12109  12115  12121     1  0.0000000  0.6694400  3
  12111  12109  12108  12116     1  0.0000000  1.0460000  1
  12111  12109  12108  12116     1  0.0000000  0.0000000  3
  12111  12109  12108  12112     1  0.0000000  0.6508444  3
  12111  12109  12110  12114     1  0.0000000  1.0460000  1
  12111  12109  12110  12114     1  0.0000000  0.0000000  3
  12111  12109  12110  12126     1  0.0000000  1.0460000  1
  12111  12109  12110  12126     1  0.0000000  0.0000000  3
  12111  12109  12110  12113     1  0.0000000  0.6508444  3
  12111  12109  12115  12121     1  0.0000000  0.6973333  3
  12112  12108  12105  12117     1  0.0000000  1.0460000  1
  12112  12108  12105  12117     1  0.0000000  0.0000000  3
  12112  12108  12109  12115     1  0.0000000  1.0460000  1
  12112  12108  12109  12115     1  0.0000000  0.0000000  3
  12112  12108  12116  12119     1  0.0000000  0.6973333  3
  12113  12110  12109  12115     1  0.0000000  0.6508444  3
  12122  12118  12104  12126     1  0.0000000  1.0460000  1
  12122  12118  12104  12126     1  0.0000000  0.0000000  3
  12122  12118  12124  12125     1  0.0000000  0.6973333  3
  12123  12118  12104  12126     1  0.0000000  1.0460000  1
  12123  12118  12104  12126     1  0.0000000  0.0000000  3
  12123  12118  12124  12125     1  0.0000000  0.6973333  3
  12127  12128  12131  12135     1  0.0000000  0.6508444  3
  12127  12128  12140  12143     1  0.0000000  1.0460000  1
  12127  12128  12140  12143     1  0.0000000  0.6694400  3
  12127  12141  12147  12148     1  0.0000000  1.0460000  1
  12127  12141  12147  12148     1  0.0000000  0.6694400  3
  12127  12149  12133  12136     1  0.0000000  1.6038667  3
  12128  12131  12132  12134     1  0.0000000  0.6508444  3
  12128  12131  12139  12142     1  0.0000000  1.0460000  1
  12128  12131  12139  12142     1  0.0000000  0.6694400  3
  12128  12127  12141  12145     1  0.0000000  0.6508444  3
  12128  12127  12141  12146     1  0.0000000  0.6508444  3
  12129  12127  12128  12131     1  0.0000000  0.6508444  3
  12129  12127  12128  12140     1  0.0000000  1.0460000  1
  12129  12127  12128  12140     1  0.0000000  0.0000000  3
  12129  12127  12128  12130     1  0.0000000  0.6508444  3
  12129  12127  12141  12147     1  0.0000000  1.0460000  1
  12129  12127  12141  12147     1  0.0000000  0.0000000  3
  12129  12127  12141  12145     1  0.0000000  0.6508444  3
  12129  12127  12141  12146     1  0.0000000  0.6508444  3
  12129  12127  12149  12133     1  0.0000000  1.6038667  3
  12130  12128  12131  12132     1  0.0000000  0.6508444  3
  12130  12128  12131  12139     1  0.0000000  1.0460000  1
  12130  12128  12131  12139     1  0.0000000  0.0000000  3
  12130  12128  12131  12135     1  0.0000000  0.6508444  3
  12130  12128  12140  12143     1  0.0000000  0.6973333  3
  12130  12128  12127  12141     1  0.0000000  0.6508444  3
  12130  12128  12127  12149     1  0.0000000  1.0460000  1
  12130  12128  12127  12149     1  0.0000000  0.0000000  3
  12131  12132  12133  12136     1  0.0000000  0.6508444  3
  12131  12132  12138  12144     1  0.0000000  1.0460000  1
  12131  12132  12138  12144     1  0.0000000  0.6694400  3
  12131  12128  12140  12143     1  0.0000000  1.0460000  1
  12131  12128  12140  12143     1  0.0000000  0.6694400  3
  12132  12131  12139  12142     1  0.0000000  1.0460000  1
  12132  12131  12139  12142     1  0.0000000  0.6694400  3
  12133  12132  12138  12144     1  0.0000000  1.0460000  1
  12133  12132  12138  12144     1  0.0000000  0.6694400  3
  12133  12132  12131  12135     1  0.0000000  0.6508444  3
  12134  12132  12133  12137     1  0.0000000  1.0460000  1
  12134  12132  12133  12137     1  0.0000000  0.0000000  3
  12134  12132  12133  12149     1  0.0000000  1.0460000  1
  12134  12132  12133  12149     1  0.0000000  0.0000000  3
  12134  12132  12133  12136     1  0.0000000  0.6508444  3
  12134  12132  12138  12144     1  0.0000000  0.6973333  3
  12134  12132  12131  12139     1  0.0000000  1.0460000  1
  12134  12132  12131  12139     1  0.0000000  0.0000000  3
  12134  12132  12131  12135     1  0.0000000  0.6508444  3
  12135  12131  12132  12138     1  0.0000000  1.0460000  1
  12135  12131  12132  12138     1  0.0000000  0.0000000  3
  12135  12131  12139  12142     1  0.0000000  0.6973333  3
  12135  12131  12128  12140     1  0.0000000  1.0460000  1
  12135  12131  12128  12140     1  0.0000000  0.0000000  3
  12136  12133  12132  12138     1  0.0000000  0.6508444  3
  12145  12141  12147  12148     1  0.0000000  0.6973333  3
  12145  12141  12127  12149     1  0.0000000  1.0460000  1
  12145  12141  12127  12149     1  0.0000000  0.0000000  3
  12146  12141  12147  12148     1  0.0000000  0.6973333  3
  12146  12141  12127  12149     1  0.0000000  1.0460000  1
  12146  12141  12127  12149     1  0.0000000  0.0000000  3
  12150  12151  12154  12158     1  0.0000000  0.6508444  3
  12150  12151  12163  12166     1  0.0000000  1.0460000  1
  12150  12151  12163  12166     1  0.0000000  0.6694400  3
  12150  12164  12170  12171     1  0.0000000  1.0460000  1
  12150  12164  12170  12171     1  0.0000000  0.6694400  3
  12150  12172  12156  12159     1  0.0000000  1.6038667  3
  12151  12150  12164  12168     1  0.0000000  0.6508444  3
  12151  12150  12164  12169     1  0.0000000  0.6508444  3
  12151  12154  12155  12157     1  0.0000000  0.6508444  3
  12151  12154  12162  12165     1  0.0000000  1.0460000  1
  12151  12154  12162  12165     1  0.0000000  0.6694400  3
  12152  12150  12151  12154     1  0.0000000  0.6508444  3
  12152  12150  12151  12163     1  0.0000000  1.0460000  1
  12152  12150  12151  12163     1  0.0000000  0.0000000  3
  12152  12150  12151  12153     1  0.0000000  0.6508444  3
  12152  12150  12164  12170     1  0.0000000  1.0460000  1
  12152  12150  12164  12170     1  0.0000000  0.0000000  3
  12152  12150  12164  12168     1  0.0000000  0.6508444  3
  12152  12150  12164  12169     1  0.0000000  0.6508444  3
  12152  12150  12172  12156     1  0.0000000  1.6038667  3
  12153  12151  12150  12164     1  0.0000000  0.6508444  3
  12153  12151  12150  12172     1  0.0000000  1.0460000  1
  12153  12151  12150  12172     1  0.0000000  0.0000000  3
  12153  12151  12154  12155     1  0.0000000  0.6508444  3
  12153  12151  12154  12162     1  0.0000000  1.0460000  1
  12153  12151  12154  12162     1  0.0000000  0.0000000  3
  12153  12151  12154  12158     1  0.0000000  0.6508444  3
  12153  12151  12163  12166     1  0.0000000  0.6973333  3
  12154  12151  12163  12166     1  0.0000000  1.0460000  1
  12154  12151  12163  12166     1  0.0000000  0.6694400  3
  12154  12155  12156  12159     1  0.0000000  0.6508444  3
  12154  12155  12161  12167     1  0.0000000  1.0460000  1
  12154  12155  12161  12167     1  0.0000000  0.6694400  3
  12155  12154  12162  12165     1  0.0000000  1.0460000  1
  12155  12154  12162  12165     1  0.0000000  0.6694400  3
  12156  12155  12154  12158     1  0.0000000  0.6508444  3
  12156  12155  12161  12167     1  0.0000000  1.0460000  1
  12156  12155  12161  12167     1  0.0000000  0.6694400  3
  12157  12155  12154  12162     1  0.0000000  1.0460000  1
  12157  12155  12154  12162     1  0.0000000  0.0000000  3
  12157  12155  12154  12158     1  0.0000000  0.6508444  3
  12157  12155  12156  12160     1  0.0000000  1.0460000  1
  12157  12155  12156  12160     1  0.0000000  0.0000000  3
  12157  12155  12156  12172     1  0.0000000  1.0460000  1
  12157  12155  12156  12172     1  0.0000000  0.0000000  3
  12157  12155  12156  12159     1  0.0000000  0.6508444  3
  12157  12155  12161  12167     1  0.0000000  0.6973333  3
  12158  12154  12151  12163     1  0.0000000  1.0460000  1
  12158  12154  12151  12163     1  0.0000000  0.0000000  3
  12158  12154  12155  12161     1  0.0000000  1.0460000  1
  12158  12154  12155  12161     1  0.0000000  0.0000000  3
  12158  12154  12162  12165     1  0.0000000  0.6973333  3
  12159  12156  12155  12161     1  0.0000000  0.6508444  3
  12168  12164  12150  12172     1  0.0000000  1.0460000  1
  12168  12164  12150  12172     1  0.0000000  0.0000000  3
  12168  12164  12170  12171     1  0.0000000  0.6973333  3
  12169  12164  12150  12172     1  0.0000000  1.0460000  1
  12169  12164  12150  12172     1  0.0000000  0.0000000  3
  12169  12164  12170  12171     1  0.0000000  0.6973333  3
  12173  12174  12177  12181     1  0.0000000  0.6508444  3
  12173  12174  12186  12189     1  0.0000000  1.0460000  1
  12173  12174  12186  12189     1  0.0000000  0.6694400  3
  12173  12187  12193  12194     1  0.0000000  1.0460000  1
  12173  12187  12193  12194     1  0.0000000  0.6694400  3
  12173  12195  12179  12182     1  0.0000000  1.6038667  3
  12174  12177  12178  12180     1  0.0000000  0.6508444  3
  12174  12177  12185  12188     1  0.0000000  1.0460000  1
  12174  12177  12185  12188     1  0.0000000  0.6694400  3
  12174  12173  12187  12191     1  0.0000000  0.6508444  3
  12174  12173  12187  12192     1  0.0000000  0.6508444  3
  12175  12173  12174  12177     1  0.0000000  0.6508444  3
  12175  12173  12174  12186     1  0.0000000  1.0460000  1
  12175  12173  12174  12186     1  0.0000000  0.0000000  3
  12175  12173  12174  12176     1  0.0000000  0.6508444  3
  12175  12173  12187  12193     1  0.0000000  1.0460000  1
  12175  12173  12187  12193     1  0.0000000  0.0000000  3
  12175  12173  12187  12191     1  0.0000000  0.6508444  3
  12175  12173  12187  12192     1  0.0000000  0.6508444  3
  12175  12173  12195  12179     1  0.0000000  1.6038667  3
  12176  12174  12177  12178     1  0.0000000  0.6508444  3
  12176  12174  12177  12185     1  0.0000000  1.0460000  1
  12176  12174  12177  12185     1  0.0000000  0.0000000  3
  12176  12174  12177  12181     1  0.0000000  0.6508444  3
  12176  12174  12186  12189     1  0.0000000  0.6973333  3
  12176  12174  12173  12187     1  0.0000000  0.6508444  3
  12176  12174  12173  12195     1  0.0000000  1.0460000  1
  12176  12174  12173  12195     1  0.0000000  0.0000000  3
  12177  12178  12179  12182     1  0.0000000  0.6508444  3
  12177  12178  12184  12190     1  0.0000000  1.0460000  1
  12177  12178  12184  12190     1  0.0000000  0.6694400  3
  12177  12174  12186  12189     1  0.0000000  1.0460000  1
  12177  12174  12186  12189     1  0.0000000  0.6694400  3
  12178  12177  12185  12188     1  0.0000000  1.0460000  1
  12178  12177  12185  12188     1  0.0000000  0.6694400  3
  12179  12178  12184  12190     1  0.0000000  1.0460000  1
  12179  12178  12184  12190     1  0.0000000  0.6694400  3
  12179  12178  12177  12181     1  0.0000000  0.6508444  3
  12180  12178  12179  12183     1  0.0000000  1.0460000  1
  12180  12178  12179  12183     1  0.0000000  0.0000000  3
  12180  12178  12179  12195     1  0.0000000  1.0460000  1
  12180  12178  12179  12195     1  0.0000000  0.0000000  3
  12180  12178  12179  12182     1  0.0000000  0.6508444  3
  12180  12178  12184  12190     1  0.0000000  0.6973333  3
  12180  12178  12177  12185     1  0.0000000  1.0460000  1
  12180  12178  12177  12185     1  0.0000000  0.0000000  3
  12180  12178  12177  12181     1  0.0000000  0.6508444  3
  12181  12177  12178  12184     1  0.0000000  1.0460000  1
  12181  12177  12178  12184     1  0.0000000  0.0000000  3
  12181  12177  12185  12188     1  0.0000000  0.6973333  3
  12181  12177  12174  12186     1  0.0000000  1.0460000  1
  12181  12177  12174  12186     1  0.0000000  0.0000000  3
  12182  12179  12178  12184     1  0.0000000  0.6508444  3
  12191  12187  12193  12194     1  0.0000000  0.6973333  3
  12191  12187  12173  12195     1  0.0000000  1.0460000  1
  12191  12187  12173  12195     1  0.0000000  0.0000000  3
  12192  12187  12193  12194     1  0.0000000  0.6973333  3
  12192  12187  12173  12195     1  0.0000000  1.0460000  1
  12192  12187  12173  12195     1  0.0000000  0.0000000  3
  12196  12197  12200  12204     1  0.0000000  0.6508444  3
  12196  12197  12209  12212     1  0.0000000  1.0460000  1
  12196  12197  12209  12212     1  0.0000000  0.6694400  3
  12196  12210  12216  12217     1  0.0000000  1.0460000  1
  12196  12210  12216  12217     1  0.0000000  0.6694400  3
  12196  12218  12202  12205     1  0.0000000  1.6038667  3
  12197  12196  12210  12214     1  0.0000000  0.6508444  3
  12197  12196  12210  12215     1  0.0000000  0.6508444  3
  12197  12200  12201  12203     1  0.0000000  0.6508444  3
  12197  12200  12208  12211     1  0.0000000  1.0460000  1
  12197  12200  12208  12211     1  0.0000000  0.6694400  3
  12198  12196  12197  12200     1  0.0000000  0.6508444  3
  12198  12196  12197  12209     1  0.0000000  1.0460000  1
  12198  12196  12197  12209     1  0.0000000  0.0000000  3
  12198  12196  12197  12199     1  0.0000000  0.6508444  3
  12198  12196  12210  12216     1  0.0000000  1.0460000  1
  12198  12196  12210  12216     1  0.0000000  0.0000000  3
  12198  12196  12210  12214     1  0.0000000  0.6508444  3
  12198  12196  12210  12215     1  0.0000000  0.6508444  3
  12198  12196  12218  12202     1  0.0000000  1.6038667  3
  12199  12197  12196  12210     1  0.0000000  0.6508444  3
  12199  12197  12196  12218     1  0.0000000  1.0460000  1
  12199  12197  12196  12218     1  0.0000000  0.0000000  3
  12199  12197  12200  12201     1  0.0000000  0.6508444  3
  12199  12197  12200  12208     1  0.0000000  1.0460000  1
  12199  12197  12200  12208     1  0.0000000  0.0000000  3
  12199  12197  12200  12204     1  0.0000000  0.6508444  3
  12199  12197  12209  12212     1  0.0000000  0.6973333  3
  12200  12197  12209  12212     1  0.0000000  1.0460000  1
  12200  12197  12209  12212     1  0.0000000  0.6694400  3
  12200  12201  12202  12205     1  0.0000000  0.6508444  3
  12200  12201  12207  12213     1  0.0000000  1.0460000  1
  12200  12201  12207  12213     1  0.0000000  0.6694400  3
  12201  12200  12208  12211     1  0.0000000  1.0460000  1
  12201  12200  12208  12211     1  0.0000000  0.6694400  3
  12202  12201  12200  12204     1  0.0000000  0.6508444  3
  12202  12201  12207  12213     1  0.0000000  1.0460000  1
  12202  12201  12207  12213     1  0.0000000  0.6694400  3
  12203  12201  12200  12208     1  0.0000000  1.0460000  1
  12203  12201  12200  12208     1  0.0000000  0.0000000  3
  12203  12201  12200  12204     1  0.0000000  0.6508444  3
  12203  12201  12202  12206     1  0.0000000  1.0460000  1
  12203  12201  12202  12206     1  0.0000000  0.0000000  3
  12203  12201  12202  12218     1  0.0000000  1.0460000  1
  12203  12201  12202  12218     1  0.0000000  0.0000000  3
  12203  12201  12202  12205     1  0.0000000  0.6508444  3
  12203  12201  12207  12213     1  0.0000000  0.6973333  3
  12204  12200  12197  12209     1  0.0000000  1.0460000  1
  12204  12200  12197  12209     1  0.0000000  0.0000000  3
  12204  12200  12201  12207     1  0.0000000  1.0460000  1
  12204  12200  12201  12207     1  0.0000000  0.0000000  3
  12204  12200  12208  12211     1  0.0000000  0.6973333  3
  12205  12202  12201  12207     1  0.0000000  0.6508444  3
  12214  12210  12196  12218     1  0.0000000  1.0460000  1
  12214  12210  12196  12218     1  0.0000000  0.0000000  3
  12214  12210  12216  12217     1  0.0000000  0.6973333  3
  12215  12210  12196  12218     1  0.0000000  1.0460000  1
  12215  12210  12196  12218     1  0.0000000  0.0000000  3
  12215  12210  12216  12217     1  0.0000000  0.6973333  3
  12219  12220  12223  12227     1  0.0000000  0.6508444  3
  12219  12220  12232  12235     1  0.0000000  1.0460000  1
  12219  12220  12232  12235     1  0.0000000  0.6694400  3
  12219  12233  12239  12240     1  0.0000000  1.0460000  1
  12219  12233  12239  12240     1  0.0000000  0.6694400  3
  12219  12241  12225  12228     1  0.0000000  1.6038667  3
  12220  12223  12224  12226     1  0.0000000  0.6508444  3
  12220  12223  12231  12234     1  0.0000000  1.0460000  1
  12220  12223  12231  12234     1  0.0000000  0.6694400  3
  12220  12219  12233  12237     1  0.0000000  0.6508444  3
  12220  12219  12233  12238     1  0.0000000  0.6508444  3
  12221  12219  12220  12223     1  0.0000000  0.6508444  3
  12221  12219  12220  12232     1  0.0000000  1.0460000  1
  12221  12219  12220  12232     1  0.0000000  0.0000000  3
  12221  12219  12220  12222     1  0.0000000  0.6508444  3
  12221  12219  12233  12239     1  0.0000000  1.0460000  1
  12221  12219  12233  12239     1  0.0000000  0.0000000  3
  12221  12219  12233  12237     1  0.0000000  0.6508444  3
  12221  12219  12233  12238     1  0.0000000  0.6508444  3
  12221  12219  12241  12225     1  0.0000000  1.6038667  3
  12222  12220  12223  12224     1  0.0000000  0.6508444  3
  12222  12220  12223  12231     1  0.0000000  1.0460000  1
  12222  12220  12223  12231     1  0.0000000  0.0000000  3
  12222  12220  12223  12227     1  0.0000000  0.6508444  3
  12222  12220  12232  12235     1  0.0000000  0.6973333  3
  12222  12220  12219  12233     1  0.0000000  0.6508444  3
  12222  12220  12219  12241     1  0.0000000  1.0460000  1
  12222  12220  12219  12241     1  0.0000000  0.0000000  3
  12223  12224  12225  12228     1  0.0000000  0.6508444  3
  12223  12224  12230  12236     1  0.0000000  1.0460000  1
  12223  12224  12230  12236     1  0.0000000  0.6694400  3
  12223  12220  12232  12235     1  0.0000000  1.0460000  1
  12223  12220  12232  12235     1  0.0000000  0.6694400  3
  12224  12223  12231  12234     1  0.0000000  1.0460000  1
  12224  12223  12231  12234     1  0.0000000  0.6694400  3
  12225  12224  12230  12236     1  0.0000000  1.0460000  1
  12225  12224  12230  12236     1  0.0000000  0.6694400  3
  12225  12224  12223  12227     1  0.0000000  0.6508444  3
  12226  12224  12225  12229     1  0.0000000  1.0460000  1
  12226  12224  12225  12229     1  0.0000000  0.0000000  3
  12226  12224  12225  12241     1  0.0000000  1.0460000  1
  12226  12224  12225  12241     1  0.0000000  0.0000000  3
  12226  12224  12225  12228     1  0.0000000  0.6508444  3
  12226  12224  12230  12236     1  0.0000000  0.6973333  3
  12226  12224  12223  12231     1  0.0000000  1.0460000  1
  12226  12224  12223  12231     1  0.0000000  0.0000000  3
  12226  12224  12223  12227     1  0.0000000  0.6508444  3
  12227  12223  12224  12230     1  0.0000000  1.0460000  1
  12227  12223  12224  12230     1  0.0000000  0.0000000  3
  12227  12223  12231  12234     1  0.0000000  0.6973333  3
  12227  12223  12220  12232     1  0.0000000  1.0460000  1
  12227  12223  12220  12232     1  0.0000000  0.0000000  3
  12228  12225  12224  12230     1  0.0000000  0.6508444  3
  12237  12233  12239  12240     1  0.0000000  0.6973333  3
  12237  12233  12219  12241     1  0.0000000  1.0460000  1
  12237  12233  12219  12241     1  0.0000000  0.0000000  3
  12238  12233  12239  12240     1  0.0000000  0.6973333  3
  12238  12233  12219  12241     1  0.0000000  1.0460000  1
  12238  12233  12219  12241     1  0.0000000  0.0000000  3
  12242  12243  12246  12250     1  0.0000000  0.6508444  3
  12242  12243  12255  12258     1  0.0000000  1.0460000  1
  12242  12243  12255  12258     1  0.0000000  0.6694400  3
  12242  12256  12262  12263     1  0.0000000  1.0460000  1
  12242  12256  12262  12263     1  0.0000000  0.6694400  3
  12242  12264  12248  12251     1  0.0000000  1.6038667  3
  12243  12242  12256  12260     1  0.0000000  0.6508444  3
  12243  12242  12256  12261     1  0.0000000  0.6508444  3
  12243  12246  12247  12249     1  0.0000000  0.6508444  3
  12243  12246  12254  12257     1  0.0000000  1.0460000  1
  12243  12246  12254  12257     1  0.0000000  0.6694400  3
  12244  12242  12243  12246     1  0.0000000  0.6508444  3
  12244  12242  12243  12255     1  0.0000000  1.0460000  1
  12244  12242  12243  12255     1  0.0000000  0.0000000  3
  12244  12242  12243  12245     1  0.0000000  0.6508444  3
  12244  12242  12256  12262     1  0.0000000  1.0460000  1
  12244  12242  12256  12262     1  0.0000000  0.0000000  3
  12244  12242  12256  12260     1  0.0000000  0.6508444  3
  12244  12242  12256  12261     1  0.0000000  0.6508444  3
  12244  12242  12264  12248     1  0.0000000  1.6038667  3
  12245  12243  12242  12256     1  0.0000000  0.6508444  3
  12245  12243  12242  12264     1  0.0000000  1.0460000  1
  12245  12243  12242  12264     1  0.0000000  0.0000000  3
  12245  12243  12246  12247     1  0.0000000  0.6508444  3
  12245  12243  12246  12254     1  0.0000000  1.0460000  1
  12245  12243  12246  12254     1  0.0000000  0.0000000  3
  12245  12243  12246  12250     1  0.0000000  0.6508444  3
  12245  12243  12255  12258     1  0.0000000  0.6973333  3
  12246  12243  12255  12258     1  0.0000000  1.0460000  1
  12246  12243  12255  12258     1  0.0000000  0.6694400  3
  12246  12247  12248  12251     1  0.0000000  0.6508444  3
  12246  12247  12253  12259     1  0.0000000  1.0460000  1
  12246  12247  12253  12259     1  0.0000000  0.6694400  3
  12247  12246  12254  12257     1  0.0000000  1.0460000  1
  12247  12246  12254  12257     1  0.0000000  0.6694400  3
  12248  12247  12246  12250     1  0.0000000  0.6508444  3
  12248  12247  12253  12259     1  0.0000000  1.0460000  1
  12248  12247  12253  12259     1  0.0000000  0.6694400  3
  12249  12247  12246  12254     1  0.0000000  1.0460000  1
  12249  12247  12246  12254     1  0.0000000  0.0000000  3
  12249  12247  12246  12250     1  0.0000000  0.6508444  3
  12249  12247  12248  12252     1  0.0000000  1.0460000  1
  12249  12247  12248  12252     1  0.0000000  0.0000000  3
  12249  12247  12248  12264     1  0.0000000  1.0460000  1
  12249  12247  12248  12264     1  0.0000000  0.0000000  3
  12249  12247  12248  12251     1  0.0000000  0.6508444  3
  12249  12247  12253  12259     1  0.0000000  0.6973333  3
  12250  12246  12243  12255     1  0.0000000  1.0460000  1
  12250  12246  12243  12255     1  0.0000000  0.0000000  3
  12250  12246  12247  12253     1  0.0000000  1.0460000  1
  12250  12246  12247  12253     1  0.0000000  0.0000000  3
  12250  12246  12254  12257     1  0.0000000  0.6973333  3
  12251  12248  12247  12253     1  0.0000000  0.6508444  3
  12260  12256  12242  12264     1  0.0000000  1.0460000  1
  12260  12256  12242  12264     1  0.0000000  0.0000000  3
  12260  12256  12262  12263     1  0.0000000  0.6973333  3
  12261  12256  12242  12264     1  0.0000000  1.0460000  1
  12261  12256  12242  12264     1  0.0000000  0.0000000  3
  12261  12256  12262  12263     1  0.0000000  0.6973333  3
  12265  12266  12269  12273     1  0.0000000  0.6508444  3
  12265  12266  12278  12281     1  0.0000000  1.0460000  1
  12265  12266  12278  12281     1  0.0000000  0.6694400  3
  12265  12279  12285  12286     1  0.0000000  1.0460000  1
  12265  12279  12285  12286     1  0.0000000  0.6694400  3
  12265  12287  12271  12274     1  0.0000000  1.6038667  3
  12266  12269  12270  12272     1  0.0000000  0.6508444  3
  12266  12269  12277  12280     1  0.0000000  1.0460000  1
  12266  12269  12277  12280     1  0.0000000  0.6694400  3
  12266  12265  12279  12283     1  0.0000000  0.6508444  3
  12266  12265  12279  12284     1  0.0000000  0.6508444  3
  12267  12265  12266  12269     1  0.0000000  0.6508444  3
  12267  12265  12266  12278     1  0.0000000  1.0460000  1
  12267  12265  12266  12278     1  0.0000000  0.0000000  3
  12267  12265  12266  12268     1  0.0000000  0.6508444  3
  12267  12265  12279  12285     1  0.0000000  1.0460000  1
  12267  12265  12279  12285     1  0.0000000  0.0000000  3
  12267  12265  12279  12283     1  0.0000000  0.6508444  3
  12267  12265  12279  12284     1  0.0000000  0.6508444  3
  12267  12265  12287  12271     1  0.0000000  1.6038667  3
  12268  12266  12269  12270     1  0.0000000  0.6508444  3
  12268  12266  12269  12277     1  0.0000000  1.0460000  1
  12268  12266  12269  12277     1  0.0000000  0.0000000  3
  12268  12266  12269  12273     1  0.0000000  0.6508444  3
  12268  12266  12278  12281     1  0.0000000  0.6973333  3
  12268  12266  12265  12279     1  0.0000000  0.6508444  3
  12268  12266  12265  12287     1  0.0000000  1.0460000  1
  12268  12266  12265  12287     1  0.0000000  0.0000000  3
  12269  12270  12271  12274     1  0.0000000  0.6508444  3
  12269  12270  12276  12282     1  0.0000000  1.0460000  1
  12269  12270  12276  12282     1  0.0000000  0.6694400  3
  12269  12266  12278  12281     1  0.0000000  1.0460000  1
  12269  12266  12278  12281     1  0.0000000  0.6694400  3
  12270  12269  12277  12280     1  0.0000000  1.0460000  1
  12270  12269  12277  12280     1  0.0000000  0.6694400  3
  12271  12270  12276  12282     1  0.0000000  1.0460000  1
  12271  12270  12276  12282     1  0.0000000  0.6694400  3
  12271  12270  12269  12273     1  0.0000000  0.6508444  3
  12272  12270  12271  12275     1  0.0000000  1.0460000  1
  12272  12270  12271  12275     1  0.0000000  0.0000000  3
  12272  12270  12271  12287     1  0.0000000  1.0460000  1
  12272  12270  12271  12287     1  0.0000000  0.0000000  3
  12272  12270  12271  12274     1  0.0000000  0.6508444  3
  12272  12270  12276  12282     1  0.0000000  0.6973333  3
  12272  12270  12269  12277     1  0.0000000  1.0460000  1
  12272  12270  12269  12277     1  0.0000000  0.0000000  3
  12272  12270  12269  12273     1  0.0000000  0.6508444  3
  12273  12269  12270  12276     1  0.0000000  1.0460000  1
  12273  12269  12270  12276     1  0.0000000  0.0000000  3
  12273  12269  12277  12280     1  0.0000000  0.6973333  3
  12273  12269  12266  12278     1  0.0000000  1.0460000  1
  12273  12269  12266  12278     1  0.0000000  0.0000000  3
  12274  12271  12270  12276     1  0.0000000  0.6508444  3
  12283  12279  12285  12286     1  0.0000000  0.6973333  3
  12283  12279  12265  12287     1  0.0000000  1.0460000  1
  12283  12279  12265  12287     1  0.0000000  0.0000000  3
  12284  12279  12285  12286     1  0.0000000  0.6973333  3
  12284  12279  12265  12287     1  0.0000000  1.0460000  1
  12284  12279  12265  12287     1  0.0000000  0.0000000  3
  12288  12289  12292  12296     1  0.0000000  0.6508444  3
  12288  12289  12301  12304     1  0.0000000  1.0460000  1
  12288  12289  12301  12304     1  0.0000000  0.6694400  3
  12288  12302  12308  12309     1  0.0000000  1.0460000  1
  12288  12302  12308  12309     1  0.0000000  0.6694400  3
  12288  12310  12294  12297     1  0.0000000  1.6038667  3
  12289  12288  12302  12306     1  0.0000000  0.6508444  3
  12289  12288  12302  12307     1  0.0000000  0.6508444  3
  12289  12292  12293  12295     1  0.0000000  0.6508444  3
  12289  12292  12300  12303     1  0.0000000  1.0460000  1
  12289  12292  12300  12303     1  0.0000000  0.6694400  3
  12290  12288  12289  12292     1  0.0000000  0.6508444  3
  12290  12288  12289  12301     1  0.0000000  1.0460000  1
  12290  12288  12289  12301     1  0.0000000  0.0000000  3
  12290  12288  12289  12291     1  0.0000000  0.6508444  3
  12290  12288  12302  12308     1  0.0000000  1.0460000  1
  12290  12288  12302  12308     1  0.0000000  0.0000000  3
  12290  12288  12302  12306     1  0.0000000  0.6508444  3
  12290  12288  12302  12307     1  0.0000000  0.6508444  3
  12290  12288  12310  12294     1  0.0000000  1.6038667  3
  12291  12289  12288  12302     1  0.0000000  0.6508444  3
  12291  12289  12288  12310     1  0.0000000  1.0460000  1
  12291  12289  12288  12310     1  0.0000000  0.0000000  3
  12291  12289  12292  12293     1  0.0000000  0.6508444  3
  12291  12289  12292  12300     1  0.0000000  1.0460000  1
  12291  12289  12292  12300     1  0.0000000  0.0000000  3
  12291  12289  12292  12296     1  0.0000000  0.6508444  3
  12291  12289  12301  12304     1  0.0000000  0.6973333  3
  12292  12289  12301  12304     1  0.0000000  1.0460000  1
  12292  12289  12301  12304     1  0.0000000  0.6694400  3
  12292  12293  12294  12297     1  0.0000000  0.6508444  3
  12292  12293  12299  12305     1  0.0000000  1.0460000  1
  12292  12293  12299  12305     1  0.0000000  0.6694400  3
  12293  12292  12300  12303     1  0.0000000  1.0460000  1
  12293  12292  12300  12303     1  0.0000000  0.6694400  3
  12294  12293  12292  12296     1  0.0000000  0.6508444  3
  12294  12293  12299  12305     1  0.0000000  1.0460000  1
  12294  12293  12299  12305     1  0.0000000  0.6694400  3
  12295  12293  12292  12300     1  0.0000000  1.0460000  1
  12295  12293  12292  12300     1  0.0000000  0.0000000  3
  12295  12293  12292  12296     1  0.0000000  0.6508444  3
  12295  12293  12294  12298     1  0.0000000  1.0460000  1
  12295  12293  12294  12298     1  0.0000000  0.0000000  3
  12295  12293  12294  12310     1  0.0000000  1.0460000  1
  12295  12293  12294  12310     1  0.0000000  0.0000000  3
  12295  12293  12294  12297     1  0.0000000  0.6508444  3
  12295  12293  12299  12305     1  0.0000000  0.6973333  3
  12296  12292  12289  12301     1  0.0000000  1.0460000  1
  12296  12292  12289  12301     1  0.0000000  0.0000000  3
  12296  12292  12293  12299     1  0.0000000  1.0460000  1
  12296  12292  12293  12299     1  0.0000000  0.0000000  3
  12296  12292  12300  12303     1  0.0000000  0.6973333  3
  12297  12294  12293  12299     1  0.0000000  0.6508444  3
  12306  12302  12288  12310     1  0.0000000  1.0460000  1
  12306  12302  12288  12310     1  0.0000000  0.0000000  3
  12306  12302  12308  12309     1  0.0000000  0.6973333  3
  12307  12302  12288  12310     1  0.0000000  1.0460000  1
  12307  12302  12288  12310     1  0.0000000  0.0000000  3
  12307  12302  12308  12309     1  0.0000000  0.6973333  3
  12311  12312  12315  12319     1  0.0000000  0.6508444  3
  12311  12312  12324  12327     1  0.0000000  1.0460000  1
  12311  12312  12324  12327     1  0.0000000  0.6694400  3
  12311  12325  12331  12332     1  0.0000000  1.0460000  1
  12311  12325  12331  12332     1  0.0000000  0.6694400  3
  12311  12333  12317  12320     1  0.0000000  1.6038667  3
  12312  12315  12316  12318     1  0.0000000  0.6508444  3
  12312  12315  12323  12326     1  0.0000000  1.0460000  1
  12312  12315  12323  12326     1  0.0000000  0.6694400  3
  12312  12311  12325  12329     1  0.0000000  0.6508444  3
  12312  12311  12325  12330     1  0.0000000  0.6508444  3
  12313  12311  12312  12315     1  0.0000000  0.6508444  3
  12313  12311  12312  12324     1  0.0000000  1.0460000  1
  12313  12311  12312  12324     1  0.0000000  0.0000000  3
  12313  12311  12312  12314     1  0.0000000  0.6508444  3
  12313  12311  12325  12331     1  0.0000000  1.0460000  1
  12313  12311  12325  12331     1  0.0000000  0.0000000  3
  12313  12311  12325  12329     1  0.0000000  0.6508444  3
  12313  12311  12325  12330     1  0.0000000  0.6508444  3
  12313  12311  12333  12317     1  0.0000000  1.6038667  3
  12314  12312  12315  12316     1  0.0000000  0.6508444  3
  12314  12312  12315  12323     1  0.0000000  1.0460000  1
  12314  12312  12315  12323     1  0.0000000  0.0000000  3
  12314  12312  12315  12319     1  0.0000000  0.6508444  3
  12314  12312  12324  12327     1  0.0000000  0.6973333  3
  12314  12312  12311  12325     1  0.0000000  0.6508444  3
  12314  12312  12311  12333     1  0.0000000  1.0460000  1
  12314  12312  12311  12333     1  0.0000000  0.0000000  3
  12315  12316  12317  12320     1  0.0000000  0.6508444  3
  12315  12316  12322  12328     1  0.0000000  1.0460000  1
  12315  12316  12322  12328     1  0.0000000  0.6694400  3
  12315  12312  12324  12327     1  0.0000000  1.0460000  1
  12315  12312  12324  12327     1  0.0000000  0.6694400  3
  12316  12315  12323  12326     1  0.0000000  1.0460000  1
  12316  12315  12323  12326     1  0.0000000  0.6694400  3
  12317  12316  12322  12328     1  0.0000000  1.0460000  1
  12317  12316  12322  12328     1  0.0000000  0.6694400  3
  12317  12316  12315  12319     1  0.0000000  0.6508444  3
  12318  12316  12317  12321     1  0.0000000  1.0460000  1
  12318  12316  12317  12321     1  0.0000000  0.0000000  3
  12318  12316  12317  12333     1  0.0000000  1.0460000  1
  12318  12316  12317  12333     1  0.0000000  0.0000000  3
  12318  12316  12317  12320     1  0.0000000  0.6508444  3
  12318  12316  12322  12328     1  0.0000000  0.6973333  3
  12318  12316  12315  12323     1  0.0000000  1.0460000  1
  12318  12316  12315  12323     1  0.0000000  0.0000000  3
  12318  12316  12315  12319     1  0.0000000  0.6508444  3
  12319  12315  12316  12322     1  0.0000000  1.0460000  1
  12319  12315  12316  12322     1  0.0000000  0.0000000  3
  12319  12315  12323  12326     1  0.0000000  0.6973333  3
  12319  12315  12312  12324     1  0.0000000  1.0460000  1
  12319  12315  12312  12324     1  0.0000000  0.0000000  3
  12320  12317  12316  12322     1  0.0000000  0.6508444  3
  12329  12325  12331  12332     1  0.0000000  0.6973333  3
  12329  12325  12311  12333     1  0.0000000  1.0460000  1
  12329  12325  12311  12333     1  0.0000000  0.0000000  3
  12330  12325  12331  12332     1  0.0000000  0.6973333  3
  12330  12325  12311  12333     1  0.0000000  1.0460000  1
  12330  12325  12311  12333     1  0.0000000  0.0000000  3
  12334  12335  12338  12342     1  0.0000000  0.6508444  3
  12334  12335  12347  12350     1  0.0000000  1.0460000  1
  12334  12335  12347  12350     1  0.0000000  0.6694400  3
  12334  12348  12354  12355     1  0.0000000  1.0460000  1
  12334  12348  12354  12355     1  0.0000000  0.6694400  3
  12334  12356  12340  12343     1  0.0000000  1.6038667  3
  12335  12334  12348  12352     1  0.0000000  0.6508444  3
  12335  12334  12348  12353     1  0.0000000  0.6508444  3
  12335  12338  12339  12341     1  0.0000000  0.6508444  3
  12335  12338  12346  12349     1  0.0000000  1.0460000  1
  12335  12338  12346  12349     1  0.0000000  0.6694400  3
  12336  12334  12335  12338     1  0.0000000  0.6508444  3
  12336  12334  12335  12347     1  0.0000000  1.0460000  1
  12336  12334  12335  12347     1  0.0000000  0.0000000  3
  12336  12334  12335  12337     1  0.0000000  0.6508444  3
  12336  12334  12348  12354     1  0.0000000  1.0460000  1
  12336  12334  12348  12354     1  0.0000000  0.0000000  3
  12336  12334  12348  12352     1  0.0000000  0.6508444  3
  12336  12334  12348  12353     1  0.0000000  0.6508444  3
  12336  12334  12356  12340     1  0.0000000  1.6038667  3
  12337  12335  12334  12348     1  0.0000000  0.6508444  3
  12337  12335  12334  12356     1  0.0000000  1.0460000  1
  12337  12335  12334  12356     1  0.0000000  0.0000000  3
  12337  12335  12338  12339     1  0.0000000  0.6508444  3
  12337  12335  12338  12346     1  0.0000000  1.0460000  1
  12337  12335  12338  12346     1  0.0000000  0.0000000  3
  12337  12335  12338  12342     1  0.0000000  0.6508444  3
  12337  12335  12347  12350     1  0.0000000  0.6973333  3
  12338  12335  12347  12350     1  0.0000000  1.0460000  1
  12338  12335  12347  12350     1  0.0000000  0.6694400  3
  12338  12339  12340  12343     1  0.0000000  0.6508444  3
  12338  12339  12345  12351     1  0.0000000  1.0460000  1
  12338  12339  12345  12351     1  0.0000000  0.6694400  3
  12339  12338  12346  12349     1  0.0000000  1.0460000  1
  12339  12338  12346  12349     1  0.0000000  0.6694400  3
  12340  12339  12338  12342     1  0.0000000  0.6508444  3
  12340  12339  12345  12351     1  0.0000000  1.0460000  1
  12340  12339  12345  12351     1  0.0000000  0.6694400  3
  12341  12339  12338  12346     1  0.0000000  1.0460000  1
  12341  12339  12338  12346     1  0.0000000  0.0000000  3
  12341  12339  12338  12342     1  0.0000000  0.6508444  3
  12341  12339  12340  12344     1  0.0000000  1.0460000  1
  12341  12339  12340  12344     1  0.0000000  0.0000000  3
  12341  12339  12340  12356     1  0.0000000  1.0460000  1
  12341  12339  12340  12356     1  0.0000000  0.0000000  3
  12341  12339  12340  12343     1  0.0000000  0.6508444  3
  12341  12339  12345  12351     1  0.0000000  0.6973333  3
  12342  12338  12335  12347     1  0.0000000  1.0460000  1
  12342  12338  12335  12347     1  0.0000000  0.0000000  3
  12342  12338  12339  12345     1  0.0000000  1.0460000  1
  12342  12338  12339  12345     1  0.0000000  0.0000000  3
  12342  12338  12346  12349     1  0.0000000  0.6973333  3
  12343  12340  12339  12345     1  0.0000000  0.6508444  3
  12352  12348  12334  12356     1  0.0000000  1.0460000  1
  12352  12348  12334  12356     1  0.0000000  0.0000000  3
  12352  12348  12354  12355     1  0.0000000  0.6973333  3
  12353  12348  12334  12356     1  0.0000000  1.0460000  1
  12353  12348  12334  12356     1  0.0000000  0.0000000  3
  12353  12348  12354  12355     1  0.0000000  0.6973333  3
  12357  12358  12361  12365     1  0.0000000  0.6508444  3
  12357  12358  12370  12373     1  0.0000000  1.0460000  1
  12357  12358  12370  12373     1  0.0000000  0.6694400  3
  12357  12371  12377  12378     1  0.0000000  1.0460000  1
  12357  12371  12377  12378     1  0.0000000  0.6694400  3
  12357  12379  12363  12366     1  0.0000000  1.6038667  3
  12358  12361  12362  12364     1  0.0000000  0.6508444  3
  12358  12361  12369  12372     1  0.0000000  1.0460000  1
  12358  12361  12369  12372     1  0.0000000  0.6694400  3
  12358  12357  12371  12375     1  0.0000000  0.6508444  3
  12358  12357  12371  12376     1  0.0000000  0.6508444  3
  12359  12357  12358  12361     1  0.0000000  0.6508444  3
  12359  12357  12358  12370     1  0.0000000  1.0460000  1
  12359  12357  12358  12370     1  0.0000000  0.0000000  3
  12359  12357  12358  12360     1  0.0000000  0.6508444  3
  12359  12357  12371  12377     1  0.0000000  1.0460000  1
  12359  12357  12371  12377     1  0.0000000  0.0000000  3
  12359  12357  12371  12375     1  0.0000000  0.6508444  3
  12359  12357  12371  12376     1  0.0000000  0.6508444  3
  12359  12357  12379  12363     1  0.0000000  1.6038667  3
  12360  12358  12361  12362     1  0.0000000  0.6508444  3
  12360  12358  12361  12369     1  0.0000000  1.0460000  1
  12360  12358  12361  12369     1  0.0000000  0.0000000  3
  12360  12358  12361  12365     1  0.0000000  0.6508444  3
  12360  12358  12370  12373     1  0.0000000  0.6973333  3
  12360  12358  12357  12371     1  0.0000000  0.6508444  3
  12360  12358  12357  12379     1  0.0000000  1.0460000  1
  12360  12358  12357  12379     1  0.0000000  0.0000000  3
  12361  12362  12363  12366     1  0.0000000  0.6508444  3
  12361  12362  12368  12374     1  0.0000000  1.0460000  1
  12361  12362  12368  12374     1  0.0000000  0.6694400  3
  12361  12358  12370  12373     1  0.0000000  1.0460000  1
  12361  12358  12370  12373     1  0.0000000  0.6694400  3
  12362  12361  12369  12372     1  0.0000000  1.0460000  1
  12362  12361  12369  12372     1  0.0000000  0.6694400  3
  12363  12362  12368  12374     1  0.0000000  1.0460000  1
  12363  12362  12368  12374     1  0.0000000  0.6694400  3
  12363  12362  12361  12365     1  0.0000000  0.6508444  3
  12364  12362  12363  12367     1  0.0000000  1.0460000  1
  12364  12362  12363  12367     1  0.0000000  0.0000000  3
  12364  12362  12363  12379     1  0.0000000  1.0460000  1
  12364  12362  12363  12379     1  0.0000000  0.0000000  3
  12364  12362  12363  12366     1  0.0000000  0.6508444  3
  12364  12362  12368  12374     1  0.0000000  0.6973333  3
  12364  12362  12361  12369     1  0.0000000  1.0460000  1
  12364  12362  12361  12369     1  0.0000000  0.0000000  3
  12364  12362  12361  12365     1  0.0000000  0.6508444  3
  12365  12361  12362  12368     1  0.0000000  1.0460000  1
  12365  12361  12362  12368     1  0.0000000  0.0000000  3
  12365  12361  12369  12372     1  0.0000000  0.6973333  3
  12365  12361  12358  12370     1  0.0000000  1.0460000  1
  12365  12361  12358  12370     1  0.0000000  0.0000000  3
  12366  12363  12362  12368     1  0.0000000  0.6508444  3
  12375  12371  12377  12378     1  0.0000000  0.6973333  3
  12375  12371  12357  12379     1  0.0000000  1.0460000  1
  12375  12371  12357  12379     1  0.0000000  0.0000000  3
  12376  12371  12377  12378     1  0.0000000  0.6973333  3
  12376  12371  12357  12379     1  0.0000000  1.0460000  1
  12376  12371  12357  12379     1  0.0000000  0.0000000  3
  12380  12381  12384  12388     1  0.0000000  0.6508444  3
  12380  12381  12393  12396     1  0.0000000  1.0460000  1
  12380  12381  12393  12396     1  0.0000000  0.6694400  3
  12380  12394  12400  12401     1  0.0000000  1.0460000  1
  12380  12394  12400  12401     1  0.0000000  0.6694400  3
  12380  12402  12386  12389     1  0.0000000  1.6038667  3
  12381  12380  12394  12398     1  0.0000000  0.6508444  3
  12381  12380  12394  12399     1  0.0000000  0.6508444  3
  12381  12384  12385  12387     1  0.0000000  0.6508444  3
  12381  12384  12392  12395     1  0.0000000  1.0460000  1
  12381  12384  12392  12395     1  0.0000000  0.6694400  3
  12382  12380  12381  12384     1  0.0000000  0.6508444  3
  12382  12380  12381  12393     1  0.0000000  1.0460000  1
  12382  12380  12381  12393     1  0.0000000  0.0000000  3
  12382  12380  12381  12383     1  0.0000000  0.6508444  3
  12382  12380  12394  12400     1  0.0000000  1.0460000  1
  12382  12380  12394  12400     1  0.0000000  0.0000000  3
  12382  12380  12394  12398     1  0.0000000  0.6508444  3
  12382  12380  12394  12399     1  0.0000000  0.6508444  3
  12382  12380  12402  12386     1  0.0000000  1.6038667  3
  12383  12381  12380  12394     1  0.0000000  0.6508444  3
  12383  12381  12380  12402     1  0.0000000  1.0460000  1
  12383  12381  12380  12402     1  0.0000000  0.0000000  3
  12383  12381  12384  12385     1  0.0000000  0.6508444  3
  12383  12381  12384  12392     1  0.0000000  1.0460000  1
  12383  12381  12384  12392     1  0.0000000  0.0000000  3
  12383  12381  12384  12388     1  0.0000000  0.6508444  3
  12383  12381  12393  12396     1  0.0000000  0.6973333  3
  12384  12381  12393  12396     1  0.0000000  1.0460000  1
  12384  12381  12393  12396     1  0.0000000  0.6694400  3
  12384  12385  12386  12389     1  0.0000000  0.6508444  3
  12384  12385  12391  12397     1  0.0000000  1.0460000  1
  12384  12385  12391  12397     1  0.0000000  0.6694400  3
  12385  12384  12392  12395     1  0.0000000  1.0460000  1
  12385  12384  12392  12395     1  0.0000000  0.6694400  3
  12386  12385  12384  12388     1  0.0000000  0.6508444  3
  12386  12385  12391  12397     1  0.0000000  1.0460000  1
  12386  12385  12391  12397     1  0.0000000  0.6694400  3
  12387  12385  12384  12392     1  0.0000000  1.0460000  1
  12387  12385  12384  12392     1  0.0000000  0.0000000  3
  12387  12385  12384  12388     1  0.0000000  0.6508444  3
  12387  12385  12386  12390     1  0.0000000  1.0460000  1
  12387  12385  12386  12390     1  0.0000000  0.0000000  3
  12387  12385  12386  12402     1  0.0000000  1.0460000  1
  12387  12385  12386  12402     1  0.0000000  0.0000000  3
  12387  12385  12386  12389     1  0.0000000  0.6508444  3
  12387  12385  12391  12397     1  0.0000000  0.6973333  3
  12388  12384  12381  12393     1  0.0000000  1.0460000  1
  12388  12384  12381  12393     1  0.0000000  0.0000000  3
  12388  12384  12385  12391     1  0.0000000  1.0460000  1
  12388  12384  12385  12391     1  0.0000000  0.0000000  3
  12388  12384  12392  12395     1  0.0000000  0.6973333  3
  12389  12386  12385  12391     1  0.0000000  0.6508444  3
  12398  12394  12380  12402     1  0.0000000  1.0460000  1
  12398  12394  12380  12402     1  0.0000000  0.0000000  3
  12398  12394  12400  12401     1  0.0000000  0.6973333  3
  12399  12394  12380  12402     1  0.0000000  1.0460000  1
  12399  12394  12380  12402     1  0.0000000  0.0000000  3
  12399  12394  12400  12401     1  0.0000000  0.6973333  3
  12403  12404  12407  12411     1  0.0000000  0.6508444  3
  12403  12404  12416  12419     1  0.0000000  1.0460000  1
  12403  12404  12416  12419     1  0.0000000  0.6694400  3
  12403  12417  12423  12424     1  0.0000000  1.0460000  1
  12403  12417  12423  12424     1  0.0000000  0.6694400  3
  12403  12425  12409  12412     1  0.0000000  1.6038667  3
  12404  12407  12408  12410     1  0.0000000  0.6508444  3
  12404  12407  12415  12418     1  0.0000000  1.0460000  1
  12404  12407  12415  12418     1  0.0000000  0.6694400  3
  12404  12403  12417  12421     1  0.0000000  0.6508444  3
  12404  12403  12417  12422     1  0.0000000  0.6508444  3
  12405  12403  12404  12407     1  0.0000000  0.6508444  3
  12405  12403  12404  12416     1  0.0000000  1.0460000  1
  12405  12403  12404  12416     1  0.0000000  0.0000000  3
  12405  12403  12404  12406     1  0.0000000  0.6508444  3
  12405  12403  12417  12423     1  0.0000000  1.0460000  1
  12405  12403  12417  12423     1  0.0000000  0.0000000  3
  12405  12403  12417  12421     1  0.0000000  0.6508444  3
  12405  12403  12417  12422     1  0.0000000  0.6508444  3
  12405  12403  12425  12409     1  0.0000000  1.6038667  3
  12406  12404  12407  12408     1  0.0000000  0.6508444  3
  12406  12404  12407  12415     1  0.0000000  1.0460000  1
  12406  12404  12407  12415     1  0.0000000  0.0000000  3
  12406  12404  12407  12411     1  0.0000000  0.6508444  3
  12406  12404  12416  12419     1  0.0000000  0.6973333  3
  12406  12404  12403  12417     1  0.0000000  0.6508444  3
  12406  12404  12403  12425     1  0.0000000  1.0460000  1
  12406  12404  12403  12425     1  0.0000000  0.0000000  3
  12407  12408  12409  12412     1  0.0000000  0.6508444  3
  12407  12408  12414  12420     1  0.0000000  1.0460000  1
  12407  12408  12414  12420     1  0.0000000  0.6694400  3
  12407  12404  12416  12419     1  0.0000000  1.0460000  1
  12407  12404  12416  12419     1  0.0000000  0.6694400  3
  12408  12407  12415  12418     1  0.0000000  1.0460000  1
  12408  12407  12415  12418     1  0.0000000  0.6694400  3
  12409  12408  12414  12420     1  0.0000000  1.0460000  1
  12409  12408  12414  12420     1  0.0000000  0.6694400  3
  12409  12408  12407  12411     1  0.0000000  0.6508444  3
  12410  12408  12409  12413     1  0.0000000  1.0460000  1
  12410  12408  12409  12413     1  0.0000000  0.0000000  3
  12410  12408  12409  12425     1  0.0000000  1.0460000  1
  12410  12408  12409  12425     1  0.0000000  0.0000000  3
  12410  12408  12409  12412     1  0.0000000  0.6508444  3
  12410  12408  12414  12420     1  0.0000000  0.6973333  3
  12410  12408  12407  12415     1  0.0000000  1.0460000  1
  12410  12408  12407  12415     1  0.0000000  0.0000000  3
  12410  12408  12407  12411     1  0.0000000  0.6508444  3
  12411  12407  12408  12414     1  0.0000000  1.0460000  1
  12411  12407  12408  12414     1  0.0000000  0.0000000  3
  12411  12407  12415  12418     1  0.0000000  0.6973333  3
  12411  12407  12404  12416     1  0.0000000  1.0460000  1
  12411  12407  12404  12416     1  0.0000000  0.0000000  3
  12412  12409  12408  12414     1  0.0000000  0.6508444  3
  12421  12417  12423  12424     1  0.0000000  0.6973333  3
  12421  12417  12403  12425     1  0.0000000  1.0460000  1
  12421  12417  12403  12425     1  0.0000000  0.0000000  3
  12422  12417  12423  12424     1  0.0000000  0.6973333  3
  12422  12417  12403  12425     1  0.0000000  1.0460000  1
  12422  12417  12403  12425     1  0.0000000  0.0000000  3
  12426  12427  12430  12434     1  0.0000000  0.6508444  3
  12426  12427  12439  12442     1  0.0000000  1.0460000  1
  12426  12427  12439  12442     1  0.0000000  0.6694400  3
  12426  12440  12446  12447     1  0.0000000  1.0460000  1
  12426  12440  12446  12447     1  0.0000000  0.6694400  3
  12426  12448  12432  12435     1  0.0000000  1.6038667  3
  12427  12426  12440  12444     1  0.0000000  0.6508444  3
  12427  12426  12440  12445     1  0.0000000  0.6508444  3
  12427  12430  12431  12433     1  0.0000000  0.6508444  3
  12427  12430  12438  12441     1  0.0000000  1.0460000  1
  12427  12430  12438  12441     1  0.0000000  0.6694400  3
  12428  12426  12427  12430     1  0.0000000  0.6508444  3
  12428  12426  12427  12439     1  0.0000000  1.0460000  1
  12428  12426  12427  12439     1  0.0000000  0.0000000  3
  12428  12426  12427  12429     1  0.0000000  0.6508444  3
  12428  12426  12440  12446     1  0.0000000  1.0460000  1
  12428  12426  12440  12446     1  0.0000000  0.0000000  3
  12428  12426  12440  12444     1  0.0000000  0.6508444  3
  12428  12426  12440  12445     1  0.0000000  0.6508444  3
  12428  12426  12448  12432     1  0.0000000  1.6038667  3
  12429  12427  12426  12440     1  0.0000000  0.6508444  3
  12429  12427  12426  12448     1  0.0000000  1.0460000  1
  12429  12427  12426  12448     1  0.0000000  0.0000000  3
  12429  12427  12430  12431     1  0.0000000  0.6508444  3
  12429  12427  12430  12438     1  0.0000000  1.0460000  1
  12429  12427  12430  12438     1  0.0000000  0.0000000  3
  12429  12427  12430  12434     1  0.0000000  0.6508444  3
  12429  12427  12439  12442     1  0.0000000  0.6973333  3
  12430  12427  12439  12442     1  0.0000000  1.0460000  1
  12430  12427  12439  12442     1  0.0000000  0.6694400  3
  12430  12431  12432  12435     1  0.0000000  0.6508444  3
  12430  12431  12437  12443     1  0.0000000  1.0460000  1
  12430  12431  12437  12443     1  0.0000000  0.6694400  3
  12431  12430  12438  12441     1  0.0000000  1.0460000  1
  12431  12430  12438  12441     1  0.0000000  0.6694400  3
  12432  12431  12430  12434     1  0.0000000  0.6508444  3
  12432  12431  12437  12443     1  0.0000000  1.0460000  1
  12432  12431  12437  12443     1  0.0000000  0.6694400  3
  12433  12431  12430  12438     1  0.0000000  1.0460000  1
  12433  12431  12430  12438     1  0.0000000  0.0000000  3
  12433  12431  12430  12434     1  0.0000000  0.6508444  3
  12433  12431  12432  12436     1  0.0000000  1.0460000  1
  12433  12431  12432  12436     1  0.0000000  0.0000000  3
  12433  12431  12432  12448     1  0.0000000  1.0460000  1
  12433  12431  12432  12448     1  0.0000000  0.0000000  3
  12433  12431  12432  12435     1  0.0000000  0.6508444  3
  12433  12431  12437  12443     1  0.0000000  0.6973333  3
  12434  12430  12427  12439     1  0.0000000  1.0460000  1
  12434  12430  12427  12439     1  0.0000000  0.0000000  3
  12434  12430  12431  12437     1  0.0000000  1.0460000  1
  12434  12430  12431  12437     1  0.0000000  0.0000000  3
  12434  12430  12438  12441     1  0.0000000  0.6973333  3
  12435  12432  12431  12437     1  0.0000000  0.6508444  3
  12444  12440  12426  12448     1  0.0000000  1.0460000  1
  12444  12440  12426  12448     1  0.0000000  0.0000000  3
  12444  12440  12446  12447     1  0.0000000  0.6973333  3
  12445  12440  12426  12448     1  0.0000000  1.0460000  1
  12445  12440  12426  12448     1  0.0000000  0.0000000  3
  12445  12440  12446  12447     1  0.0000000  0.6973333  3
  12449  12450  12453  12457     1  0.0000000  0.6508444  3
  12449  12450  12462  12465     1  0.0000000  1.0460000  1
  12449  12450  12462  12465     1  0.0000000  0.6694400  3
  12449  12463  12469  12470     1  0.0000000  1.0460000  1
  12449  12463  12469  12470     1  0.0000000  0.6694400  3
  12449  12471  12455  12458     1  0.0000000  1.6038667  3
  12450  12453  12454  12456     1  0.0000000  0.6508444  3
  12450  12453  12461  12464     1  0.0000000  1.0460000  1
  12450  12453  12461  12464     1  0.0000000  0.6694400  3
  12450  12449  12463  12467     1  0.0000000  0.6508444  3
  12450  12449  12463  12468     1  0.0000000  0.6508444  3
  12451  12449  12450  12453     1  0.0000000  0.6508444  3
  12451  12449  12450  12462     1  0.0000000  1.0460000  1
  12451  12449  12450  12462     1  0.0000000  0.0000000  3
  12451  12449  12450  12452     1  0.0000000  0.6508444  3
  12451  12449  12463  12469     1  0.0000000  1.0460000  1
  12451  12449  12463  12469     1  0.0000000  0.0000000  3
  12451  12449  12463  12467     1  0.0000000  0.6508444  3
  12451  12449  12463  12468     1  0.0000000  0.6508444  3
  12451  12449  12471  12455     1  0.0000000  1.6038667  3
  12452  12450  12453  12454     1  0.0000000  0.6508444  3
  12452  12450  12453  12461     1  0.0000000  1.0460000  1
  12452  12450  12453  12461     1  0.0000000  0.0000000  3
  12452  12450  12453  12457     1  0.0000000  0.6508444  3
  12452  12450  12462  12465     1  0.0000000  0.6973333  3
  12452  12450  12449  12463     1  0.0000000  0.6508444  3
  12452  12450  12449  12471     1  0.0000000  1.0460000  1
  12452  12450  12449  12471     1  0.0000000  0.0000000  3
  12453  12454  12455  12458     1  0.0000000  0.6508444  3
  12453  12454  12460  12466     1  0.0000000  1.0460000  1
  12453  12454  12460  12466     1  0.0000000  0.6694400  3
  12453  12450  12462  12465     1  0.0000000  1.0460000  1
  12453  12450  12462  12465     1  0.0000000  0.6694400  3
  12454  12453  12461  12464     1  0.0000000  1.0460000  1
  12454  12453  12461  12464     1  0.0000000  0.6694400  3
  12455  12454  12460  12466     1  0.0000000  1.0460000  1
  12455  12454  12460  12466     1  0.0000000  0.6694400  3
  12455  12454  12453  12457     1  0.0000000  0.6508444  3
  12456  12454  12455  12459     1  0.0000000  1.0460000  1
  12456  12454  12455  12459     1  0.0000000  0.0000000  3
  12456  12454  12455  12471     1  0.0000000  1.0460000  1
  12456  12454  12455  12471     1  0.0000000  0.0000000  3
  12456  12454  12455  12458     1  0.0000000  0.6508444  3
  12456  12454  12460  12466     1  0.0000000  0.6973333  3
  12456  12454  12453  12461     1  0.0000000  1.0460000  1
  12456  12454  12453  12461     1  0.0000000  0.0000000  3
  12456  12454  12453  12457     1  0.0000000  0.6508444  3
  12457  12453  12454  12460     1  0.0000000  1.0460000  1
  12457  12453  12454  12460     1  0.0000000  0.0000000  3
  12457  12453  12461  12464     1  0.0000000  0.6973333  3
  12457  12453  12450  12462     1  0.0000000  1.0460000  1
  12457  12453  12450  12462     1  0.0000000  0.0000000  3
  12458  12455  12454  12460     1  0.0000000  0.6508444  3
  12467  12463  12469  12470     1  0.0000000  0.6973333  3
  12467  12463  12449  12471     1  0.0000000  1.0460000  1
  12467  12463  12449  12471     1  0.0000000  0.0000000  3
  12468  12463  12469  12470     1  0.0000000  0.6973333  3
  12468  12463  12449  12471     1  0.0000000  1.0460000  1
  12468  12463  12449  12471     1  0.0000000  0.0000000  3
  12472  12473  12476  12480     1  0.0000000  0.6508444  3
  12472  12473  12485  12488     1  0.0000000  1.0460000  1
  12472  12473  12485  12488     1  0.0000000  0.6694400  3
  12472  12486  12492  12493     1  0.0000000  1.0460000  1
  12472  12486  12492  12493     1  0.0000000  0.6694400  3
  12472  12494  12478  12481     1  0.0000000  1.6038667  3
  12473  12472  12486  12490     1  0.0000000  0.6508444  3
  12473  12472  12486  12491     1  0.0000000  0.6508444  3
  12473  12476  12477  12479     1  0.0000000  0.6508444  3
  12473  12476  12484  12487     1  0.0000000  1.0460000  1
  12473  12476  12484  12487     1  0.0000000  0.6694400  3
  12474  12472  12473  12476     1  0.0000000  0.6508444  3
  12474  12472  12473  12485     1  0.0000000  1.0460000  1
  12474  12472  12473  12485     1  0.0000000  0.0000000  3
  12474  12472  12473  12475     1  0.0000000  0.6508444  3
  12474  12472  12486  12492     1  0.0000000  1.0460000  1
  12474  12472  12486  12492     1  0.0000000  0.0000000  3
  12474  12472  12486  12490     1  0.0000000  0.6508444  3
  12474  12472  12486  12491     1  0.0000000  0.6508444  3
  12474  12472  12494  12478     1  0.0000000  1.6038667  3
  12475  12473  12472  12486     1  0.0000000  0.6508444  3
  12475  12473  12472  12494     1  0.0000000  1.0460000  1
  12475  12473  12472  12494     1  0.0000000  0.0000000  3
  12475  12473  12476  12477     1  0.0000000  0.6508444  3
  12475  12473  12476  12484     1  0.0000000  1.0460000  1
  12475  12473  12476  12484     1  0.0000000  0.0000000  3
  12475  12473  12476  12480     1  0.0000000  0.6508444  3
  12475  12473  12485  12488     1  0.0000000  0.6973333  3
  12476  12473  12485  12488     1  0.0000000  1.0460000  1
  12476  12473  12485  12488     1  0.0000000  0.6694400  3
  12476  12477  12478  12481     1  0.0000000  0.6508444  3
  12476  12477  12483  12489     1  0.0000000  1.0460000  1
  12476  12477  12483  12489     1  0.0000000  0.6694400  3
  12477  12476  12484  12487     1  0.0000000  1.0460000  1
  12477  12476  12484  12487     1  0.0000000  0.6694400  3
  12478  12477  12476  12480     1  0.0000000  0.6508444  3
  12478  12477  12483  12489     1  0.0000000  1.0460000  1
  12478  12477  12483  12489     1  0.0000000  0.6694400  3
  12479  12477  12476  12484     1  0.0000000  1.0460000  1
  12479  12477  12476  12484     1  0.0000000  0.0000000  3
  12479  12477  12476  12480     1  0.0000000  0.6508444  3
  12479  12477  12478  12482     1  0.0000000  1.0460000  1
  12479  12477  12478  12482     1  0.0000000  0.0000000  3
  12479  12477  12478  12494     1  0.0000000  1.0460000  1
  12479  12477  12478  12494     1  0.0000000  0.0000000  3
  12479  12477  12478  12481     1  0.0000000  0.6508444  3
  12479  12477  12483  12489     1  0.0000000  0.6973333  3
  12480  12476  12473  12485     1  0.0000000  1.0460000  1
  12480  12476  12473  12485     1  0.0000000  0.0000000  3
  12480  12476  12477  12483     1  0.0000000  1.0460000  1
  12480  12476  12477  12483     1  0.0000000  0.0000000  3
  12480  12476  12484  12487     1  0.0000000  0.6973333  3
  12481  12478  12477  12483     1  0.0000000  0.6508444  3
  12490  12486  12472  12494     1  0.0000000  1.0460000  1
  12490  12486  12472  12494     1  0.0000000  0.0000000  3
  12490  12486  12492  12493     1  0.0000000  0.6973333  3
  12491  12486  12472  12494     1  0.0000000  1.0460000  1
  12491  12486  12472  12494     1  0.0000000  0.0000000  3
  12491  12486  12492  12493     1  0.0000000  0.6973333  3
  12495  12496  12499  12503     1  0.0000000  0.6508444  3
  12495  12496  12508  12511     1  0.0000000  1.0460000  1
  12495  12496  12508  12511     1  0.0000000  0.6694400  3
  12495  12509  12515  12516     1  0.0000000  1.0460000  1
  12495  12509  12515  12516     1  0.0000000  0.6694400  3
  12495  12517  12501  12504     1  0.0000000  1.6038667  3
  12496  12499  12500  12502     1  0.0000000  0.6508444  3
  12496  12499  12507  12510     1  0.0000000  1.0460000  1
  12496  12499  12507  12510     1  0.0000000  0.6694400  3
  12496  12495  12509  12513     1  0.0000000  0.6508444  3
  12496  12495  12509  12514     1  0.0000000  0.6508444  3
  12497  12495  12496  12499     1  0.0000000  0.6508444  3
  12497  12495  12496  12508     1  0.0000000  1.0460000  1
  12497  12495  12496  12508     1  0.0000000  0.0000000  3
  12497  12495  12496  12498     1  0.0000000  0.6508444  3
  12497  12495  12509  12515     1  0.0000000  1.0460000  1
  12497  12495  12509  12515     1  0.0000000  0.0000000  3
  12497  12495  12509  12513     1  0.0000000  0.6508444  3
  12497  12495  12509  12514     1  0.0000000  0.6508444  3
  12497  12495  12517  12501     1  0.0000000  1.6038667  3
  12498  12496  12499  12500     1  0.0000000  0.6508444  3
  12498  12496  12499  12507     1  0.0000000  1.0460000  1
  12498  12496  12499  12507     1  0.0000000  0.0000000  3
  12498  12496  12499  12503     1  0.0000000  0.6508444  3
  12498  12496  12508  12511     1  0.0000000  0.6973333  3
  12498  12496  12495  12509     1  0.0000000  0.6508444  3
  12498  12496  12495  12517     1  0.0000000  1.0460000  1
  12498  12496  12495  12517     1  0.0000000  0.0000000  3
  12499  12500  12501  12504     1  0.0000000  0.6508444  3
  12499  12500  12506  12512     1  0.0000000  1.0460000  1
  12499  12500  12506  12512     1  0.0000000  0.6694400  3
  12499  12496  12508  12511     1  0.0000000  1.0460000  1
  12499  12496  12508  12511     1  0.0000000  0.6694400  3
  12500  12499  12507  12510     1  0.0000000  1.0460000  1
  12500  12499  12507  12510     1  0.0000000  0.6694400  3
  12501  12500  12506  12512     1  0.0000000  1.0460000  1
  12501  12500  12506  12512     1  0.0000000  0.6694400  3
  12501  12500  12499  12503     1  0.0000000  0.6508444  3
  12502  12500  12501  12505     1  0.0000000  1.0460000  1
  12502  12500  12501  12505     1  0.0000000  0.0000000  3
  12502  12500  12501  12517     1  0.0000000  1.0460000  1
  12502  12500  12501  12517     1  0.0000000  0.0000000  3
  12502  12500  12501  12504     1  0.0000000  0.6508444  3
  12502  12500  12506  12512     1  0.0000000  0.6973333  3
  12502  12500  12499  12507     1  0.0000000  1.0460000  1
  12502  12500  12499  12507     1  0.0000000  0.0000000  3
  12502  12500  12499  12503     1  0.0000000  0.6508444  3
  12503  12499  12500  12506     1  0.0000000  1.0460000  1
  12503  12499  12500  12506     1  0.0000000  0.0000000  3
  12503  12499  12507  12510     1  0.0000000  0.6973333  3
  12503  12499  12496  12508     1  0.0000000  1.0460000  1
  12503  12499  12496  12508     1  0.0000000  0.0000000  3
  12504  12501  12500  12506     1  0.0000000  0.6508444  3
  12513  12509  12515  12516     1  0.0000000  0.6973333  3
  12513  12509  12495  12517     1  0.0000000  1.0460000  1
  12513  12509  12495  12517     1  0.0000000  0.0000000  3
  12514  12509  12515  12516     1  0.0000000  0.6973333  3
  12514  12509  12495  12517     1  0.0000000  1.0460000  1
  12514  12509  12495  12517     1  0.0000000  0.0000000  3
  12518  12519  12522  12526     1  0.0000000  0.6508444  3
  12518  12519  12531  12534     1  0.0000000  1.0460000  1
  12518  12519  12531  12534     1  0.0000000  0.6694400  3
  12518  12532  12538  12539     1  0.0000000  1.0460000  1
  12518  12532  12538  12539     1  0.0000000  0.6694400  3
  12518  12540  12524  12527     1  0.0000000  1.6038667  3
  12519  12518  12532  12536     1  0.0000000  0.6508444  3
  12519  12518  12532  12537     1  0.0000000  0.6508444  3
  12519  12522  12523  12525     1  0.0000000  0.6508444  3
  12519  12522  12530  12533     1  0.0000000  1.0460000  1
  12519  12522  12530  12533     1  0.0000000  0.6694400  3
  12520  12518  12519  12522     1  0.0000000  0.6508444  3
  12520  12518  12519  12531     1  0.0000000  1.0460000  1
  12520  12518  12519  12531     1  0.0000000  0.0000000  3
  12520  12518  12519  12521     1  0.0000000  0.6508444  3
  12520  12518  12532  12538     1  0.0000000  1.0460000  1
  12520  12518  12532  12538     1  0.0000000  0.0000000  3
  12520  12518  12532  12536     1  0.0000000  0.6508444  3
  12520  12518  12532  12537     1  0.0000000  0.6508444  3
  12520  12518  12540  12524     1  0.0000000  1.6038667  3
  12521  12519  12518  12532     1  0.0000000  0.6508444  3
  12521  12519  12518  12540     1  0.0000000  1.0460000  1
  12521  12519  12518  12540     1  0.0000000  0.0000000  3
  12521  12519  12522  12523     1  0.0000000  0.6508444  3
  12521  12519  12522  12530     1  0.0000000  1.0460000  1
  12521  12519  12522  12530     1  0.0000000  0.0000000  3
  12521  12519  12522  12526     1  0.0000000  0.6508444  3
  12521  12519  12531  12534     1  0.0000000  0.6973333  3
  12522  12519  12531  12534     1  0.0000000  1.0460000  1
  12522  12519  12531  12534     1  0.0000000  0.6694400  3
  12522  12523  12524  12527     1  0.0000000  0.6508444  3
  12522  12523  12529  12535     1  0.0000000  1.0460000  1
  12522  12523  12529  12535     1  0.0000000  0.6694400  3
  12523  12522  12530  12533     1  0.0000000  1.0460000  1
  12523  12522  12530  12533     1  0.0000000  0.6694400  3
  12524  12523  12522  12526     1  0.0000000  0.6508444  3
  12524  12523  12529  12535     1  0.0000000  1.0460000  1
  12524  12523  12529  12535     1  0.0000000  0.6694400  3
  12525  12523  12522  12530     1  0.0000000  1.0460000  1
  12525  12523  12522  12530     1  0.0000000  0.0000000  3
  12525  12523  12522  12526     1  0.0000000  0.6508444  3
  12525  12523  12524  12528     1  0.0000000  1.0460000  1
  12525  12523  12524  12528     1  0.0000000  0.0000000  3
  12525  12523  12524  12540     1  0.0000000  1.0460000  1
  12525  12523  12524  12540     1  0.0000000  0.0000000  3
  12525  12523  12524  12527     1  0.0000000  0.6508444  3
  12525  12523  12529  12535     1  0.0000000  0.6973333  3
  12526  12522  12519  12531     1  0.0000000  1.0460000  1
  12526  12522  12519  12531     1  0.0000000  0.0000000  3
  12526  12522  12523  12529     1  0.0000000  1.0460000  1
  12526  12522  12523  12529     1  0.0000000  0.0000000  3
  12526  12522  12530  12533     1  0.0000000  0.6973333  3
  12527  12524  12523  12529     1  0.0000000  0.6508444  3
  12536  12532  12518  12540     1  0.0000000  1.0460000  1
  12536  12532  12518  12540     1  0.0000000  0.0000000  3
  12536  12532  12538  12539     1  0.0000000  0.6973333  3
  12537  12532  12518  12540     1  0.0000000  1.0460000  1
  12537  12532  12518  12540     1  0.0000000  0.0000000  3
  12537  12532  12538  12539     1  0.0000000  0.6973333  3
  12541  12542  12545  12549     1  0.0000000  0.6508444  3
  12541  12542  12554  12557     1  0.0000000  1.0460000  1
  12541  12542  12554  12557     1  0.0000000  0.6694400  3
  12541  12555  12561  12562     1  0.0000000  1.0460000  1
  12541  12555  12561  12562     1  0.0000000  0.6694400  3
  12541  12563  12547  12550     1  0.0000000  1.6038667  3
  12542  12545  12546  12548     1  0.0000000  0.6508444  3
  12542  12545  12553  12556     1  0.0000000  1.0460000  1
  12542  12545  12553  12556     1  0.0000000  0.6694400  3
  12542  12541  12555  12559     1  0.0000000  0.6508444  3
  12542  12541  12555  12560     1  0.0000000  0.6508444  3
  12543  12541  12542  12545     1  0.0000000  0.6508444  3
  12543  12541  12542  12554     1  0.0000000  1.0460000  1
  12543  12541  12542  12554     1  0.0000000  0.0000000  3
  12543  12541  12542  12544     1  0.0000000  0.6508444  3
  12543  12541  12555  12561     1  0.0000000  1.0460000  1
  12543  12541  12555  12561     1  0.0000000  0.0000000  3
  12543  12541  12555  12559     1  0.0000000  0.6508444  3
  12543  12541  12555  12560     1  0.0000000  0.6508444  3
  12543  12541  12563  12547     1  0.0000000  1.6038667  3
  12544  12542  12545  12546     1  0.0000000  0.6508444  3
  12544  12542  12545  12553     1  0.0000000  1.0460000  1
  12544  12542  12545  12553     1  0.0000000  0.0000000  3
  12544  12542  12545  12549     1  0.0000000  0.6508444  3
  12544  12542  12554  12557     1  0.0000000  0.6973333  3
  12544  12542  12541  12555     1  0.0000000  0.6508444  3
  12544  12542  12541  12563     1  0.0000000  1.0460000  1
  12544  12542  12541  12563     1  0.0000000  0.0000000  3
  12545  12546  12547  12550     1  0.0000000  0.6508444  3
  12545  12546  12552  12558     1  0.0000000  1.0460000  1
  12545  12546  12552  12558     1  0.0000000  0.6694400  3
  12545  12542  12554  12557     1  0.0000000  1.0460000  1
  12545  12542  12554  12557     1  0.0000000  0.6694400  3
  12546  12545  12553  12556     1  0.0000000  1.0460000  1
  12546  12545  12553  12556     1  0.0000000  0.6694400  3
  12547  12546  12552  12558     1  0.0000000  1.0460000  1
  12547  12546  12552  12558     1  0.0000000  0.6694400  3
  12547  12546  12545  12549     1  0.0000000  0.6508444  3
  12548  12546  12547  12551     1  0.0000000  1.0460000  1
  12548  12546  12547  12551     1  0.0000000  0.0000000  3
  12548  12546  12547  12563     1  0.0000000  1.0460000  1
  12548  12546  12547  12563     1  0.0000000  0.0000000  3
  12548  12546  12547  12550     1  0.0000000  0.6508444  3
  12548  12546  12552  12558     1  0.0000000  0.6973333  3
  12548  12546  12545  12553     1  0.0000000  1.0460000  1
  12548  12546  12545  12553     1  0.0000000  0.0000000  3
  12548  12546  12545  12549     1  0.0000000  0.6508444  3
  12549  12545  12546  12552     1  0.0000000  1.0460000  1
  12549  12545  12546  12552     1  0.0000000  0.0000000  3
  12549  12545  12553  12556     1  0.0000000  0.6973333  3
  12549  12545  12542  12554     1  0.0000000  1.0460000  1
  12549  12545  12542  12554     1  0.0000000  0.0000000  3
  12550  12547  12546  12552     1  0.0000000  0.6508444  3
  12559  12555  12561  12562     1  0.0000000  0.6973333  3
  12559  12555  12541  12563     1  0.0000000  1.0460000  1
  12559  12555  12541  12563     1  0.0000000  0.0000000  3
  12560  12555  12561  12562     1  0.0000000  0.6973333  3
  12560  12555  12541  12563     1  0.0000000  1.0460000  1
  12560  12555  12541  12563     1  0.0000000  0.0000000  3
  12564  12565  12568  12572     1  0.0000000  0.6508444  3
  12564  12565  12577  12580     1  0.0000000  1.0460000  1
  12564  12565  12577  12580     1  0.0000000  0.6694400  3
  12564  12578  12584  12585     1  0.0000000  1.0460000  1
  12564  12578  12584  12585     1  0.0000000  0.6694400  3
  12564  12586  12570  12573     1  0.0000000  1.6038667  3
  12565  12564  12578  12582     1  0.0000000  0.6508444  3
  12565  12564  12578  12583     1  0.0000000  0.6508444  3
  12565  12568  12569  12571     1  0.0000000  0.6508444  3
  12565  12568  12576  12579     1  0.0000000  1.0460000  1
  12565  12568  12576  12579     1  0.0000000  0.6694400  3
  12566  12564  12565  12568     1  0.0000000  0.6508444  3
  12566  12564  12565  12577     1  0.0000000  1.0460000  1
  12566  12564  12565  12577     1  0.0000000  0.0000000  3
  12566  12564  12565  12567     1  0.0000000  0.6508444  3
  12566  12564  12578  12584     1  0.0000000  1.0460000  1
  12566  12564  12578  12584     1  0.0000000  0.0000000  3
  12566  12564  12578  12582     1  0.0000000  0.6508444  3
  12566  12564  12578  12583     1  0.0000000  0.6508444  3
  12566  12564  12586  12570     1  0.0000000  1.6038667  3
  12567  12565  12564  12578     1  0.0000000  0.6508444  3
  12567  12565  12564  12586     1  0.0000000  1.0460000  1
  12567  12565  12564  12586     1  0.0000000  0.0000000  3
  12567  12565  12568  12569     1  0.0000000  0.6508444  3
  12567  12565  12568  12576     1  0.0000000  1.0460000  1
  12567  12565  12568  12576     1  0.0000000  0.0000000  3
  12567  12565  12568  12572     1  0.0000000  0.6508444  3
  12567  12565  12577  12580     1  0.0000000  0.6973333  3
  12568  12565  12577  12580     1  0.0000000  1.0460000  1
  12568  12565  12577  12580     1  0.0000000  0.6694400  3
  12568  12569  12570  12573     1  0.0000000  0.6508444  3
  12568  12569  12575  12581     1  0.0000000  1.0460000  1
  12568  12569  12575  12581     1  0.0000000  0.6694400  3
  12569  12568  12576  12579     1  0.0000000  1.0460000  1
  12569  12568  12576  12579     1  0.0000000  0.6694400  3
  12570  12569  12568  12572     1  0.0000000  0.6508444  3
  12570  12569  12575  12581     1  0.0000000  1.0460000  1
  12570  12569  12575  12581     1  0.0000000  0.6694400  3
  12571  12569  12568  12576     1  0.0000000  1.0460000  1
  12571  12569  12568  12576     1  0.0000000  0.0000000  3
  12571  12569  12568  12572     1  0.0000000  0.6508444  3
  12571  12569  12570  12574     1  0.0000000  1.0460000  1
  12571  12569  12570  12574     1  0.0000000  0.0000000  3
  12571  12569  12570  12586     1  0.0000000  1.0460000  1
  12571  12569  12570  12586     1  0.0000000  0.0000000  3
  12571  12569  12570  12573     1  0.0000000  0.6508444  3
  12571  12569  12575  12581     1  0.0000000  0.6973333  3
  12572  12568  12565  12577     1  0.0000000  1.0460000  1
  12572  12568  12565  12577     1  0.0000000  0.0000000  3
  12572  12568  12569  12575     1  0.0000000  1.0460000  1
  12572  12568  12569  12575     1  0.0000000  0.0000000  3
  12572  12568  12576  12579     1  0.0000000  0.6973333  3
  12573  12570  12569  12575     1  0.0000000  0.6508444  3
  12582  12578  12564  12586     1  0.0000000  1.0460000  1
  12582  12578  12564  12586     1  0.0000000  0.0000000  3
  12582  12578  12584  12585     1  0.0000000  0.6973333  3
  12583  12578  12564  12586     1  0.0000000  1.0460000  1
  12583  12578  12564  12586     1  0.0000000  0.0000000  3
  12583  12578  12584  12585     1  0.0000000  0.6973333  3
  12587  12588  12591  12595     1  0.0000000  0.6508444  3
  12587  12588  12600  12603     1  0.0000000  1.0460000  1
  12587  12588  12600  12603     1  0.0000000  0.6694400  3
  12587  12601  12607  12608     1  0.0000000  1.0460000  1
  12587  12601  12607  12608     1  0.0000000  0.6694400  3
  12587  12609  12593  12596     1  0.0000000  1.6038667  3
  12588  12591  12592  12594     1  0.0000000  0.6508444  3
  12588  12591  12599  12602     1  0.0000000  1.0460000  1
  12588  12591  12599  12602     1  0.0000000  0.6694400  3
  12588  12587  12601  12605     1  0.0000000  0.6508444  3
  12588  12587  12601  12606     1  0.0000000  0.6508444  3
  12589  12587  12588  12591     1  0.0000000  0.6508444  3
  12589  12587  12588  12600     1  0.0000000  1.0460000  1
  12589  12587  12588  12600     1  0.0000000  0.0000000  3
  12589  12587  12588  12590     1  0.0000000  0.6508444  3
  12589  12587  12601  12607     1  0.0000000  1.0460000  1
  12589  12587  12601  12607     1  0.0000000  0.0000000  3
  12589  12587  12601  12605     1  0.0000000  0.6508444  3
  12589  12587  12601  12606     1  0.0000000  0.6508444  3
  12589  12587  12609  12593     1  0.0000000  1.6038667  3
  12590  12588  12591  12592     1  0.0000000  0.6508444  3
  12590  12588  12591  12599     1  0.0000000  1.0460000  1
  12590  12588  12591  12599     1  0.0000000  0.0000000  3
  12590  12588  12591  12595     1  0.0000000  0.6508444  3
  12590  12588  12600  12603     1  0.0000000  0.6973333  3
  12590  12588  12587  12601     1  0.0000000  0.6508444  3
  12590  12588  12587  12609     1  0.0000000  1.0460000  1
  12590  12588  12587  12609     1  0.0000000  0.0000000  3
  12591  12592  12593  12596     1  0.0000000  0.6508444  3
  12591  12592  12598  12604     1  0.0000000  1.0460000  1
  12591  12592  12598  12604     1  0.0000000  0.6694400  3
  12591  12588  12600  12603     1  0.0000000  1.0460000  1
  12591  12588  12600  12603     1  0.0000000  0.6694400  3
  12592  12591  12599  12602     1  0.0000000  1.0460000  1
  12592  12591  12599  12602     1  0.0000000  0.6694400  3
  12593  12592  12598  12604     1  0.0000000  1.0460000  1
  12593  12592  12598  12604     1  0.0000000  0.6694400  3
  12593  12592  12591  12595     1  0.0000000  0.6508444  3
  12594  12592  12593  12597     1  0.0000000  1.0460000  1
  12594  12592  12593  12597     1  0.0000000  0.0000000  3
  12594  12592  12593  12609     1  0.0000000  1.0460000  1
  12594  12592  12593  12609     1  0.0000000  0.0000000  3
  12594  12592  12593  12596     1  0.0000000  0.6508444  3
  12594  12592  12598  12604     1  0.0000000  0.6973333  3
  12594  12592  12591  12599     1  0.0000000  1.0460000  1
  12594  12592  12591  12599     1  0.0000000  0.0000000  3
  12594  12592  12591  12595     1  0.0000000  0.6508444  3
  12595  12591  12592  12598     1  0.0000000  1.0460000  1
  12595  12591  12592  12598     1  0.0000000  0.0000000  3
  12595  12591  12599  12602     1  0.0000000  0.6973333  3
  12595  12591  12588  12600     1  0.0000000  1.0460000  1
  12595  12591  12588  12600     1  0.0000000  0.0000000  3
  12596  12593  12592  12598     1  0.0000000  0.6508444  3
  12605  12601  12607  12608     1  0.0000000  0.6973333  3
  12605  12601  12587  12609     1  0.0000000  1.0460000  1
  12605  12601  12587  12609     1  0.0000000  0.0000000  3
  12606  12601  12607  12608     1  0.0000000  0.6973333  3
  12606  12601  12587  12609     1  0.0000000  1.0460000  1
  12606  12601  12587  12609     1  0.0000000  0.0000000  3
  12610  12611  12614  12618     1  0.0000000  0.6508444  3
  12610  12611  12623  12626     1  0.0000000  1.0460000  1
  12610  12611  12623  12626     1  0.0000000  0.6694400  3
  12610  12624  12630  12631     1  0.0000000  1.0460000  1
  12610  12624  12630  12631     1  0.0000000  0.6694400  3
  12610  12632  12616  12619     1  0.0000000  1.6038667  3
  12611  12610  12624  12628     1  0.0000000  0.6508444  3
  12611  12610  12624  12629     1  0.0000000  0.6508444  3
  12611  12614  12615  12617     1  0.0000000  0.6508444  3
  12611  12614  12622  12625     1  0.0000000  1.0460000  1
  12611  12614  12622  12625     1  0.0000000  0.6694400  3
  12612  12610  12611  12614     1  0.0000000  0.6508444  3
  12612  12610  12611  12623     1  0.0000000  1.0460000  1
  12612  12610  12611  12623     1  0.0000000  0.0000000  3
  12612  12610  12611  12613     1  0.0000000  0.6508444  3
  12612  12610  12624  12630     1  0.0000000  1.0460000  1
  12612  12610  12624  12630     1  0.0000000  0.0000000  3
  12612  12610  12624  12628     1  0.0000000  0.6508444  3
  12612  12610  12624  12629     1  0.0000000  0.6508444  3
  12612  12610  12632  12616     1  0.0000000  1.6038667  3
  12613  12611  12610  12624     1  0.0000000  0.6508444  3
  12613  12611  12610  12632     1  0.0000000  1.0460000  1
  12613  12611  12610  12632     1  0.0000000  0.0000000  3
  12613  12611  12614  12615     1  0.0000000  0.6508444  3
  12613  12611  12614  12622     1  0.0000000  1.0460000  1
  12613  12611  12614  12622     1  0.0000000  0.0000000  3
  12613  12611  12614  12618     1  0.0000000  0.6508444  3
  12613  12611  12623  12626     1  0.0000000  0.6973333  3
  12614  12611  12623  12626     1  0.0000000  1.0460000  1
  12614  12611  12623  12626     1  0.0000000  0.6694400  3
  12614  12615  12616  12619     1  0.0000000  0.6508444  3
  12614  12615  12621  12627     1  0.0000000  1.0460000  1
  12614  12615  12621  12627     1  0.0000000  0.6694400  3
  12615  12614  12622  12625     1  0.0000000  1.0460000  1
  12615  12614  12622  12625     1  0.0000000  0.6694400  3
  12616  12615  12614  12618     1  0.0000000  0.6508444  3
  12616  12615  12621  12627     1  0.0000000  1.0460000  1
  12616  12615  12621  12627     1  0.0000000  0.6694400  3
  12617  12615  12614  12622     1  0.0000000  1.0460000  1
  12617  12615  12614  12622     1  0.0000000  0.0000000  3
  12617  12615  12614  12618     1  0.0000000  0.6508444  3
  12617  12615  12616  12620     1  0.0000000  1.0460000  1
  12617  12615  12616  12620     1  0.0000000  0.0000000  3
  12617  12615  12616  12632     1  0.0000000  1.0460000  1
  12617  12615  12616  12632     1  0.0000000  0.0000000  3
  12617  12615  12616  12619     1  0.0000000  0.6508444  3
  12617  12615  12621  12627     1  0.0000000  0.6973333  3
  12618  12614  12611  12623     1  0.0000000  1.0460000  1
  12618  12614  12611  12623     1  0.0000000  0.0000000  3
  12618  12614  12615  12621     1  0.0000000  1.0460000  1
  12618  12614  12615  12621     1  0.0000000  0.0000000  3
  12618  12614  12622  12625     1  0.0000000  0.6973333  3
  12619  12616  12615  12621     1  0.0000000  0.6508444  3
  12628  12624  12610  12632     1  0.0000000  1.0460000  1
  12628  12624  12610  12632     1  0.0000000  0.0000000  3
  12628  12624  12630  12631     1  0.0000000  0.6973333  3
  12629  12624  12610  12632     1  0.0000000  1.0460000  1
  12629  12624  12610  12632     1  0.0000000  0.0000000  3
  12629  12624  12630  12631     1  0.0000000  0.6973333  3
  12633  12634  12637  12641     1  0.0000000  0.6508444  3
  12633  12634  12646  12649     1  0.0000000  1.0460000  1
  12633  12634  12646  12649     1  0.0000000  0.6694400  3
  12633  12647  12653  12654     1  0.0000000  1.0460000  1
  12633  12647  12653  12654     1  0.0000000  0.6694400  3
  12633  12655  12639  12642     1  0.0000000  1.6038667  3
  12634  12637  12638  12640     1  0.0000000  0.6508444  3
  12634  12637  12645  12648     1  0.0000000  1.0460000  1
  12634  12637  12645  12648     1  0.0000000  0.6694400  3
  12634  12633  12647  12651     1  0.0000000  0.6508444  3
  12634  12633  12647  12652     1  0.0000000  0.6508444  3
  12635  12633  12634  12637     1  0.0000000  0.6508444  3
  12635  12633  12634  12646     1  0.0000000  1.0460000  1
  12635  12633  12634  12646     1  0.0000000  0.0000000  3
  12635  12633  12634  12636     1  0.0000000  0.6508444  3
  12635  12633  12647  12653     1  0.0000000  1.0460000  1
  12635  12633  12647  12653     1  0.0000000  0.0000000  3
  12635  12633  12647  12651     1  0.0000000  0.6508444  3
  12635  12633  12647  12652     1  0.0000000  0.6508444  3
  12635  12633  12655  12639     1  0.0000000  1.6038667  3
  12636  12634  12637  12638     1  0.0000000  0.6508444  3
  12636  12634  12637  12645     1  0.0000000  1.0460000  1
  12636  12634  12637  12645     1  0.0000000  0.0000000  3
  12636  12634  12637  12641     1  0.0000000  0.6508444  3
  12636  12634  12646  12649     1  0.0000000  0.6973333  3
  12636  12634  12633  12647     1  0.0000000  0.6508444  3
  12636  12634  12633  12655     1  0.0000000  1.0460000  1
  12636  12634  12633  12655     1  0.0000000  0.0000000  3
  12637  12638  12639  12642     1  0.0000000  0.6508444  3
  12637  12638  12644  12650     1  0.0000000  1.0460000  1
  12637  12638  12644  12650     1  0.0000000  0.6694400  3
  12637  12634  12646  12649     1  0.0000000  1.0460000  1
  12637  12634  12646  12649     1  0.0000000  0.6694400  3
  12638  12637  12645  12648     1  0.0000000  1.0460000  1
  12638  12637  12645  12648     1  0.0000000  0.6694400  3
  12639  12638  12644  12650     1  0.0000000  1.0460000  1
  12639  12638  12644  12650     1  0.0000000  0.6694400  3
  12639  12638  12637  12641     1  0.0000000  0.6508444  3
  12640  12638  12639  12643     1  0.0000000  1.0460000  1
  12640  12638  12639  12643     1  0.0000000  0.0000000  3
  12640  12638  12639  12655     1  0.0000000  1.0460000  1
  12640  12638  12639  12655     1  0.0000000  0.0000000  3
  12640  12638  12639  12642     1  0.0000000  0.6508444  3
  12640  12638  12644  12650     1  0.0000000  0.6973333  3
  12640  12638  12637  12645     1  0.0000000  1.0460000  1
  12640  12638  12637  12645     1  0.0000000  0.0000000  3
  12640  12638  12637  12641     1  0.0000000  0.6508444  3
  12641  12637  12638  12644     1  0.0000000  1.0460000  1
  12641  12637  12638  12644     1  0.0000000  0.0000000  3
  12641  12637  12645  12648     1  0.0000000  0.6973333  3
  12641  12637  12634  12646     1  0.0000000  1.0460000  1
  12641  12637  12634  12646     1  0.0000000  0.0000000  3
  12642  12639  12638  12644     1  0.0000000  0.6508444  3
  12651  12647  12653  12654     1  0.0000000  0.6973333  3
  12651  12647  12633  12655     1  0.0000000  1.0460000  1
  12651  12647  12633  12655     1  0.0000000  0.0000000  3
  12652  12647  12653  12654     1  0.0000000  0.6973333  3
  12652  12647  12633  12655     1  0.0000000  1.0460000  1
  12652  12647  12633  12655     1  0.0000000  0.0000000  3
  12656  12657  12660  12664     1  0.0000000  0.6508444  3
  12656  12657  12669  12672     1  0.0000000  1.0460000  1
  12656  12657  12669  12672     1  0.0000000  0.6694400  3
  12656  12670  12676  12677     1  0.0000000  1.0460000  1
  12656  12670  12676  12677     1  0.0000000  0.6694400  3
  12656  12678  12662  12665     1  0.0000000  1.6038667  3
  12657  12656  12670  12674     1  0.0000000  0.6508444  3
  12657  12656  12670  12675     1  0.0000000  0.6508444  3
  12657  12660  12661  12663     1  0.0000000  0.6508444  3
  12657  12660  12668  12671     1  0.0000000  1.0460000  1
  12657  12660  12668  12671     1  0.0000000  0.6694400  3
  12658  12656  12657  12660     1  0.0000000  0.6508444  3
  12658  12656  12657  12669     1  0.0000000  1.0460000  1
  12658  12656  12657  12669     1  0.0000000  0.0000000  3
  12658  12656  12657  12659     1  0.0000000  0.6508444  3
  12658  12656  12670  12676     1  0.0000000  1.0460000  1
  12658  12656  12670  12676     1  0.0000000  0.0000000  3
  12658  12656  12670  12674     1  0.0000000  0.6508444  3
  12658  12656  12670  12675     1  0.0000000  0.6508444  3
  12658  12656  12678  12662     1  0.0000000  1.6038667  3
  12659  12657  12656  12670     1  0.0000000  0.6508444  3
  12659  12657  12656  12678     1  0.0000000  1.0460000  1
  12659  12657  12656  12678     1  0.0000000  0.0000000  3
  12659  12657  12660  12661     1  0.0000000  0.6508444  3
  12659  12657  12660  12668     1  0.0000000  1.0460000  1
  12659  12657  12660  12668     1  0.0000000  0.0000000  3
  12659  12657  12660  12664     1  0.0000000  0.6508444  3
  12659  12657  12669  12672     1  0.0000000  0.6973333  3
  12660  12657  12669  12672     1  0.0000000  1.0460000  1
  12660  12657  12669  12672     1  0.0000000  0.6694400  3
  12660  12661  12662  12665     1  0.0000000  0.6508444  3
  12660  12661  12667  12673     1  0.0000000  1.0460000  1
  12660  12661  12667  12673     1  0.0000000  0.6694400  3
  12661  12660  12668  12671     1  0.0000000  1.0460000  1
  12661  12660  12668  12671     1  0.0000000  0.6694400  3
  12662  12661  12660  12664     1  0.0000000  0.6508444  3
  12662  12661  12667  12673     1  0.0000000  1.0460000  1
  12662  12661  12667  12673     1  0.0000000  0.6694400  3
  12663  12661  12660  12668     1  0.0000000  1.0460000  1
  12663  12661  12660  12668     1  0.0000000  0.0000000  3
  12663  12661  12660  12664     1  0.0000000  0.6508444  3
  12663  12661  12662  12666     1  0.0000000  1.0460000  1
  12663  12661  12662  12666     1  0.0000000  0.0000000  3
  12663  12661  12662  12678     1  0.0000000  1.0460000  1
  12663  12661  12662  12678     1  0.0000000  0.0000000  3
  12663  12661  12662  12665     1  0.0000000  0.6508444  3
  12663  12661  12667  12673     1  0.0000000  0.6973333  3
  12664  12660  12657  12669     1  0.0000000  1.0460000  1
  12664  12660  12657  12669     1  0.0000000  0.0000000  3
  12664  12660  12661  12667     1  0.0000000  1.0460000  1
  12664  12660  12661  12667     1  0.0000000  0.0000000  3
  12664  12660  12668  12671     1  0.0000000  0.6973333  3
  12665  12662  12661  12667     1  0.0000000  0.6508444  3
  12674  12670  12656  12678     1  0.0000000  1.0460000  1
  12674  12670  12656  12678     1  0.0000000  0.0000000  3
  12674  12670  12676  12677     1  0.0000000  0.6973333  3
  12675  12670  12656  12678     1  0.0000000  1.0460000  1
  12675  12670  12656  12678     1  0.0000000  0.0000000  3
  12675  12670  12676  12677     1  0.0000000  0.6973333  3
  12679  12680  12683  12687     1  0.0000000  0.6508444  3
  12679  12680  12692  12695     1  0.0000000  1.0460000  1
  12679  12680  12692  12695     1  0.0000000  0.6694400  3
  12679  12693  12699  12700     1  0.0000000  1.0460000  1
  12679  12693  12699  12700     1  0.0000000  0.6694400  3
  12679  12701  12685  12688     1  0.0000000  1.6038667  3
  12680  12683  12684  12686     1  0.0000000  0.6508444  3
  12680  12683  12691  12694     1  0.0000000  1.0460000  1
  12680  12683  12691  12694     1  0.0000000  0.6694400  3
  12680  12679  12693  12697     1  0.0000000  0.6508444  3
  12680  12679  12693  12698     1  0.0000000  0.6508444  3
  12681  12679  12680  12683     1  0.0000000  0.6508444  3
  12681  12679  12680  12692     1  0.0000000  1.0460000  1
  12681  12679  12680  12692     1  0.0000000  0.0000000  3
  12681  12679  12680  12682     1  0.0000000  0.6508444  3
  12681  12679  12693  12699     1  0.0000000  1.0460000  1
  12681  12679  12693  12699     1  0.0000000  0.0000000  3
  12681  12679  12693  12697     1  0.0000000  0.6508444  3
  12681  12679  12693  12698     1  0.0000000  0.6508444  3
  12681  12679  12701  12685     1  0.0000000  1.6038667  3
  12682  12680  12683  12684     1  0.0000000  0.6508444  3
  12682  12680  12683  12691     1  0.0000000  1.0460000  1
  12682  12680  12683  12691     1  0.0000000  0.0000000  3
  12682  12680  12683  12687     1  0.0000000  0.6508444  3
  12682  12680  12692  12695     1  0.0000000  0.6973333  3
  12682  12680  12679  12693     1  0.0000000  0.6508444  3
  12682  12680  12679  12701     1  0.0000000  1.0460000  1
  12682  12680  12679  12701     1  0.0000000  0.0000000  3
  12683  12684  12685  12688     1  0.0000000  0.6508444  3
  12683  12684  12690  12696     1  0.0000000  1.0460000  1
  12683  12684  12690  12696     1  0.0000000  0.6694400  3
  12683  12680  12692  12695     1  0.0000000  1.0460000  1
  12683  12680  12692  12695     1  0.0000000  0.6694400  3
  12684  12683  12691  12694     1  0.0000000  1.0460000  1
  12684  12683  12691  12694     1  0.0000000  0.6694400  3
  12685  12684  12690  12696     1  0.0000000  1.0460000  1
  12685  12684  12690  12696     1  0.0000000  0.6694400  3
  12685  12684  12683  12687     1  0.0000000  0.6508444  3
  12686  12684  12685  12689     1  0.0000000  1.0460000  1
  12686  12684  12685  12689     1  0.0000000  0.0000000  3
  12686  12684  12685  12701     1  0.0000000  1.0460000  1
  12686  12684  12685  12701     1  0.0000000  0.0000000  3
  12686  12684  12685  12688     1  0.0000000  0.6508444  3
  12686  12684  12690  12696     1  0.0000000  0.6973333  3
  12686  12684  12683  12691     1  0.0000000  1.0460000  1
  12686  12684  12683  12691     1  0.0000000  0.0000000  3
  12686  12684  12683  12687     1  0.0000000  0.6508444  3
  12687  12683  12684  12690     1  0.0000000  1.0460000  1
  12687  12683  12684  12690     1  0.0000000  0.0000000  3
  12687  12683  12691  12694     1  0.0000000  0.6973333  3
  12687  12683  12680  12692     1  0.0000000  1.0460000  1
  12687  12683  12680  12692     1  0.0000000  0.0000000  3
  12688  12685  12684  12690     1  0.0000000  0.6508444  3
  12697  12693  12699  12700     1  0.0000000  0.6973333  3
  12697  12693  12679  12701     1  0.0000000  1.0460000  1
  12697  12693  12679  12701     1  0.0000000  0.0000000  3
  12698  12693  12699  12700     1  0.0000000  0.6973333  3
  12698  12693  12679  12701     1  0.0000000  1.0460000  1
  12698  12693  12679  12701     1  0.0000000  0.0000000  3
  12702  12703  12706  12710     1  0.0000000  0.6508444  3
  12702  12703  12715  12718     1  0.0000000  1.0460000  1
  12702  12703  12715  12718     1  0.0000000  0.6694400  3
  12702  12716  12722  12723     1  0.0000000  1.0460000  1
  12702  12716  12722  12723     1  0.0000000  0.6694400  3
  12702  12724  12708  12711     1  0.0000000  1.6038667  3
  12703  12702  12716  12720     1  0.0000000  0.6508444  3
  12703  12702  12716  12721     1  0.0000000  0.6508444  3
  12703  12706  12707  12709     1  0.0000000  0.6508444  3
  12703  12706  12714  12717     1  0.0000000  1.0460000  1
  12703  12706  12714  12717     1  0.0000000  0.6694400  3
  12704  12702  12703  12706     1  0.0000000  0.6508444  3
  12704  12702  12703  12715     1  0.0000000  1.0460000  1
  12704  12702  12703  12715     1  0.0000000  0.0000000  3
  12704  12702  12703  12705     1  0.0000000  0.6508444  3
  12704  12702  12716  12722     1  0.0000000  1.0460000  1
  12704  12702  12716  12722     1  0.0000000  0.0000000  3
  12704  12702  12716  12720     1  0.0000000  0.6508444  3
  12704  12702  12716  12721     1  0.0000000  0.6508444  3
  12704  12702  12724  12708     1  0.0000000  1.6038667  3
  12705  12703  12702  12716     1  0.0000000  0.6508444  3
  12705  12703  12702  12724     1  0.0000000  1.0460000  1
  12705  12703  12702  12724     1  0.0000000  0.0000000  3
  12705  12703  12706  12707     1  0.0000000  0.6508444  3
  12705  12703  12706  12714     1  0.0000000  1.0460000  1
  12705  12703  12706  12714     1  0.0000000  0.0000000  3
  12705  12703  12706  12710     1  0.0000000  0.6508444  3
  12705  12703  12715  12718     1  0.0000000  0.6973333  3
  12706  12703  12715  12718     1  0.0000000  1.0460000  1
  12706  12703  12715  12718     1  0.0000000  0.6694400  3
  12706  12707  12708  12711     1  0.0000000  0.6508444  3
  12706  12707  12713  12719     1  0.0000000  1.0460000  1
  12706  12707  12713  12719     1  0.0000000  0.6694400  3
  12707  12706  12714  12717     1  0.0000000  1.0460000  1
  12707  12706  12714  12717     1  0.0000000  0.6694400  3
  12708  12707  12706  12710     1  0.0000000  0.6508444  3
  12708  12707  12713  12719     1  0.0000000  1.0460000  1
  12708  12707  12713  12719     1  0.0000000  0.6694400  3
  12709  12707  12706  12714     1  0.0000000  1.0460000  1
  12709  12707  12706  12714     1  0.0000000  0.0000000  3
  12709  12707  12706  12710     1  0.0000000  0.6508444  3
  12709  12707  12708  12712     1  0.0000000  1.0460000  1
  12709  12707  12708  12712     1  0.0000000  0.0000000  3
  12709  12707  12708  12724     1  0.0000000  1.0460000  1
  12709  12707  12708  12724     1  0.0000000  0.0000000  3
  12709  12707  12708  12711     1  0.0000000  0.6508444  3
  12709  12707  12713  12719     1  0.0000000  0.6973333  3
  12710  12706  12703  12715     1  0.0000000  1.0460000  1
  12710  12706  12703  12715     1  0.0000000  0.0000000  3
  12710  12706  12707  12713     1  0.0000000  1.0460000  1
  12710  12706  12707  12713     1  0.0000000  0.0000000  3
  12710  12706  12714  12717     1  0.0000000  0.6973333  3
  12711  12708  12707  12713     1  0.0000000  0.6508444  3
  12720  12716  12702  12724     1  0.0000000  1.0460000  1
  12720  12716  12702  12724     1  0.0000000  0.0000000  3
  12720  12716  12722  12723     1  0.0000000  0.6973333  3
  12721  12716  12702  12724     1  0.0000000  1.0460000  1
  12721  12716  12702  12724     1  0.0000000  0.0000000  3
  12721  12716  12722  12723     1  0.0000000  0.6973333  3
  12725  12726  12729  12733     1  0.0000000  0.6508444  3
  12725  12726  12738  12741     1  0.0000000  1.0460000  1
  12725  12726  12738  12741     1  0.0000000  0.6694400  3
  12725  12739  12745  12746     1  0.0000000  1.0460000  1
  12725  12739  12745  12746     1  0.0000000  0.6694400  3
  12725  12747  12731  12734     1  0.0000000  1.6038667  3
  12726  12729  12730  12732     1  0.0000000  0.6508444  3
  12726  12729  12737  12740     1  0.0000000  1.0460000  1
  12726  12729  12737  12740     1  0.0000000  0.6694400  3
  12726  12725  12739  12743     1  0.0000000  0.6508444  3
  12726  12725  12739  12744     1  0.0000000  0.6508444  3
  12727  12725  12726  12729     1  0.0000000  0.6508444  3
  12727  12725  12726  12738     1  0.0000000  1.0460000  1
  12727  12725  12726  12738     1  0.0000000  0.0000000  3
  12727  12725  12726  12728     1  0.0000000  0.6508444  3
  12727  12725  12739  12745     1  0.0000000  1.0460000  1
  12727  12725  12739  12745     1  0.0000000  0.0000000  3
  12727  12725  12739  12743     1  0.0000000  0.6508444  3
  12727  12725  12739  12744     1  0.0000000  0.6508444  3
  12727  12725  12747  12731     1  0.0000000  1.6038667  3
  12728  12726  12729  12730     1  0.0000000  0.6508444  3
  12728  12726  12729  12737     1  0.0000000  1.0460000  1
  12728  12726  12729  12737     1  0.0000000  0.0000000  3
  12728  12726  12729  12733     1  0.0000000  0.6508444  3
  12728  12726  12738  12741     1  0.0000000  0.6973333  3
  12728  12726  12725  12739     1  0.0000000  0.6508444  3
  12728  12726  12725  12747     1  0.0000000  1.0460000  1
  12728  12726  12725  12747     1  0.0000000  0.0000000  3
  12729  12730  12731  12734     1  0.0000000  0.6508444  3
  12729  12730  12736  12742     1  0.0000000  1.0460000  1
  12729  12730  12736  12742     1  0.0000000  0.6694400  3
  12729  12726  12738  12741     1  0.0000000  1.0460000  1
  12729  12726  12738  12741     1  0.0000000  0.6694400  3
  12730  12729  12737  12740     1  0.0000000  1.0460000  1
  12730  12729  12737  12740     1  0.0000000  0.6694400  3
  12731  12730  12736  12742     1  0.0000000  1.0460000  1
  12731  12730  12736  12742     1  0.0000000  0.6694400  3
  12731  12730  12729  12733     1  0.0000000  0.6508444  3
  12732  12730  12731  12735     1  0.0000000  1.0460000  1
  12732  12730  12731  12735     1  0.0000000  0.0000000  3
  12732  12730  12731  12747     1  0.0000000  1.0460000  1
  12732  12730  12731  12747     1  0.0000000  0.0000000  3
  12732  12730  12731  12734     1  0.0000000  0.6508444  3
  12732  12730  12736  12742     1  0.0000000  0.6973333  3
  12732  12730  12729  12737     1  0.0000000  1.0460000  1
  12732  12730  12729  12737     1  0.0000000  0.0000000  3
  12732  12730  12729  12733     1  0.0000000  0.6508444  3
  12733  12729  12730  12736     1  0.0000000  1.0460000  1
  12733  12729  12730  12736     1  0.0000000  0.0000000  3
  12733  12729  12737  12740     1  0.0000000  0.6973333  3
  12733  12729  12726  12738     1  0.0000000  1.0460000  1
  12733  12729  12726  12738     1  0.0000000  0.0000000  3
  12734  12731  12730  12736     1  0.0000000  0.6508444  3
  12743  12739  12745  12746     1  0.0000000  0.6973333  3
  12743  12739  12725  12747     1  0.0000000  1.0460000  1
  12743  12739  12725  12747     1  0.0000000  0.0000000  3
  12744  12739  12745  12746     1  0.0000000  0.6973333  3
  12744  12739  12725  12747     1  0.0000000  1.0460000  1
  12744  12739  12725  12747     1  0.0000000  0.0000000  3
  12748  12749  12752  12756     1  0.0000000  0.6508444  3
  12748  12749  12761  12764     1  0.0000000  1.0460000  1
  12748  12749  12761  12764     1  0.0000000  0.6694400  3
  12748  12762  12768  12769     1  0.0000000  1.0460000  1
  12748  12762  12768  12769     1  0.0000000  0.6694400  3
  12748  12770  12754  12757     1  0.0000000  1.6038667  3
  12749  12748  12762  12766     1  0.0000000  0.6508444  3
  12749  12748  12762  12767     1  0.0000000  0.6508444  3
  12749  12752  12753  12755     1  0.0000000  0.6508444  3
  12749  12752  12760  12763     1  0.0000000  1.0460000  1
  12749  12752  12760  12763     1  0.0000000  0.6694400  3
  12750  12748  12749  12752     1  0.0000000  0.6508444  3
  12750  12748  12749  12761     1  0.0000000  1.0460000  1
  12750  12748  12749  12761     1  0.0000000  0.0000000  3
  12750  12748  12749  12751     1  0.0000000  0.6508444  3
  12750  12748  12762  12768     1  0.0000000  1.0460000  1
  12750  12748  12762  12768     1  0.0000000  0.0000000  3
  12750  12748  12762  12766     1  0.0000000  0.6508444  3
  12750  12748  12762  12767     1  0.0000000  0.6508444  3
  12750  12748  12770  12754     1  0.0000000  1.6038667  3
  12751  12749  12748  12762     1  0.0000000  0.6508444  3
  12751  12749  12748  12770     1  0.0000000  1.0460000  1
  12751  12749  12748  12770     1  0.0000000  0.0000000  3
  12751  12749  12752  12753     1  0.0000000  0.6508444  3
  12751  12749  12752  12760     1  0.0000000  1.0460000  1
  12751  12749  12752  12760     1  0.0000000  0.0000000  3
  12751  12749  12752  12756     1  0.0000000  0.6508444  3
  12751  12749  12761  12764     1  0.0000000  0.6973333  3
  12752  12749  12761  12764     1  0.0000000  1.0460000  1
  12752  12749  12761  12764     1  0.0000000  0.6694400  3
  12752  12753  12754  12757     1  0.0000000  0.6508444  3
  12752  12753  12759  12765     1  0.0000000  1.0460000  1
  12752  12753  12759  12765     1  0.0000000  0.6694400  3
  12753  12752  12760  12763     1  0.0000000  1.0460000  1
  12753  12752  12760  12763     1  0.0000000  0.6694400  3
  12754  12753  12752  12756     1  0.0000000  0.6508444  3
  12754  12753  12759  12765     1  0.0000000  1.0460000  1
  12754  12753  12759  12765     1  0.0000000  0.6694400  3
  12755  12753  12752  12760     1  0.0000000  1.0460000  1
  12755  12753  12752  12760     1  0.0000000  0.0000000  3
  12755  12753  12752  12756     1  0.0000000  0.6508444  3
  12755  12753  12754  12758     1  0.0000000  1.0460000  1
  12755  12753  12754  12758     1  0.0000000  0.0000000  3
  12755  12753  12754  12770     1  0.0000000  1.0460000  1
  12755  12753  12754  12770     1  0.0000000  0.0000000  3
  12755  12753  12754  12757     1  0.0000000  0.6508444  3
  12755  12753  12759  12765     1  0.0000000  0.6973333  3
  12756  12752  12749  12761     1  0.0000000  1.0460000  1
  12756  12752  12749  12761     1  0.0000000  0.0000000  3
  12756  12752  12753  12759     1  0.0000000  1.0460000  1
  12756  12752  12753  12759     1  0.0000000  0.0000000  3
  12756  12752  12760  12763     1  0.0000000  0.6973333  3
  12757  12754  12753  12759     1  0.0000000  0.6508444  3
  12766  12762  12748  12770     1  0.0000000  1.0460000  1
  12766  12762  12748  12770     1  0.0000000  0.0000000  3
  12766  12762  12768  12769     1  0.0000000  0.6973333  3
  12767  12762  12748  12770     1  0.0000000  1.0460000  1
  12767  12762  12748  12770     1  0.0000000  0.0000000  3
  12767  12762  12768  12769     1  0.0000000  0.6973333  3
  12771  12772  12775  12779     1  0.0000000  0.6508444  3
  12771  12772  12784  12787     1  0.0000000  1.0460000  1
  12771  12772  12784  12787     1  0.0000000  0.6694400  3
  12771  12785  12791  12792     1  0.0000000  1.0460000  1
  12771  12785  12791  12792     1  0.0000000  0.6694400  3
  12771  12793  12777  12780     1  0.0000000  1.6038667  3
  12772  12775  12776  12778     1  0.0000000  0.6508444  3
  12772  12775  12783  12786     1  0.0000000  1.0460000  1
  12772  12775  12783  12786     1  0.0000000  0.6694400  3
  12772  12771  12785  12789     1  0.0000000  0.6508444  3
  12772  12771  12785  12790     1  0.0000000  0.6508444  3
  12773  12771  12772  12775     1  0.0000000  0.6508444  3
  12773  12771  12772  12784     1  0.0000000  1.0460000  1
  12773  12771  12772  12784     1  0.0000000  0.0000000  3
  12773  12771  12772  12774     1  0.0000000  0.6508444  3
  12773  12771  12785  12791     1  0.0000000  1.0460000  1
  12773  12771  12785  12791     1  0.0000000  0.0000000  3
  12773  12771  12785  12789     1  0.0000000  0.6508444  3
  12773  12771  12785  12790     1  0.0000000  0.6508444  3
  12773  12771  12793  12777     1  0.0000000  1.6038667  3
  12774  12772  12775  12776     1  0.0000000  0.6508444  3
  12774  12772  12775  12783     1  0.0000000  1.0460000  1
  12774  12772  12775  12783     1  0.0000000  0.0000000  3
  12774  12772  12775  12779     1  0.0000000  0.6508444  3
  12774  12772  12784  12787     1  0.0000000  0.6973333  3
  12774  12772  12771  12785     1  0.0000000  0.6508444  3
  12774  12772  12771  12793     1  0.0000000  1.0460000  1
  12774  12772  12771  12793     1  0.0000000  0.0000000  3
  12775  12776  12777  12780     1  0.0000000  0.6508444  3
  12775  12776  12782  12788     1  0.0000000  1.0460000  1
  12775  12776  12782  12788     1  0.0000000  0.6694400  3
  12775  12772  12784  12787     1  0.0000000  1.0460000  1
  12775  12772  12784  12787     1  0.0000000  0.6694400  3
  12776  12775  12783  12786     1  0.0000000  1.0460000  1
  12776  12775  12783  12786     1  0.0000000  0.6694400  3
  12777  12776  12782  12788     1  0.0000000  1.0460000  1
  12777  12776  12782  12788     1  0.0000000  0.6694400  3
  12777  12776  12775  12779     1  0.0000000  0.6508444  3
  12778  12776  12777  12781     1  0.0000000  1.0460000  1
  12778  12776  12777  12781     1  0.0000000  0.0000000  3
  12778  12776  12777  12793     1  0.0000000  1.0460000  1
  12778  12776  12777  12793     1  0.0000000  0.0000000  3
  12778  12776  12777  12780     1  0.0000000  0.6508444  3
  12778  12776  12782  12788     1  0.0000000  0.6973333  3
  12778  12776  12775  12783     1  0.0000000  1.0460000  1
  12778  12776  12775  12783     1  0.0000000  0.0000000  3
  12778  12776  12775  12779     1  0.0000000  0.6508444  3
  12779  12775  12776  12782     1  0.0000000  1.0460000  1
  12779  12775  12776  12782     1  0.0000000  0.0000000  3
  12779  12775  12783  12786     1  0.0000000  0.6973333  3
  12779  12775  12772  12784     1  0.0000000  1.0460000  1
  12779  12775  12772  12784     1  0.0000000  0.0000000  3
  12780  12777  12776  12782     1  0.0000000  0.6508444  3
  12789  12785  12791  12792     1  0.0000000  0.6973333  3
  12789  12785  12771  12793     1  0.0000000  1.0460000  1
  12789  12785  12771  12793     1  0.0000000  0.0000000  3
  12790  12785  12791  12792     1  0.0000000  0.6973333  3
  12790  12785  12771  12793     1  0.0000000  1.0460000  1
  12790  12785  12771  12793     1  0.0000000  0.0000000  3
  12794  12795  12798  12802     1  0.0000000  0.6508444  3
  12794  12795  12807  12810     1  0.0000000  1.0460000  1
  12794  12795  12807  12810     1  0.0000000  0.6694400  3
  12794  12808  12814  12815     1  0.0000000  1.0460000  1
  12794  12808  12814  12815     1  0.0000000  0.6694400  3
  12794  12816  12800  12803     1  0.0000000  1.6038667  3
  12795  12794  12808  12812     1  0.0000000  0.6508444  3
  12795  12794  12808  12813     1  0.0000000  0.6508444  3
  12795  12798  12799  12801     1  0.0000000  0.6508444  3
  12795  12798  12806  12809     1  0.0000000  1.0460000  1
  12795  12798  12806  12809     1  0.0000000  0.6694400  3
  12796  12794  12795  12798     1  0.0000000  0.6508444  3
  12796  12794  12795  12807     1  0.0000000  1.0460000  1
  12796  12794  12795  12807     1  0.0000000  0.0000000  3
  12796  12794  12795  12797     1  0.0000000  0.6508444  3
  12796  12794  12808  12814     1  0.0000000  1.0460000  1
  12796  12794  12808  12814     1  0.0000000  0.0000000  3
  12796  12794  12808  12812     1  0.0000000  0.6508444  3
  12796  12794  12808  12813     1  0.0000000  0.6508444  3
  12796  12794  12816  12800     1  0.0000000  1.6038667  3
  12797  12795  12794  12808     1  0.0000000  0.6508444  3
  12797  12795  12794  12816     1  0.0000000  1.0460000  1
  12797  12795  12794  12816     1  0.0000000  0.0000000  3
  12797  12795  12798  12799     1  0.0000000  0.6508444  3
  12797  12795  12798  12806     1  0.0000000  1.0460000  1
  12797  12795  12798  12806     1  0.0000000  0.0000000  3
  12797  12795  12798  12802     1  0.0000000  0.6508444  3
  12797  12795  12807  12810     1  0.0000000  0.6973333  3
  12798  12795  12807  12810     1  0.0000000  1.0460000  1
  12798  12795  12807  12810     1  0.0000000  0.6694400  3
  12798  12799  12800  12803     1  0.0000000  0.6508444  3
  12798  12799  12805  12811     1  0.0000000  1.0460000  1
  12798  12799  12805  12811     1  0.0000000  0.6694400  3
  12799  12798  12806  12809     1  0.0000000  1.0460000  1
  12799  12798  12806  12809     1  0.0000000  0.6694400  3
  12800  12799  12798  12802     1  0.0000000  0.6508444  3
  12800  12799  12805  12811     1  0.0000000  1.0460000  1
  12800  12799  12805  12811     1  0.0000000  0.6694400  3
  12801  12799  12798  12806     1  0.0000000  1.0460000  1
  12801  12799  12798  12806     1  0.0000000  0.0000000  3
  12801  12799  12798  12802     1  0.0000000  0.6508444  3
  12801  12799  12800  12804     1  0.0000000  1.0460000  1
  12801  12799  12800  12804     1  0.0000000  0.0000000  3
  12801  12799  12800  12816     1  0.0000000  1.0460000  1
  12801  12799  12800  12816     1  0.0000000  0.0000000  3
  12801  12799  12800  12803     1  0.0000000  0.6508444  3
  12801  12799  12805  12811     1  0.0000000  0.6973333  3
  12802  12798  12795  12807     1  0.0000000  1.0460000  1
  12802  12798  12795  12807     1  0.0000000  0.0000000  3
  12802  12798  12799  12805     1  0.0000000  1.0460000  1
  12802  12798  12799  12805     1  0.0000000  0.0000000  3
  12802  12798  12806  12809     1  0.0000000  0.6973333  3
  12803  12800  12799  12805     1  0.0000000  0.6508444  3
  12812  12808  12794  12816     1  0.0000000  1.0460000  1
  12812  12808  12794  12816     1  0.0000000  0.0000000  3
  12812  12808  12814  12815     1  0.0000000  0.6973333  3
  12813  12808  12794  12816     1  0.0000000  1.0460000  1
  12813  12808  12794  12816     1  0.0000000  0.0000000  3
  12813  12808  12814  12815     1  0.0000000  0.6973333  3
  12817  12818  12821  12825     1  0.0000000  0.6508444  3
  12817  12818  12830  12833     1  0.0000000  1.0460000  1
  12817  12818  12830  12833     1  0.0000000  0.6694400  3
  12817  12831  12837  12838     1  0.0000000  1.0460000  1
  12817  12831  12837  12838     1  0.0000000  0.6694400  3
  12817  12839  12823  12826     1  0.0000000  1.6038667  3
  12818  12821  12822  12824     1  0.0000000  0.6508444  3
  12818  12821  12829  12832     1  0.0000000  1.0460000  1
  12818  12821  12829  12832     1  0.0000000  0.6694400  3
  12818  12817  12831  12835     1  0.0000000  0.6508444  3
  12818  12817  12831  12836     1  0.0000000  0.6508444  3
  12819  12817  12818  12821     1  0.0000000  0.6508444  3
  12819  12817  12818  12830     1  0.0000000  1.0460000  1
  12819  12817  12818  12830     1  0.0000000  0.0000000  3
  12819  12817  12818  12820     1  0.0000000  0.6508444  3
  12819  12817  12831  12837     1  0.0000000  1.0460000  1
  12819  12817  12831  12837     1  0.0000000  0.0000000  3
  12819  12817  12831  12835     1  0.0000000  0.6508444  3
  12819  12817  12831  12836     1  0.0000000  0.6508444  3
  12819  12817  12839  12823     1  0.0000000  1.6038667  3
  12820  12818  12821  12822     1  0.0000000  0.6508444  3
  12820  12818  12821  12829     1  0.0000000  1.0460000  1
  12820  12818  12821  12829     1  0.0000000  0.0000000  3
  12820  12818  12821  12825     1  0.0000000  0.6508444  3
  12820  12818  12830  12833     1  0.0000000  0.6973333  3
  12820  12818  12817  12831     1  0.0000000  0.6508444  3
  12820  12818  12817  12839     1  0.0000000  1.0460000  1
  12820  12818  12817  12839     1  0.0000000  0.0000000  3
  12821  12822  12823  12826     1  0.0000000  0.6508444  3
  12821  12822  12828  12834     1  0.0000000  1.0460000  1
  12821  12822  12828  12834     1  0.0000000  0.6694400  3
  12821  12818  12830  12833     1  0.0000000  1.0460000  1
  12821  12818  12830  12833     1  0.0000000  0.6694400  3
  12822  12821  12829  12832     1  0.0000000  1.0460000  1
  12822  12821  12829  12832     1  0.0000000  0.6694400  3
  12823  12822  12828  12834     1  0.0000000  1.0460000  1
  12823  12822  12828  12834     1  0.0000000  0.6694400  3
  12823  12822  12821  12825     1  0.0000000  0.6508444  3
  12824  12822  12823  12827     1  0.0000000  1.0460000  1
  12824  12822  12823  12827     1  0.0000000  0.0000000  3
  12824  12822  12823  12839     1  0.0000000  1.0460000  1
  12824  12822  12823  12839     1  0.0000000  0.0000000  3
  12824  12822  12823  12826     1  0.0000000  0.6508444  3
  12824  12822  12828  12834     1  0.0000000  0.6973333  3
  12824  12822  12821  12829     1  0.0000000  1.0460000  1
  12824  12822  12821  12829     1  0.0000000  0.0000000  3
  12824  12822  12821  12825     1  0.0000000  0.6508444  3
  12825  12821  12822  12828     1  0.0000000  1.0460000  1
  12825  12821  12822  12828     1  0.0000000  0.0000000  3
  12825  12821  12829  12832     1  0.0000000  0.6973333  3
  12825  12821  12818  12830     1  0.0000000  1.0460000  1
  12825  12821  12818  12830     1  0.0000000  0.0000000  3
  12826  12823  12822  12828     1  0.0000000  0.6508444  3
  12835  12831  12837  12838     1  0.0000000  0.6973333  3
  12835  12831  12817  12839     1  0.0000000  1.0460000  1
  12835  12831  12817  12839     1  0.0000000  0.0000000  3
  12836  12831  12837  12838     1  0.0000000  0.6973333  3
  12836  12831  12817  12839     1  0.0000000  1.0460000  1
  12836  12831  12817  12839     1  0.0000000  0.0000000  3
  12840  12841  12844  12848     1  0.0000000  0.6508444  3
  12840  12841  12853  12856     1  0.0000000  1.0460000  1
  12840  12841  12853  12856     1  0.0000000  0.6694400  3
  12840  12854  12860  12861     1  0.0000000  1.0460000  1
  12840  12854  12860  12861     1  0.0000000  0.6694400  3
  12840  12862  12846  12849     1  0.0000000  1.6038667  3
  12841  12840  12854  12858     1  0.0000000  0.6508444  3
  12841  12840  12854  12859     1  0.0000000  0.6508444  3
  12841  12844  12845  12847     1  0.0000000  0.6508444  3
  12841  12844  12852  12855     1  0.0000000  1.0460000  1
  12841  12844  12852  12855     1  0.0000000  0.6694400  3
  12842  12840  12841  12844     1  0.0000000  0.6508444  3
  12842  12840  12841  12853     1  0.0000000  1.0460000  1
  12842  12840  12841  12853     1  0.0000000  0.0000000  3
  12842  12840  12841  12843     1  0.0000000  0.6508444  3
  12842  12840  12854  12860     1  0.0000000  1.0460000  1
  12842  12840  12854  12860     1  0.0000000  0.0000000  3
  12842  12840  12854  12858     1  0.0000000  0.6508444  3
  12842  12840  12854  12859     1  0.0000000  0.6508444  3
  12842  12840  12862  12846     1  0.0000000  1.6038667  3
  12843  12841  12840  12854     1  0.0000000  0.6508444  3
  12843  12841  12840  12862     1  0.0000000  1.0460000  1
  12843  12841  12840  12862     1  0.0000000  0.0000000  3
  12843  12841  12844  12845     1  0.0000000  0.6508444  3
  12843  12841  12844  12852     1  0.0000000  1.0460000  1
  12843  12841  12844  12852     1  0.0000000  0.0000000  3
  12843  12841  12844  12848     1  0.0000000  0.6508444  3
  12843  12841  12853  12856     1  0.0000000  0.6973333  3
  12844  12841  12853  12856     1  0.0000000  1.0460000  1
  12844  12841  12853  12856     1  0.0000000  0.6694400  3
  12844  12845  12846  12849     1  0.0000000  0.6508444  3
  12844  12845  12851  12857     1  0.0000000  1.0460000  1
  12844  12845  12851  12857     1  0.0000000  0.6694400  3
  12845  12844  12852  12855     1  0.0000000  1.0460000  1
  12845  12844  12852  12855     1  0.0000000  0.6694400  3
  12846  12845  12844  12848     1  0.0000000  0.6508444  3
  12846  12845  12851  12857     1  0.0000000  1.0460000  1
  12846  12845  12851  12857     1  0.0000000  0.6694400  3
  12847  12845  12844  12852     1  0.0000000  1.0460000  1
  12847  12845  12844  12852     1  0.0000000  0.0000000  3
  12847  12845  12844  12848     1  0.0000000  0.6508444  3
  12847  12845  12846  12850     1  0.0000000  1.0460000  1
  12847  12845  12846  12850     1  0.0000000  0.0000000  3
  12847  12845  12846  12862     1  0.0000000  1.0460000  1
  12847  12845  12846  12862     1  0.0000000  0.0000000  3
  12847  12845  12846  12849     1  0.0000000  0.6508444  3
  12847  12845  12851  12857     1  0.0000000  0.6973333  3
  12848  12844  12841  12853     1  0.0000000  1.0460000  1
  12848  12844  12841  12853     1  0.0000000  0.0000000  3
  12848  12844  12845  12851     1  0.0000000  1.0460000  1
  12848  12844  12845  12851     1  0.0000000  0.0000000  3
  12848  12844  12852  12855     1  0.0000000  0.6973333  3
  12849  12846  12845  12851     1  0.0000000  0.6508444  3
  12858  12854  12840  12862     1  0.0000000  1.0460000  1
  12858  12854  12840  12862     1  0.0000000  0.0000000  3
  12858  12854  12860  12861     1  0.0000000  0.6973333  3
  12859  12854  12840  12862     1  0.0000000  1.0460000  1
  12859  12854  12840  12862     1  0.0000000  0.0000000  3
  12859  12854  12860  12861     1  0.0000000  0.6973333  3
  12863  12864  12867  12871     1  0.0000000  0.6508444  3
  12863  12864  12876  12879     1  0.0000000  1.0460000  1
  12863  12864  12876  12879     1  0.0000000  0.6694400  3
  12863  12877  12883  12884     1  0.0000000  1.0460000  1
  12863  12877  12883  12884     1  0.0000000  0.6694400  3
  12863  12885  12869  12872     1  0.0000000  1.6038667  3
  12864  12867  12868  12870     1  0.0000000  0.6508444  3
  12864  12867  12875  12878     1  0.0000000  1.0460000  1
  12864  12867  12875  12878     1  0.0000000  0.6694400  3
  12864  12863  12877  12881     1  0.0000000  0.6508444  3
  12864  12863  12877  12882     1  0.0000000  0.6508444  3
  12865  12863  12864  12867     1  0.0000000  0.6508444  3
  12865  12863  12864  12876     1  0.0000000  1.0460000  1
  12865  12863  12864  12876     1  0.0000000  0.0000000  3
  12865  12863  12864  12866     1  0.0000000  0.6508444  3
  12865  12863  12877  12883     1  0.0000000  1.0460000  1
  12865  12863  12877  12883     1  0.0000000  0.0000000  3
  12865  12863  12877  12881     1  0.0000000  0.6508444  3
  12865  12863  12877  12882     1  0.0000000  0.6508444  3
  12865  12863  12885  12869     1  0.0000000  1.6038667  3
  12866  12864  12867  12868     1  0.0000000  0.6508444  3
  12866  12864  12867  12875     1  0.0000000  1.0460000  1
  12866  12864  12867  12875     1  0.0000000  0.0000000  3
  12866  12864  12867  12871     1  0.0000000  0.6508444  3
  12866  12864  12876  12879     1  0.0000000  0.6973333  3
  12866  12864  12863  12877     1  0.0000000  0.6508444  3
  12866  12864  12863  12885     1  0.0000000  1.0460000  1
  12866  12864  12863  12885     1  0.0000000  0.0000000  3
  12867  12868  12869  12872     1  0.0000000  0.6508444  3
  12867  12868  12874  12880     1  0.0000000  1.0460000  1
  12867  12868  12874  12880     1  0.0000000  0.6694400  3
  12867  12864  12876  12879     1  0.0000000  1.0460000  1
  12867  12864  12876  12879     1  0.0000000  0.6694400  3
  12868  12867  12875  12878     1  0.0000000  1.0460000  1
  12868  12867  12875  12878     1  0.0000000  0.6694400  3
  12869  12868  12874  12880     1  0.0000000  1.0460000  1
  12869  12868  12874  12880     1  0.0000000  0.6694400  3
  12869  12868  12867  12871     1  0.0000000  0.6508444  3
  12870  12868  12869  12873     1  0.0000000  1.0460000  1
  12870  12868  12869  12873     1  0.0000000  0.0000000  3
  12870  12868  12869  12885     1  0.0000000  1.0460000  1
  12870  12868  12869  12885     1  0.0000000  0.0000000  3
  12870  12868  12869  12872     1  0.0000000  0.6508444  3
  12870  12868  12874  12880     1  0.0000000  0.6973333  3
  12870  12868  12867  12875     1  0.0000000  1.0460000  1
  12870  12868  12867  12875     1  0.0000000  0.0000000  3
  12870  12868  12867  12871     1  0.0000000  0.6508444  3
  12871  12867  12868  12874     1  0.0000000  1.0460000  1
  12871  12867  12868  12874     1  0.0000000  0.0000000  3
  12871  12867  12875  12878     1  0.0000000  0.6973333  3
  12871  12867  12864  12876     1  0.0000000  1.0460000  1
  12871  12867  12864  12876     1  0.0000000  0.0000000  3
  12872  12869  12868  12874     1  0.0000000  0.6508444  3
  12881  12877  12883  12884     1  0.0000000  0.6973333  3
  12881  12877  12863  12885     1  0.0000000  1.0460000  1
  12881  12877  12863  12885     1  0.0000000  0.0000000  3
  12882  12877  12883  12884     1  0.0000000  0.6973333  3
  12882  12877  12863  12885     1  0.0000000  1.0460000  1
  12882  12877  12863  12885     1  0.0000000  0.0000000  3
  12886  12887  12890  12894     1  0.0000000  0.6508444  3
  12886  12887  12899  12902     1  0.0000000  1.0460000  1
  12886  12887  12899  12902     1  0.0000000  0.6694400  3
  12886  12900  12906  12907     1  0.0000000  1.0460000  1
  12886  12900  12906  12907     1  0.0000000  0.6694400  3
  12886  12908  12892  12895     1  0.0000000  1.6038667  3
  12887  12886  12900  12904     1  0.0000000  0.6508444  3
  12887  12886  12900  12905     1  0.0000000  0.6508444  3
  12887  12890  12891  12893     1  0.0000000  0.6508444  3
  12887  12890  12898  12901     1  0.0000000  1.0460000  1
  12887  12890  12898  12901     1  0.0000000  0.6694400  3
  12888  12886  12887  12890     1  0.0000000  0.6508444  3
  12888  12886  12887  12899     1  0.0000000  1.0460000  1
  12888  12886  12887  12899     1  0.0000000  0.0000000  3
  12888  12886  12887  12889     1  0.0000000  0.6508444  3
  12888  12886  12900  12906     1  0.0000000  1.0460000  1
  12888  12886  12900  12906     1  0.0000000  0.0000000  3
  12888  12886  12900  12904     1  0.0000000  0.6508444  3
  12888  12886  12900  12905     1  0.0000000  0.6508444  3
  12888  12886  12908  12892     1  0.0000000  1.6038667  3
  12889  12887  12886  12900     1  0.0000000  0.6508444  3
  12889  12887  12886  12908     1  0.0000000  1.0460000  1
  12889  12887  12886  12908     1  0.0000000  0.0000000  3
  12889  12887  12890  12891     1  0.0000000  0.6508444  3
  12889  12887  12890  12898     1  0.0000000  1.0460000  1
  12889  12887  12890  12898     1  0.0000000  0.0000000  3
  12889  12887  12890  12894     1  0.0000000  0.6508444  3
  12889  12887  12899  12902     1  0.0000000  0.6973333  3
  12890  12887  12899  12902     1  0.0000000  1.0460000  1
  12890  12887  12899  12902     1  0.0000000  0.6694400  3
  12890  12891  12892  12895     1  0.0000000  0.6508444  3
  12890  12891  12897  12903     1  0.0000000  1.0460000  1
  12890  12891  12897  12903     1  0.0000000  0.6694400  3
  12891  12890  12898  12901     1  0.0000000  1.0460000  1
  12891  12890  12898  12901     1  0.0000000  0.6694400  3
  12892  12891  12890  12894     1  0.0000000  0.6508444  3
  12892  12891  12897  12903     1  0.0000000  1.0460000  1
  12892  12891  12897  12903     1  0.0000000  0.6694400  3
  12893  12891  12890  12898     1  0.0000000  1.0460000  1
  12893  12891  12890  12898     1  0.0000000  0.0000000  3
  12893  12891  12890  12894     1  0.0000000  0.6508444  3
  12893  12891  12892  12896     1  0.0000000  1.0460000  1
  12893  12891  12892  12896     1  0.0000000  0.0000000  3
  12893  12891  12892  12908     1  0.0000000  1.0460000  1
  12893  12891  12892  12908     1  0.0000000  0.0000000  3
  12893  12891  12892  12895     1  0.0000000  0.6508444  3
  12893  12891  12897  12903     1  0.0000000  0.6973333  3
  12894  12890  12887  12899     1  0.0000000  1.0460000  1
  12894  12890  12887  12899     1  0.0000000  0.0000000  3
  12894  12890  12891  12897     1  0.0000000  1.0460000  1
  12894  12890  12891  12897     1  0.0000000  0.0000000  3
  12894  12890  12898  12901     1  0.0000000  0.6973333  3
  12895  12892  12891  12897     1  0.0000000  0.6508444  3
  12904  12900  12886  12908     1  0.0000000  1.0460000  1
  12904  12900  12886  12908     1  0.0000000  0.0000000  3
  12904  12900  12906  12907     1  0.0000000  0.6973333  3
  12905  12900  12886  12908     1  0.0000000  1.0460000  1
  12905  12900  12886  12908     1  0.0000000  0.0000000  3
  12905  12900  12906  12907     1  0.0000000  0.6973333  3
  12909  12910  12913  12917     1  0.0000000  0.6508444  3
  12909  12910  12922  12925     1  0.0000000  1.0460000  1
  12909  12910  12922  12925     1  0.0000000  0.6694400  3
  12909  12923  12929  12930     1  0.0000000  1.0460000  1
  12909  12923  12929  12930     1  0.0000000  0.6694400  3
  12909  12931  12915  12918     1  0.0000000  1.6038667  3
  12910  12913  12914  12916     1  0.0000000  0.6508444  3
  12910  12913  12921  12924     1  0.0000000  1.0460000  1
  12910  12913  12921  12924     1  0.0000000  0.6694400  3
  12910  12909  12923  12927     1  0.0000000  0.6508444  3
  12910  12909  12923  12928     1  0.0000000  0.6508444  3
  12911  12909  12910  12913     1  0.0000000  0.6508444  3
  12911  12909  12910  12922     1  0.0000000  1.0460000  1
  12911  12909  12910  12922     1  0.0000000  0.0000000  3
  12911  12909  12910  12912     1  0.0000000  0.6508444  3
  12911  12909  12923  12929     1  0.0000000  1.0460000  1
  12911  12909  12923  12929     1  0.0000000  0.0000000  3
  12911  12909  12923  12927     1  0.0000000  0.6508444  3
  12911  12909  12923  12928     1  0.0000000  0.6508444  3
  12911  12909  12931  12915     1  0.0000000  1.6038667  3
  12912  12910  12913  12914     1  0.0000000  0.6508444  3
  12912  12910  12913  12921     1  0.0000000  1.0460000  1
  12912  12910  12913  12921     1  0.0000000  0.0000000  3
  12912  12910  12913  12917     1  0.0000000  0.6508444  3
  12912  12910  12922  12925     1  0.0000000  0.6973333  3
  12912  12910  12909  12923     1  0.0000000  0.6508444  3
  12912  12910  12909  12931     1  0.0000000  1.0460000  1
  12912  12910  12909  12931     1  0.0000000  0.0000000  3
  12913  12914  12915  12918     1  0.0000000  0.6508444  3
  12913  12914  12920  12926     1  0.0000000  1.0460000  1
  12913  12914  12920  12926     1  0.0000000  0.6694400  3
  12913  12910  12922  12925     1  0.0000000  1.0460000  1
  12913  12910  12922  12925     1  0.0000000  0.6694400  3
  12914  12913  12921  12924     1  0.0000000  1.0460000  1
  12914  12913  12921  12924     1  0.0000000  0.6694400  3
  12915  12914  12920  12926     1  0.0000000  1.0460000  1
  12915  12914  12920  12926     1  0.0000000  0.6694400  3
  12915  12914  12913  12917     1  0.0000000  0.6508444  3
  12916  12914  12915  12919     1  0.0000000  1.0460000  1
  12916  12914  12915  12919     1  0.0000000  0.0000000  3
  12916  12914  12915  12931     1  0.0000000  1.0460000  1
  12916  12914  12915  12931     1  0.0000000  0.0000000  3
  12916  12914  12915  12918     1  0.0000000  0.6508444  3
  12916  12914  12920  12926     1  0.0000000  0.6973333  3
  12916  12914  12913  12921     1  0.0000000  1.0460000  1
  12916  12914  12913  12921     1  0.0000000  0.0000000  3
  12916  12914  12913  12917     1  0.0000000  0.6508444  3
  12917  12913  12914  12920     1  0.0000000  1.0460000  1
  12917  12913  12914  12920     1  0.0000000  0.0000000  3
  12917  12913  12921  12924     1  0.0000000  0.6973333  3
  12917  12913  12910  12922     1  0.0000000  1.0460000  1
  12917  12913  12910  12922     1  0.0000000  0.0000000  3
  12918  12915  12914  12920     1  0.0000000  0.6508444  3
  12927  12923  12929  12930     1  0.0000000  0.6973333  3
  12927  12923  12909  12931     1  0.0000000  1.0460000  1
  12927  12923  12909  12931     1  0.0000000  0.0000000  3
  12928  12923  12929  12930     1  0.0000000  0.6973333  3
  12928  12923  12909  12931     1  0.0000000  1.0460000  1
  12928  12923  12909  12931     1  0.0000000  0.0000000  3
  12932  12933  12936  12940     1  0.0000000  0.6508444  3
  12932  12933  12945  12948     1  0.0000000  1.0460000  1
  12932  12933  12945  12948     1  0.0000000  0.6694400  3
  12932  12946  12952  12953     1  0.0000000  1.0460000  1
  12932  12946  12952  12953     1  0.0000000  0.6694400  3
  12932  12954  12938  12941     1  0.0000000  1.6038667  3
  12933  12932  12946  12950     1  0.0000000  0.6508444  3
  12933  12932  12946  12951     1  0.0000000  0.6508444  3
  12933  12936  12937  12939     1  0.0000000  0.6508444  3
  12933  12936  12944  12947     1  0.0000000  1.0460000  1
  12933  12936  12944  12947     1  0.0000000  0.6694400  3
  12934  12932  12933  12936     1  0.0000000  0.6508444  3
  12934  12932  12933  12945     1  0.0000000  1.0460000  1
  12934  12932  12933  12945     1  0.0000000  0.0000000  3
  12934  12932  12933  12935     1  0.0000000  0.6508444  3
  12934  12932  12946  12952     1  0.0000000  1.0460000  1
  12934  12932  12946  12952     1  0.0000000  0.0000000  3
  12934  12932  12946  12950     1  0.0000000  0.6508444  3
  12934  12932  12946  12951     1  0.0000000  0.6508444  3
  12934  12932  12954  12938     1  0.0000000  1.6038667  3
  12935  12933  12932  12946     1  0.0000000  0.6508444  3
  12935  12933  12932  12954     1  0.0000000  1.0460000  1
  12935  12933  12932  12954     1  0.0000000  0.0000000  3
  12935  12933  12936  12937     1  0.0000000  0.6508444  3
  12935  12933  12936  12944     1  0.0000000  1.0460000  1
  12935  12933  12936  12944     1  0.0000000  0.0000000  3
  12935  12933  12936  12940     1  0.0000000  0.6508444  3
  12935  12933  12945  12948     1  0.0000000  0.6973333  3
  12936  12933  12945  12948     1  0.0000000  1.0460000  1
  12936  12933  12945  12948     1  0.0000000  0.6694400  3
  12936  12937  12938  12941     1  0.0000000  0.6508444  3
  12936  12937  12943  12949     1  0.0000000  1.0460000  1
  12936  12937  12943  12949     1  0.0000000  0.6694400  3
  12937  12936  12944  12947     1  0.0000000  1.0460000  1
  12937  12936  12944  12947     1  0.0000000  0.6694400  3
  12938  12937  12936  12940     1  0.0000000  0.6508444  3
  12938  12937  12943  12949     1  0.0000000  1.0460000  1
  12938  12937  12943  12949     1  0.0000000  0.6694400  3
  12939  12937  12936  12944     1  0.0000000  1.0460000  1
  12939  12937  12936  12944     1  0.0000000  0.0000000  3
  12939  12937  12936  12940     1  0.0000000  0.6508444  3
  12939  12937  12938  12942     1  0.0000000  1.0460000  1
  12939  12937  12938  12942     1  0.0000000  0.0000000  3
  12939  12937  12938  12954     1  0.0000000  1.0460000  1
  12939  12937  12938  12954     1  0.0000000  0.0000000  3
  12939  12937  12938  12941     1  0.0000000  0.6508444  3
  12939  12937  12943  12949     1  0.0000000  0.6973333  3
  12940  12936  12933  12945     1  0.0000000  1.0460000  1
  12940  12936  12933  12945     1  0.0000000  0.0000000  3
  12940  12936  12937  12943     1  0.0000000  1.0460000  1
  12940  12936  12937  12943     1  0.0000000  0.0000000  3
  12940  12936  12944  12947     1  0.0000000  0.6973333  3
  12941  12938  12937  12943     1  0.0000000  0.6508444  3
  12950  12946  12932  12954     1  0.0000000  1.0460000  1
  12950  12946  12932  12954     1  0.0000000  0.0000000  3
  12950  12946  12952  12953     1  0.0000000  0.6973333  3
  12951  12946  12932  12954     1  0.0000000  1.0460000  1
  12951  12946  12932  12954     1  0.0000000  0.0000000  3
  12951  12946  12952  12953     1  0.0000000  0.6973333  3
  12955  12956  12959  12963     1  0.0000000  0.6508444  3
  12955  12956  12968  12971     1  0.0000000  1.0460000  1
  12955  12956  12968  12971     1  0.0000000  0.6694400  3
  12955  12969  12975  12976     1  0.0000000  1.0460000  1
  12955  12969  12975  12976     1  0.0000000  0.6694400  3
  12955  12977  12961  12964     1  0.0000000  1.6038667  3
  12956  12959  12960  12962     1  0.0000000  0.6508444  3
  12956  12959  12967  12970     1  0.0000000  1.0460000  1
  12956  12959  12967  12970     1  0.0000000  0.6694400  3
  12956  12955  12969  12973     1  0.0000000  0.6508444  3
  12956  12955  12969  12974     1  0.0000000  0.6508444  3
  12957  12955  12956  12959     1  0.0000000  0.6508444  3
  12957  12955  12956  12968     1  0.0000000  1.0460000  1
  12957  12955  12956  12968     1  0.0000000  0.0000000  3
  12957  12955  12956  12958     1  0.0000000  0.6508444  3
  12957  12955  12969  12975     1  0.0000000  1.0460000  1
  12957  12955  12969  12975     1  0.0000000  0.0000000  3
  12957  12955  12969  12973     1  0.0000000  0.6508444  3
  12957  12955  12969  12974     1  0.0000000  0.6508444  3
  12957  12955  12977  12961     1  0.0000000  1.6038667  3
  12958  12956  12959  12960     1  0.0000000  0.6508444  3
  12958  12956  12959  12967     1  0.0000000  1.0460000  1
  12958  12956  12959  12967     1  0.0000000  0.0000000  3
  12958  12956  12959  12963     1  0.0000000  0.6508444  3
  12958  12956  12968  12971     1  0.0000000  0.6973333  3
  12958  12956  12955  12969     1  0.0000000  0.6508444  3
  12958  12956  12955  12977     1  0.0000000  1.0460000  1
  12958  12956  12955  12977     1  0.0000000  0.0000000  3
  12959  12960  12961  12964     1  0.0000000  0.6508444  3
  12959  12960  12966  12972     1  0.0000000  1.0460000  1
  12959  12960  12966  12972     1  0.0000000  0.6694400  3
  12959  12956  12968  12971     1  0.0000000  1.0460000  1
  12959  12956  12968  12971     1  0.0000000  0.6694400  3
  12960  12959  12967  12970     1  0.0000000  1.0460000  1
  12960  12959  12967  12970     1  0.0000000  0.6694400  3
  12961  12960  12966  12972     1  0.0000000  1.0460000  1
  12961  12960  12966  12972     1  0.0000000  0.6694400  3
  12961  12960  12959  12963     1  0.0000000  0.6508444  3
  12962  12960  12961  12965     1  0.0000000  1.0460000  1
  12962  12960  12961  12965     1  0.0000000  0.0000000  3
  12962  12960  12961  12977     1  0.0000000  1.0460000  1
  12962  12960  12961  12977     1  0.0000000  0.0000000  3
  12962  12960  12961  12964     1  0.0000000  0.6508444  3
  12962  12960  12966  12972     1  0.0000000  0.6973333  3
  12962  12960  12959  12967     1  0.0000000  1.0460000  1
  12962  12960  12959  12967     1  0.0000000  0.0000000  3
  12962  12960  12959  12963     1  0.0000000  0.6508444  3
  12963  12959  12960  12966     1  0.0000000  1.0460000  1
  12963  12959  12960  12966     1  0.0000000  0.0000000  3
  12963  12959  12967  12970     1  0.0000000  0.6973333  3
  12963  12959  12956  12968     1  0.0000000  1.0460000  1
  12963  12959  12956  12968     1  0.0000000  0.0000000  3
  12964  12961  12960  12966     1  0.0000000  0.6508444  3
  12973  12969  12975  12976     1  0.0000000  0.6973333  3
  12973  12969  12955  12977     1  0.0000000  1.0460000  1
  12973  12969  12955  12977     1  0.0000000  0.0000000  3
  12974  12969  12975  12976     1  0.0000000  0.6973333  3
  12974  12969  12955  12977     1  0.0000000  1.0460000  1
  12974  12969  12955  12977     1  0.0000000  0.0000000  3
  12978  12979  12982  12986     1  0.0000000  0.6508444  3
  12978  12979  12991  12994     1  0.0000000  1.0460000  1
  12978  12979  12991  12994     1  0.0000000  0.6694400  3
  12978  12992  12998  12999     1  0.0000000  1.0460000  1
  12978  12992  12998  12999     1  0.0000000  0.6694400  3
  12978  13000  12984  12987     1  0.0000000  1.6038667  3
  12979  12978  12992  12996     1  0.0000000  0.6508444  3
  12979  12978  12992  12997     1  0.0000000  0.6508444  3
  12979  12982  12983  12985     1  0.0000000  0.6508444  3
  12979  12982  12990  12993     1  0.0000000  1.0460000  1
  12979  12982  12990  12993     1  0.0000000  0.6694400  3
  12980  12978  12979  12982     1  0.0000000  0.6508444  3
  12980  12978  12979  12991     1  0.0000000  1.0460000  1
  12980  12978  12979  12991     1  0.0000000  0.0000000  3
  12980  12978  12979  12981     1  0.0000000  0.6508444  3
  12980  12978  12992  12998     1  0.0000000  1.0460000  1
  12980  12978  12992  12998     1  0.0000000  0.0000000  3
  12980  12978  12992  12996     1  0.0000000  0.6508444  3
  12980  12978  12992  12997     1  0.0000000  0.6508444  3
  12980  12978  13000  12984     1  0.0000000  1.6038667  3
  12981  12979  12978  12992     1  0.0000000  0.6508444  3
  12981  12979  12978  13000     1  0.0000000  1.0460000  1
  12981  12979  12978  13000     1  0.0000000  0.0000000  3
  12981  12979  12982  12983     1  0.0000000  0.6508444  3
  12981  12979  12982  12990     1  0.0000000  1.0460000  1
  12981  12979  12982  12990     1  0.0000000  0.0000000  3
  12981  12979  12982  12986     1  0.0000000  0.6508444  3
  12981  12979  12991  12994     1  0.0000000  0.6973333  3
  12982  12979  12991  12994     1  0.0000000  1.0460000  1
  12982  12979  12991  12994     1  0.0000000  0.6694400  3
  12982  12983  12984  12987     1  0.0000000  0.6508444  3
  12982  12983  12989  12995     1  0.0000000  1.0460000  1
  12982  12983  12989  12995     1  0.0000000  0.6694400  3
  12983  12982  12990  12993     1  0.0000000  1.0460000  1
  12983  12982  12990  12993     1  0.0000000  0.6694400  3
  12984  12983  12982  12986     1  0.0000000  0.6508444  3
  12984  12983  12989  12995     1  0.0000000  1.0460000  1
  12984  12983  12989  12995     1  0.0000000  0.6694400  3
  12985  12983  12982  12990     1  0.0000000  1.0460000  1
  12985  12983  12982  12990     1  0.0000000  0.0000000  3
  12985  12983  12982  12986     1  0.0000000  0.6508444  3
  12985  12983  12984  12988     1  0.0000000  1.0460000  1
  12985  12983  12984  12988     1  0.0000000  0.0000000  3
  12985  12983  12984  13000     1  0.0000000  1.0460000  1
  12985  12983  12984  13000     1  0.0000000  0.0000000  3
  12985  12983  12984  12987     1  0.0000000  0.6508444  3
  12985  12983  12989  12995     1  0.0000000  0.6973333  3
  12986  12982  12979  12991     1  0.0000000  1.0460000  1
  12986  12982  12979  12991     1  0.0000000  0.0000000  3
  12986  12982  12983  12989     1  0.0000000  1.0460000  1
  12986  12982  12983  12989     1  0.0000000  0.0000000  3
  12986  12982  12990  12993     1  0.0000000  0.6973333  3
  12987  12984  12983  12989     1  0.0000000  0.6508444  3
  12996  12992  12978  13000     1  0.0000000  1.0460000  1
  12996  12992  12978  13000     1  0.0000000  0.0000000  3
  12996  12992  12998  12999     1  0.0000000  0.6973333  3
  12997  12992  12978  13000     1  0.0000000  1.0460000  1
  12997  12992  12978  13000     1  0.0000000  0.0000000  3
  12997  12992  12998  12999     1  0.0000000  0.6973333  3
  13001  13002  13005  13009     1  0.0000000  0.6508444  3
  13001  13002  13014  13017     1  0.0000000  1.0460000  1
  13001  13002  13014  13017     1  0.0000000  0.6694400  3
  13001  13015  13021  13022     1  0.0000000  1.0460000  1
  13001  13015  13021  13022     1  0.0000000  0.6694400  3
  13001  13023  13007  13010     1  0.0000000  1.6038667  3
  13002  13005  13006  13008     1  0.0000000  0.6508444  3
  13002  13005  13013  13016     1  0.0000000  1.0460000  1
  13002  13005  13013  13016     1  0.0000000  0.6694400  3
  13002  13001  13015  13019     1  0.0000000  0.6508444  3
  13002  13001  13015  13020     1  0.0000000  0.6508444  3
  13003  13001  13002  13005     1  0.0000000  0.6508444  3
  13003  13001  13002  13014     1  0.0000000  1.0460000  1
  13003  13001  13002  13014     1  0.0000000  0.0000000  3
  13003  13001  13002  13004     1  0.0000000  0.6508444  3
  13003  13001  13015  13021     1  0.0000000  1.0460000  1
  13003  13001  13015  13021     1  0.0000000  0.0000000  3
  13003  13001  13015  13019     1  0.0000000  0.6508444  3
  13003  13001  13015  13020     1  0.0000000  0.6508444  3
  13003  13001  13023  13007     1  0.0000000  1.6038667  3
  13004  13002  13005  13006     1  0.0000000  0.6508444  3
  13004  13002  13005  13013     1  0.0000000  1.0460000  1
  13004  13002  13005  13013     1  0.0000000  0.0000000  3
  13004  13002  13005  13009     1  0.0000000  0.6508444  3
  13004  13002  13014  13017     1  0.0000000  0.6973333  3
  13004  13002  13001  13015     1  0.0000000  0.6508444  3
  13004  13002  13001  13023     1  0.0000000  1.0460000  1
  13004  13002  13001  13023     1  0.0000000  0.0000000  3
  13005  13006  13007  13010     1  0.0000000  0.6508444  3
  13005  13006  13012  13018     1  0.0000000  1.0460000  1
  13005  13006  13012  13018     1  0.0000000  0.6694400  3
  13005  13002  13014  13017     1  0.0000000  1.0460000  1
  13005  13002  13014  13017     1  0.0000000  0.6694400  3
  13006  13005  13013  13016     1  0.0000000  1.0460000  1
  13006  13005  13013  13016     1  0.0000000  0.6694400  3
  13007  13006  13012  13018     1  0.0000000  1.0460000  1
  13007  13006  13012  13018     1  0.0000000  0.6694400  3
  13007  13006  13005  13009     1  0.0000000  0.6508444  3
  13008  13006  13007  13011     1  0.0000000  1.0460000  1
  13008  13006  13007  13011     1  0.0000000  0.0000000  3
  13008  13006  13007  13023     1  0.0000000  1.0460000  1
  13008  13006  13007  13023     1  0.0000000  0.0000000  3
  13008  13006  13007  13010     1  0.0000000  0.6508444  3
  13008  13006  13012  13018     1  0.0000000  0.6973333  3
  13008  13006  13005  13013     1  0.0000000  1.0460000  1
  13008  13006  13005  13013     1  0.0000000  0.0000000  3
  13008  13006  13005  13009     1  0.0000000  0.6508444  3
  13009  13005  13006  13012     1  0.0000000  1.0460000  1
  13009  13005  13006  13012     1  0.0000000  0.0000000  3
  13009  13005  13013  13016     1  0.0000000  0.6973333  3
  13009  13005  13002  13014     1  0.0000000  1.0460000  1
  13009  13005  13002  13014     1  0.0000000  0.0000000  3
  13010  13007  13006  13012     1  0.0000000  0.6508444  3
  13019  13015  13021  13022     1  0.0000000  0.6973333  3
  13019  13015  13001  13023     1  0.0000000  1.0460000  1
  13019  13015  13001  13023     1  0.0000000  0.0000000  3
  13020  13015  13021  13022     1  0.0000000  0.6973333  3
  13020  13015  13001  13023     1  0.0000000  1.0460000  1
  13020  13015  13001  13023     1  0.0000000  0.0000000  3
  13024  13025  13028  13032     1  0.0000000  0.6508444  3
  13024  13025  13037  13040     1  0.0000000  1.0460000  1
  13024  13025  13037  13040     1  0.0000000  0.6694400  3
  13024  13038  13044  13045     1  0.0000000  1.0460000  1
  13024  13038  13044  13045     1  0.0000000  0.6694400  3
  13024  13046  13030  13033     1  0.0000000  1.6038667  3
  13025  13024  13038  13042     1  0.0000000  0.6508444  3
  13025  13024  13038  13043     1  0.0000000  0.6508444  3
  13025  13028  13029  13031     1  0.0000000  0.6508444  3
  13025  13028  13036  13039     1  0.0000000  1.0460000  1
  13025  13028  13036  13039     1  0.0000000  0.6694400  3
  13026  13024  13025  13028     1  0.0000000  0.6508444  3
  13026  13024  13025  13037     1  0.0000000  1.0460000  1
  13026  13024  13025  13037     1  0.0000000  0.0000000  3
  13026  13024  13025  13027     1  0.0000000  0.6508444  3
  13026  13024  13038  13044     1  0.0000000  1.0460000  1
  13026  13024  13038  13044     1  0.0000000  0.0000000  3
  13026  13024  13038  13042     1  0.0000000  0.6508444  3
  13026  13024  13038  13043     1  0.0000000  0.6508444  3
  13026  13024  13046  13030     1  0.0000000  1.6038667  3
  13027  13025  13024  13038     1  0.0000000  0.6508444  3
  13027  13025  13024  13046     1  0.0000000  1.0460000  1
  13027  13025  13024  13046     1  0.0000000  0.0000000  3
  13027  13025  13028  13029     1  0.0000000  0.6508444  3
  13027  13025  13028  13036     1  0.0000000  1.0460000  1
  13027  13025  13028  13036     1  0.0000000  0.0000000  3
  13027  13025  13028  13032     1  0.0000000  0.6508444  3
  13027  13025  13037  13040     1  0.0000000  0.6973333  3
  13028  13025  13037  13040     1  0.0000000  1.0460000  1
  13028  13025  13037  13040     1  0.0000000  0.6694400  3
  13028  13029  13030  13033     1  0.0000000  0.6508444  3
  13028  13029  13035  13041     1  0.0000000  1.0460000  1
  13028  13029  13035  13041     1  0.0000000  0.6694400  3
  13029  13028  13036  13039     1  0.0000000  1.0460000  1
  13029  13028  13036  13039     1  0.0000000  0.6694400  3
  13030  13029  13028  13032     1  0.0000000  0.6508444  3
  13030  13029  13035  13041     1  0.0000000  1.0460000  1
  13030  13029  13035  13041     1  0.0000000  0.6694400  3
  13031  13029  13028  13036     1  0.0000000  1.0460000  1
  13031  13029  13028  13036     1  0.0000000  0.0000000  3
  13031  13029  13028  13032     1  0.0000000  0.6508444  3
  13031  13029  13030  13034     1  0.0000000  1.0460000  1
  13031  13029  13030  13034     1  0.0000000  0.0000000  3
  13031  13029  13030  13046     1  0.0000000  1.0460000  1
  13031  13029  13030  13046     1  0.0000000  0.0000000  3
  13031  13029  13030  13033     1  0.0000000  0.6508444  3
  13031  13029  13035  13041     1  0.0000000  0.6973333  3
  13032  13028  13025  13037     1  0.0000000  1.0460000  1
  13032  13028  13025  13037     1  0.0000000  0.0000000  3
  13032  13028  13029  13035     1  0.0000000  1.0460000  1
  13032  13028  13029  13035     1  0.0000000  0.0000000  3
  13032  13028  13036  13039     1  0.0000000  0.6973333  3
  13033  13030  13029  13035     1  0.0000000  0.6508444  3
  13042  13038  13024  13046     1  0.0000000  1.0460000  1
  13042  13038  13024  13046     1  0.0000000  0.0000000  3
  13042  13038  13044  13045     1  0.0000000  0.6973333  3
  13043  13038  13024  13046     1  0.0000000  1.0460000  1
  13043  13038  13024  13046     1  0.0000000  0.0000000  3
  13043  13038  13044  13045     1  0.0000000  0.6973333  3
  13047  13048  13051  13055     1  0.0000000  0.6508444  3
  13047  13048  13060  13063     1  0.0000000  1.0460000  1
  13047  13048  13060  13063     1  0.0000000  0.6694400  3
  13047  13061  13067  13068     1  0.0000000  1.0460000  1
  13047  13061  13067  13068     1  0.0000000  0.6694400  3
  13047  13069  13053  13056     1  0.0000000  1.6038667  3
  13048  13051  13052  13054     1  0.0000000  0.6508444  3
  13048  13051  13059  13062     1  0.0000000  1.0460000  1
  13048  13051  13059  13062     1  0.0000000  0.6694400  3
  13048  13047  13061  13065     1  0.0000000  0.6508444  3
  13048  13047  13061  13066     1  0.0000000  0.6508444  3
  13049  13047  13048  13051     1  0.0000000  0.6508444  3
  13049  13047  13048  13060     1  0.0000000  1.0460000  1
  13049  13047  13048  13060     1  0.0000000  0.0000000  3
  13049  13047  13048  13050     1  0.0000000  0.6508444  3
  13049  13047  13061  13067     1  0.0000000  1.0460000  1
  13049  13047  13061  13067     1  0.0000000  0.0000000  3
  13049  13047  13061  13065     1  0.0000000  0.6508444  3
  13049  13047  13061  13066     1  0.0000000  0.6508444  3
  13049  13047  13069  13053     1  0.0000000  1.6038667  3
  13050  13048  13051  13052     1  0.0000000  0.6508444  3
  13050  13048  13051  13059     1  0.0000000  1.0460000  1
  13050  13048  13051  13059     1  0.0000000  0.0000000  3
  13050  13048  13051  13055     1  0.0000000  0.6508444  3
  13050  13048  13060  13063     1  0.0000000  0.6973333  3
  13050  13048  13047  13061     1  0.0000000  0.6508444  3
  13050  13048  13047  13069     1  0.0000000  1.0460000  1
  13050  13048  13047  13069     1  0.0000000  0.0000000  3
  13051  13052  13053  13056     1  0.0000000  0.6508444  3
  13051  13052  13058  13064     1  0.0000000  1.0460000  1
  13051  13052  13058  13064     1  0.0000000  0.6694400  3
  13051  13048  13060  13063     1  0.0000000  1.0460000  1
  13051  13048  13060  13063     1  0.0000000  0.6694400  3
  13052  13051  13059  13062     1  0.0000000  1.0460000  1
  13052  13051  13059  13062     1  0.0000000  0.6694400  3
  13053  13052  13058  13064     1  0.0000000  1.0460000  1
  13053  13052  13058  13064     1  0.0000000  0.6694400  3
  13053  13052  13051  13055     1  0.0000000  0.6508444  3
  13054  13052  13053  13057     1  0.0000000  1.0460000  1
  13054  13052  13053  13057     1  0.0000000  0.0000000  3
  13054  13052  13053  13069     1  0.0000000  1.0460000  1
  13054  13052  13053  13069     1  0.0000000  0.0000000  3
  13054  13052  13053  13056     1  0.0000000  0.6508444  3
  13054  13052  13058  13064     1  0.0000000  0.6973333  3
  13054  13052  13051  13059     1  0.0000000  1.0460000  1
  13054  13052  13051  13059     1  0.0000000  0.0000000  3
  13054  13052  13051  13055     1  0.0000000  0.6508444  3
  13055  13051  13052  13058     1  0.0000000  1.0460000  1
  13055  13051  13052  13058     1  0.0000000  0.0000000  3
  13055  13051  13059  13062     1  0.0000000  0.6973333  3
  13055  13051  13048  13060     1  0.0000000  1.0460000  1
  13055  13051  13048  13060     1  0.0000000  0.0000000  3
  13056  13053  13052  13058     1  0.0000000  0.6508444  3
  13065  13061  13067  13068     1  0.0000000  0.6973333  3
  13065  13061  13047  13069     1  0.0000000  1.0460000  1
  13065  13061  13047  13069     1  0.0000000  0.0000000  3
  13066  13061  13067  13068     1  0.0000000  0.6973333  3
  13066  13061  13047  13069     1  0.0000000  1.0460000  1
  13066  13061  13047  13069     1  0.0000000  0.0000000  3
  13070  13071  13074  13078     1  0.0000000  0.6508444  3
  13070  13071  13083  13086     1  0.0000000  1.0460000  1
  13070  13071  13083  13086     1  0.0000000  0.6694400  3
  13070  13084  13090  13091     1  0.0000000  1.0460000  1
  13070  13084  13090  13091     1  0.0000000  0.6694400  3
  13070  13092  13076  13079     1  0.0000000  1.6038667  3
  13071  13070  13084  13088     1  0.0000000  0.6508444  3
  13071  13070  13084  13089     1  0.0000000  0.6508444  3
  13071  13074  13075  13077     1  0.0000000  0.6508444  3
  13071  13074  13082  13085     1  0.0000000  1.0460000  1
  13071  13074  13082  13085     1  0.0000000  0.6694400  3
  13072  13070  13071  13074     1  0.0000000  0.6508444  3
  13072  13070  13071  13083     1  0.0000000  1.0460000  1
  13072  13070  13071  13083     1  0.0000000  0.0000000  3
  13072  13070  13071  13073     1  0.0000000  0.6508444  3
  13072  13070  13084  13090     1  0.0000000  1.0460000  1
  13072  13070  13084  13090     1  0.0000000  0.0000000  3
  13072  13070  13084  13088     1  0.0000000  0.6508444  3
  13072  13070  13084  13089     1  0.0000000  0.6508444  3
  13072  13070  13092  13076     1  0.0000000  1.6038667  3
  13073  13071  13070  13084     1  0.0000000  0.6508444  3
  13073  13071  13070  13092     1  0.0000000  1.0460000  1
  13073  13071  13070  13092     1  0.0000000  0.0000000  3
  13073  13071  13074  13075     1  0.0000000  0.6508444  3
  13073  13071  13074  13082     1  0.0000000  1.0460000  1
  13073  13071  13074  13082     1  0.0000000  0.0000000  3
  13073  13071  13074  13078     1  0.0000000  0.6508444  3
  13073  13071  13083  13086     1  0.0000000  0.6973333  3
  13074  13071  13083  13086     1  0.0000000  1.0460000  1
  13074  13071  13083  13086     1  0.0000000  0.6694400  3
  13074  13075  13076  13079     1  0.0000000  0.6508444  3
  13074  13075  13081  13087     1  0.0000000  1.0460000  1
  13074  13075  13081  13087     1  0.0000000  0.6694400  3
  13075  13074  13082  13085     1  0.0000000  1.0460000  1
  13075  13074  13082  13085     1  0.0000000  0.6694400  3
  13076  13075  13074  13078     1  0.0000000  0.6508444  3
  13076  13075  13081  13087     1  0.0000000  1.0460000  1
  13076  13075  13081  13087     1  0.0000000  0.6694400  3
  13077  13075  13074  13082     1  0.0000000  1.0460000  1
  13077  13075  13074  13082     1  0.0000000  0.0000000  3
  13077  13075  13074  13078     1  0.0000000  0.6508444  3
  13077  13075  13076  13080     1  0.0000000  1.0460000  1
  13077  13075  13076  13080     1  0.0000000  0.0000000  3
  13077  13075  13076  13092     1  0.0000000  1.0460000  1
  13077  13075  13076  13092     1  0.0000000  0.0000000  3
  13077  13075  13076  13079     1  0.0000000  0.6508444  3
  13077  13075  13081  13087     1  0.0000000  0.6973333  3
  13078  13074  13071  13083     1  0.0000000  1.0460000  1
  13078  13074  13071  13083     1  0.0000000  0.0000000  3
  13078  13074  13075  13081     1  0.0000000  1.0460000  1
  13078  13074  13075  13081     1  0.0000000  0.0000000  3
  13078  13074  13082  13085     1  0.0000000  0.6973333  3
  13079  13076  13075  13081     1  0.0000000  0.6508444  3
  13088  13084  13070  13092     1  0.0000000  1.0460000  1
  13088  13084  13070  13092     1  0.0000000  0.0000000  3
  13088  13084  13090  13091     1  0.0000000  0.6973333  3
  13089  13084  13070  13092     1  0.0000000  1.0460000  1
  13089  13084  13070  13092     1  0.0000000  0.0000000  3
  13089  13084  13090  13091     1  0.0000000  0.6973333  3
  13093  13094  13097  13101     1  0.0000000  0.6508444  3
  13093  13094  13106  13109     1  0.0000000  1.0460000  1
  13093  13094  13106  13109     1  0.0000000  0.6694400  3
  13093  13107  13113  13114     1  0.0000000  1.0460000  1
  13093  13107  13113  13114     1  0.0000000  0.6694400  3
  13093  13115  13099  13102     1  0.0000000  1.6038667  3
  13094  13097  13098  13100     1  0.0000000  0.6508444  3
  13094  13097  13105  13108     1  0.0000000  1.0460000  1
  13094  13097  13105  13108     1  0.0000000  0.6694400  3
  13094  13093  13107  13111     1  0.0000000  0.6508444  3
  13094  13093  13107  13112     1  0.0000000  0.6508444  3
  13095  13093  13094  13097     1  0.0000000  0.6508444  3
  13095  13093  13094  13106     1  0.0000000  1.0460000  1
  13095  13093  13094  13106     1  0.0000000  0.0000000  3
  13095  13093  13094  13096     1  0.0000000  0.6508444  3
  13095  13093  13107  13113     1  0.0000000  1.0460000  1
  13095  13093  13107  13113     1  0.0000000  0.0000000  3
  13095  13093  13107  13111     1  0.0000000  0.6508444  3
  13095  13093  13107  13112     1  0.0000000  0.6508444  3
  13095  13093  13115  13099     1  0.0000000  1.6038667  3
  13096  13094  13097  13098     1  0.0000000  0.6508444  3
  13096  13094  13097  13105     1  0.0000000  1.0460000  1
  13096  13094  13097  13105     1  0.0000000  0.0000000  3
  13096  13094  13097  13101     1  0.0000000  0.6508444  3
  13096  13094  13106  13109     1  0.0000000  0.6973333  3
  13096  13094  13093  13107     1  0.0000000  0.6508444  3
  13096  13094  13093  13115     1  0.0000000  1.0460000  1
  13096  13094  13093  13115     1  0.0000000  0.0000000  3
  13097  13098  13099  13102     1  0.0000000  0.6508444  3
  13097  13098  13104  13110     1  0.0000000  1.0460000  1
  13097  13098  13104  13110     1  0.0000000  0.6694400  3
  13097  13094  13106  13109     1  0.0000000  1.0460000  1
  13097  13094  13106  13109     1  0.0000000  0.6694400  3
  13098  13097  13105  13108     1  0.0000000  1.0460000  1
  13098  13097  13105  13108     1  0.0000000  0.6694400  3
  13099  13098  13104  13110     1  0.0000000  1.0460000  1
  13099  13098  13104  13110     1  0.0000000  0.6694400  3
  13099  13098  13097  13101     1  0.0000000  0.6508444  3
  13100  13098  13099  13103     1  0.0000000  1.0460000  1
  13100  13098  13099  13103     1  0.0000000  0.0000000  3
  13100  13098  13099  13115     1  0.0000000  1.0460000  1
  13100  13098  13099  13115     1  0.0000000  0.0000000  3
  13100  13098  13099  13102     1  0.0000000  0.6508444  3
  13100  13098  13104  13110     1  0.0000000  0.6973333  3
  13100  13098  13097  13105     1  0.0000000  1.0460000  1
  13100  13098  13097  13105     1  0.0000000  0.0000000  3
  13100  13098  13097  13101     1  0.0000000  0.6508444  3
  13101  13097  13098  13104     1  0.0000000  1.0460000  1
  13101  13097  13098  13104     1  0.0000000  0.0000000  3
  13101  13097  13105  13108     1  0.0000000  0.6973333  3
  13101  13097  13094  13106     1  0.0000000  1.0460000  1
  13101  13097  13094  13106     1  0.0000000  0.0000000  3
  13102  13099  13098  13104     1  0.0000000  0.6508444  3
  13111  13107  13113  13114     1  0.0000000  0.6973333  3
  13111  13107  13093  13115     1  0.0000000  1.0460000  1
  13111  13107  13093  13115     1  0.0000000  0.0000000  3
  13112  13107  13113  13114     1  0.0000000  0.6973333  3
  13112  13107  13093  13115     1  0.0000000  1.0460000  1
  13112  13107  13093  13115     1  0.0000000  0.0000000  3
  13116  13117  13120  13124     1  0.0000000  0.6508444  3
  13116  13117  13129  13132     1  0.0000000  1.0460000  1
  13116  13117  13129  13132     1  0.0000000  0.6694400  3
  13116  13130  13136  13137     1  0.0000000  1.0460000  1
  13116  13130  13136  13137     1  0.0000000  0.6694400  3
  13116  13138  13122  13125     1  0.0000000  1.6038667  3
  13117  13116  13130  13134     1  0.0000000  0.6508444  3
  13117  13116  13130  13135     1  0.0000000  0.6508444  3
  13117  13120  13121  13123     1  0.0000000  0.6508444  3
  13117  13120  13128  13131     1  0.0000000  1.0460000  1
  13117  13120  13128  13131     1  0.0000000  0.6694400  3
  13118  13116  13117  13120     1  0.0000000  0.6508444  3
  13118  13116  13117  13129     1  0.0000000  1.0460000  1
  13118  13116  13117  13129     1  0.0000000  0.0000000  3
  13118  13116  13117  13119     1  0.0000000  0.6508444  3
  13118  13116  13130  13136     1  0.0000000  1.0460000  1
  13118  13116  13130  13136     1  0.0000000  0.0000000  3
  13118  13116  13130  13134     1  0.0000000  0.6508444  3
  13118  13116  13130  13135     1  0.0000000  0.6508444  3
  13118  13116  13138  13122     1  0.0000000  1.6038667  3
  13119  13117  13116  13130     1  0.0000000  0.6508444  3
  13119  13117  13116  13138     1  0.0000000  1.0460000  1
  13119  13117  13116  13138     1  0.0000000  0.0000000  3
  13119  13117  13120  13121     1  0.0000000  0.6508444  3
  13119  13117  13120  13128     1  0.0000000  1.0460000  1
  13119  13117  13120  13128     1  0.0000000  0.0000000  3
  13119  13117  13120  13124     1  0.0000000  0.6508444  3
  13119  13117  13129  13132     1  0.0000000  0.6973333  3
  13120  13117  13129  13132     1  0.0000000  1.0460000  1
  13120  13117  13129  13132     1  0.0000000  0.6694400  3
  13120  13121  13122  13125     1  0.0000000  0.6508444  3
  13120  13121  13127  13133     1  0.0000000  1.0460000  1
  13120  13121  13127  13133     1  0.0000000  0.6694400  3
  13121  13120  13128  13131     1  0.0000000  1.0460000  1
  13121  13120  13128  13131     1  0.0000000  0.6694400  3
  13122  13121  13120  13124     1  0.0000000  0.6508444  3
  13122  13121  13127  13133     1  0.0000000  1.0460000  1
  13122  13121  13127  13133     1  0.0000000  0.6694400  3
  13123  13121  13120  13128     1  0.0000000  1.0460000  1
  13123  13121  13120  13128     1  0.0000000  0.0000000  3
  13123  13121  13120  13124     1  0.0000000  0.6508444  3
  13123  13121  13122  13126     1  0.0000000  1.0460000  1
  13123  13121  13122  13126     1  0.0000000  0.0000000  3
  13123  13121  13122  13138     1  0.0000000  1.0460000  1
  13123  13121  13122  13138     1  0.0000000  0.0000000  3
  13123  13121  13122  13125     1  0.0000000  0.6508444  3
  13123  13121  13127  13133     1  0.0000000  0.6973333  3
  13124  13120  13117  13129     1  0.0000000  1.0460000  1
  13124  13120  13117  13129     1  0.0000000  0.0000000  3
  13124  13120  13121  13127     1  0.0000000  1.0460000  1
  13124  13120  13121  13127     1  0.0000000  0.0000000  3
  13124  13120  13128  13131     1  0.0000000  0.6973333  3
  13125  13122  13121  13127     1  0.0000000  0.6508444  3
  13134  13130  13116  13138     1  0.0000000  1.0460000  1
  13134  13130  13116  13138     1  0.0000000  0.0000000  3
  13134  13130  13136  13137     1  0.0000000  0.6973333  3
  13135  13130  13116  13138     1  0.0000000  1.0460000  1
  13135  13130  13116  13138     1  0.0000000  0.0000000  3
  13135  13130  13136  13137     1  0.0000000  0.6973333  3
  13139  13140  13143  13147     1  0.0000000  0.6508444  3
  13139  13140  13152  13155     1  0.0000000  1.0460000  1
  13139  13140  13152  13155     1  0.0000000  0.6694400  3
  13139  13153  13159  13160     1  0.0000000  1.0460000  1
  13139  13153  13159  13160     1  0.0000000  0.6694400  3
  13139  13161  13145  13148     1  0.0000000  1.6038667  3
  13140  13143  13144  13146     1  0.0000000  0.6508444  3
  13140  13143  13151  13154     1  0.0000000  1.0460000  1
  13140  13143  13151  13154     1  0.0000000  0.6694400  3
  13140  13139  13153  13157     1  0.0000000  0.6508444  3
  13140  13139  13153  13158     1  0.0000000  0.6508444  3
  13141  13139  13140  13143     1  0.0000000  0.6508444  3
  13141  13139  13140  13152     1  0.0000000  1.0460000  1
  13141  13139  13140  13152     1  0.0000000  0.0000000  3
  13141  13139  13140  13142     1  0.0000000  0.6508444  3
  13141  13139  13153  13159     1  0.0000000  1.0460000  1
  13141  13139  13153  13159     1  0.0000000  0.0000000  3
  13141  13139  13153  13157     1  0.0000000  0.6508444  3
  13141  13139  13153  13158     1  0.0000000  0.6508444  3
  13141  13139  13161  13145     1  0.0000000  1.6038667  3
  13142  13140  13143  13144     1  0.0000000  0.6508444  3
  13142  13140  13143  13151     1  0.0000000  1.0460000  1
  13142  13140  13143  13151     1  0.0000000  0.0000000  3
  13142  13140  13143  13147     1  0.0000000  0.6508444  3
  13142  13140  13152  13155     1  0.0000000  0.6973333  3
  13142  13140  13139  13153     1  0.0000000  0.6508444  3
  13142  13140  13139  13161     1  0.0000000  1.0460000  1
  13142  13140  13139  13161     1  0.0000000  0.0000000  3
  13143  13144  13145  13148     1  0.0000000  0.6508444  3
  13143  13144  13150  13156     1  0.0000000  1.0460000  1
  13143  13144  13150  13156     1  0.0000000  0.6694400  3
  13143  13140  13152  13155     1  0.0000000  1.0460000  1
  13143  13140  13152  13155     1  0.0000000  0.6694400  3
  13144  13143  13151  13154     1  0.0000000  1.0460000  1
  13144  13143  13151  13154     1  0.0000000  0.6694400  3
  13145  13144  13150  13156     1  0.0000000  1.0460000  1
  13145  13144  13150  13156     1  0.0000000  0.6694400  3
  13145  13144  13143  13147     1  0.0000000  0.6508444  3
  13146  13144  13145  13149     1  0.0000000  1.0460000  1
  13146  13144  13145  13149     1  0.0000000  0.0000000  3
  13146  13144  13145  13161     1  0.0000000  1.0460000  1
  13146  13144  13145  13161     1  0.0000000  0.0000000  3
  13146  13144  13145  13148     1  0.0000000  0.6508444  3
  13146  13144  13150  13156     1  0.0000000  0.6973333  3
  13146  13144  13143  13151     1  0.0000000  1.0460000  1
  13146  13144  13143  13151     1  0.0000000  0.0000000  3
  13146  13144  13143  13147     1  0.0000000  0.6508444  3
  13147  13143  13144  13150     1  0.0000000  1.0460000  1
  13147  13143  13144  13150     1  0.0000000  0.0000000  3
  13147  13143  13151  13154     1  0.0000000  0.6973333  3
  13147  13143  13140  13152     1  0.0000000  1.0460000  1
  13147  13143  13140  13152     1  0.0000000  0.0000000  3
  13148  13145  13144  13150     1  0.0000000  0.6508444  3
  13157  13153  13159  13160     1  0.0000000  0.6973333  3
  13157  13153  13139  13161     1  0.0000000  1.0460000  1
  13157  13153  13139  13161     1  0.0000000  0.0000000  3
  13158  13153  13159  13160     1  0.0000000  0.6973333  3
  13158  13153  13139  13161     1  0.0000000  1.0460000  1
  13158  13153  13139  13161     1  0.0000000  0.0000000  3
  13162  13163  13166  13170     1  0.0000000  0.6508444  3
  13162  13163  13175  13178     1  0.0000000  1.0460000  1
  13162  13163  13175  13178     1  0.0000000  0.6694400  3
  13162  13176  13182  13183     1  0.0000000  1.0460000  1
  13162  13176  13182  13183     1  0.0000000  0.6694400  3
  13162  13184  13168  13171     1  0.0000000  1.6038667  3
  13163  13162  13176  13180     1  0.0000000  0.6508444  3
  13163  13162  13176  13181     1  0.0000000  0.6508444  3
  13163  13166  13167  13169     1  0.0000000  0.6508444  3
  13163  13166  13174  13177     1  0.0000000  1.0460000  1
  13163  13166  13174  13177     1  0.0000000  0.6694400  3
  13164  13162  13163  13166     1  0.0000000  0.6508444  3
  13164  13162  13163  13175     1  0.0000000  1.0460000  1
  13164  13162  13163  13175     1  0.0000000  0.0000000  3
  13164  13162  13163  13165     1  0.0000000  0.6508444  3
  13164  13162  13176  13182     1  0.0000000  1.0460000  1
  13164  13162  13176  13182     1  0.0000000  0.0000000  3
  13164  13162  13176  13180     1  0.0000000  0.6508444  3
  13164  13162  13176  13181     1  0.0000000  0.6508444  3
  13164  13162  13184  13168     1  0.0000000  1.6038667  3
  13165  13163  13162  13176     1  0.0000000  0.6508444  3
  13165  13163  13162  13184     1  0.0000000  1.0460000  1
  13165  13163  13162  13184     1  0.0000000  0.0000000  3
  13165  13163  13166  13167     1  0.0000000  0.6508444  3
  13165  13163  13166  13174     1  0.0000000  1.0460000  1
  13165  13163  13166  13174     1  0.0000000  0.0000000  3
  13165  13163  13166  13170     1  0.0000000  0.6508444  3
  13165  13163  13175  13178     1  0.0000000  0.6973333  3
  13166  13163  13175  13178     1  0.0000000  1.0460000  1
  13166  13163  13175  13178     1  0.0000000  0.6694400  3
  13166  13167  13168  13171     1  0.0000000  0.6508444  3
  13166  13167  13173  13179     1  0.0000000  1.0460000  1
  13166  13167  13173  13179     1  0.0000000  0.6694400  3
  13167  13166  13174  13177     1  0.0000000  1.0460000  1
  13167  13166  13174  13177     1  0.0000000  0.6694400  3
  13168  13167  13166  13170     1  0.0000000  0.6508444  3
  13168  13167  13173  13179     1  0.0000000  1.0460000  1
  13168  13167  13173  13179     1  0.0000000  0.6694400  3
  13169  13167  13166  13174     1  0.0000000  1.0460000  1
  13169  13167  13166  13174     1  0.0000000  0.0000000  3
  13169  13167  13166  13170     1  0.0000000  0.6508444  3
  13169  13167  13168  13172     1  0.0000000  1.0460000  1
  13169  13167  13168  13172     1  0.0000000  0.0000000  3
  13169  13167  13168  13184     1  0.0000000  1.0460000  1
  13169  13167  13168  13184     1  0.0000000  0.0000000  3
  13169  13167  13168  13171     1  0.0000000  0.6508444  3
  13169  13167  13173  13179     1  0.0000000  0.6973333  3
  13170  13166  13163  13175     1  0.0000000  1.0460000  1
  13170  13166  13163  13175     1  0.0000000  0.0000000  3
  13170  13166  13167  13173     1  0.0000000  1.0460000  1
  13170  13166  13167  13173     1  0.0000000  0.0000000  3
  13170  13166  13174  13177     1  0.0000000  0.6973333  3
  13171  13168  13167  13173     1  0.0000000  0.6508444  3
  13180  13176  13162  13184     1  0.0000000  1.0460000  1
  13180  13176  13162  13184     1  0.0000000  0.0000000  3
  13180  13176  13182  13183     1  0.0000000  0.6973333  3
  13181  13176  13162  13184     1  0.0000000  1.0460000  1
  13181  13176  13162  13184     1  0.0000000  0.0000000  3
  13181  13176  13182  13183     1  0.0000000  0.6973333  3
  13185  13186  13189  13193     1  0.0000000  0.6508444  3
  13185  13186  13198  13201     1  0.0000000  1.0460000  1
  13185  13186  13198  13201     1  0.0000000  0.6694400  3
  13185  13199  13205  13206     1  0.0000000  1.0460000  1
  13185  13199  13205  13206     1  0.0000000  0.6694400  3
  13185  13207  13191  13194     1  0.0000000  1.6038667  3
  13186  13189  13190  13192     1  0.0000000  0.6508444  3
  13186  13189  13197  13200     1  0.0000000  1.0460000  1
  13186  13189  13197  13200     1  0.0000000  0.6694400  3
  13186  13185  13199  13203     1  0.0000000  0.6508444  3
  13186  13185  13199  13204     1  0.0000000  0.6508444  3
  13187  13185  13186  13189     1  0.0000000  0.6508444  3
  13187  13185  13186  13198     1  0.0000000  1.0460000  1
  13187  13185  13186  13198     1  0.0000000  0.0000000  3
  13187  13185  13186  13188     1  0.0000000  0.6508444  3
  13187  13185  13199  13205     1  0.0000000  1.0460000  1
  13187  13185  13199  13205     1  0.0000000  0.0000000  3
  13187  13185  13199  13203     1  0.0000000  0.6508444  3
  13187  13185  13199  13204     1  0.0000000  0.6508444  3
  13187  13185  13207  13191     1  0.0000000  1.6038667  3
  13188  13186  13189  13190     1  0.0000000  0.6508444  3
  13188  13186  13189  13197     1  0.0000000  1.0460000  1
  13188  13186  13189  13197     1  0.0000000  0.0000000  3
  13188  13186  13189  13193     1  0.0000000  0.6508444  3
  13188  13186  13198  13201     1  0.0000000  0.6973333  3
  13188  13186  13185  13199     1  0.0000000  0.6508444  3
  13188  13186  13185  13207     1  0.0000000  1.0460000  1
  13188  13186  13185  13207     1  0.0000000  0.0000000  3
  13189  13190  13191  13194     1  0.0000000  0.6508444  3
  13189  13190  13196  13202     1  0.0000000  1.0460000  1
  13189  13190  13196  13202     1  0.0000000  0.6694400  3
  13189  13186  13198  13201     1  0.0000000  1.0460000  1
  13189  13186  13198  13201     1  0.0000000  0.6694400  3
  13190  13189  13197  13200     1  0.0000000  1.0460000  1
  13190  13189  13197  13200     1  0.0000000  0.6694400  3
  13191  13190  13196  13202     1  0.0000000  1.0460000  1
  13191  13190  13196  13202     1  0.0000000  0.6694400  3
  13191  13190  13189  13193     1  0.0000000  0.6508444  3
  13192  13190  13191  13195     1  0.0000000  1.0460000  1
  13192  13190  13191  13195     1  0.0000000  0.0000000  3
  13192  13190  13191  13207     1  0.0000000  1.0460000  1
  13192  13190  13191  13207     1  0.0000000  0.0000000  3
  13192  13190  13191  13194     1  0.0000000  0.6508444  3
  13192  13190  13196  13202     1  0.0000000  0.6973333  3
  13192  13190  13189  13197     1  0.0000000  1.0460000  1
  13192  13190  13189  13197     1  0.0000000  0.0000000  3
  13192  13190  13189  13193     1  0.0000000  0.6508444  3
  13193  13189  13190  13196     1  0.0000000  1.0460000  1
  13193  13189  13190  13196     1  0.0000000  0.0000000  3
  13193  13189  13197  13200     1  0.0000000  0.6973333  3
  13193  13189  13186  13198     1  0.0000000  1.0460000  1
  13193  13189  13186  13198     1  0.0000000  0.0000000  3
  13194  13191  13190  13196     1  0.0000000  0.6508444  3
  13203  13199  13205  13206     1  0.0000000  0.6973333  3
  13203  13199  13185  13207     1  0.0000000  1.0460000  1
  13203  13199  13185  13207     1  0.0000000  0.0000000  3
  13204  13199  13205  13206     1  0.0000000  0.6973333  3
  13204  13199  13185  13207     1  0.0000000  1.0460000  1
  13204  13199  13185  13207     1  0.0000000  0.0000000  3
  13208  13209  13212  13216     1  0.0000000  0.6508444  3
  13208  13209  13221  13224     1  0.0000000  1.0460000  1
  13208  13209  13221  13224     1  0.0000000  0.6694400  3
  13208  13222  13228  13229     1  0.0000000  1.0460000  1
  13208  13222  13228  13229     1  0.0000000  0.6694400  3
  13208  13230  13214  13217     1  0.0000000  1.6038667  3
  13209  13208  13222  13226     1  0.0000000  0.6508444  3
  13209  13208  13222  13227     1  0.0000000  0.6508444  3
  13209  13212  13213  13215     1  0.0000000  0.6508444  3
  13209  13212  13220  13223     1  0.0000000  1.0460000  1
  13209  13212  13220  13223     1  0.0000000  0.6694400  3
  13210  13208  13209  13212     1  0.0000000  0.6508444  3
  13210  13208  13209  13221     1  0.0000000  1.0460000  1
  13210  13208  13209  13221     1  0.0000000  0.0000000  3
  13210  13208  13209  13211     1  0.0000000  0.6508444  3
  13210  13208  13222  13228     1  0.0000000  1.0460000  1
  13210  13208  13222  13228     1  0.0000000  0.0000000  3
  13210  13208  13222  13226     1  0.0000000  0.6508444  3
  13210  13208  13222  13227     1  0.0000000  0.6508444  3
  13210  13208  13230  13214     1  0.0000000  1.6038667  3
  13211  13209  13208  13222     1  0.0000000  0.6508444  3
  13211  13209  13208  13230     1  0.0000000  1.0460000  1
  13211  13209  13208  13230     1  0.0000000  0.0000000  3
  13211  13209  13212  13213     1  0.0000000  0.6508444  3
  13211  13209  13212  13220     1  0.0000000  1.0460000  1
  13211  13209  13212  13220     1  0.0000000  0.0000000  3
  13211  13209  13212  13216     1  0.0000000  0.6508444  3
  13211  13209  13221  13224     1  0.0000000  0.6973333  3
  13212  13209  13221  13224     1  0.0000000  1.0460000  1
  13212  13209  13221  13224     1  0.0000000  0.6694400  3
  13212  13213  13214  13217     1  0.0000000  0.6508444  3
  13212  13213  13219  13225     1  0.0000000  1.0460000  1
  13212  13213  13219  13225     1  0.0000000  0.6694400  3
  13213  13212  13220  13223     1  0.0000000  1.0460000  1
  13213  13212  13220  13223     1  0.0000000  0.6694400  3
  13214  13213  13212  13216     1  0.0000000  0.6508444  3
  13214  13213  13219  13225     1  0.0000000  1.0460000  1
  13214  13213  13219  13225     1  0.0000000  0.6694400  3
  13215  13213  13212  13220     1  0.0000000  1.0460000  1
  13215  13213  13212  13220     1  0.0000000  0.0000000  3
  13215  13213  13212  13216     1  0.0000000  0.6508444  3
  13215  13213  13214  13218     1  0.0000000  1.0460000  1
  13215  13213  13214  13218     1  0.0000000  0.0000000  3
  13215  13213  13214  13230     1  0.0000000  1.0460000  1
  13215  13213  13214  13230     1  0.0000000  0.0000000  3
  13215  13213  13214  13217     1  0.0000000  0.6508444  3
  13215  13213  13219  13225     1  0.0000000  0.6973333  3
  13216  13212  13209  13221     1  0.0000000  1.0460000  1
  13216  13212  13209  13221     1  0.0000000  0.0000000  3
  13216  13212  13213  13219     1  0.0000000  1.0460000  1
  13216  13212  13213  13219     1  0.0000000  0.0000000  3
  13216  13212  13220  13223     1  0.0000000  0.6973333  3
  13217  13214  13213  13219     1  0.0000000  0.6508444  3
  13226  13222  13208  13230     1  0.0000000  1.0460000  1
  13226  13222  13208  13230     1  0.0000000  0.0000000  3
  13226  13222  13228  13229     1  0.0000000  0.6973333  3
  13227  13222  13208  13230     1  0.0000000  1.0460000  1
  13227  13222  13208  13230     1  0.0000000  0.0000000  3
  13227  13222  13228  13229     1  0.0000000  0.6973333  3
  13231  13232  13235  13239     1  0.0000000  0.6508444  3
  13231  13232  13244  13247     1  0.0000000  1.0460000  1
  13231  13232  13244  13247     1  0.0000000  0.6694400  3
  13231  13245  13251  13252     1  0.0000000  1.0460000  1
  13231  13245  13251  13252     1  0.0000000  0.6694400  3
  13231  13253  13237  13240     1  0.0000000  1.6038667  3
  13232  13235  13236  13238     1  0.0000000  0.6508444  3
  13232  13235  13243  13246     1  0.0000000  1.0460000  1
  13232  13235  13243  13246     1  0.0000000  0.6694400  3
  13232  13231  13245  13249     1  0.0000000  0.6508444  3
  13232  13231  13245  13250     1  0.0000000  0.6508444  3
  13233  13231  13232  13235     1  0.0000000  0.6508444  3
  13233  13231  13232  13244     1  0.0000000  1.0460000  1
  13233  13231  13232  13244     1  0.0000000  0.0000000  3
  13233  13231  13232  13234     1  0.0000000  0.6508444  3
  13233  13231  13245  13251     1  0.0000000  1.0460000  1
  13233  13231  13245  13251     1  0.0000000  0.0000000  3
  13233  13231  13245  13249     1  0.0000000  0.6508444  3
  13233  13231  13245  13250     1  0.0000000  0.6508444  3
  13233  13231  13253  13237     1  0.0000000  1.6038667  3
  13234  13232  13235  13236     1  0.0000000  0.6508444  3
  13234  13232  13235  13243     1  0.0000000  1.0460000  1
  13234  13232  13235  13243     1  0.0000000  0.0000000  3
  13234  13232  13235  13239     1  0.0000000  0.6508444  3
  13234  13232  13244  13247     1  0.0000000  0.6973333  3
  13234  13232  13231  13245     1  0.0000000  0.6508444  3
  13234  13232  13231  13253     1  0.0000000  1.0460000  1
  13234  13232  13231  13253     1  0.0000000  0.0000000  3
  13235  13236  13237  13240     1  0.0000000  0.6508444  3
  13235  13236  13242  13248     1  0.0000000  1.0460000  1
  13235  13236  13242  13248     1  0.0000000  0.6694400  3
  13235  13232  13244  13247     1  0.0000000  1.0460000  1
  13235  13232  13244  13247     1  0.0000000  0.6694400  3
  13236  13235  13243  13246     1  0.0000000  1.0460000  1
  13236  13235  13243  13246     1  0.0000000  0.6694400  3
  13237  13236  13242  13248     1  0.0000000  1.0460000  1
  13237  13236  13242  13248     1  0.0000000  0.6694400  3
  13237  13236  13235  13239     1  0.0000000  0.6508444  3
  13238  13236  13237  13241     1  0.0000000  1.0460000  1
  13238  13236  13237  13241     1  0.0000000  0.0000000  3
  13238  13236  13237  13253     1  0.0000000  1.0460000  1
  13238  13236  13237  13253     1  0.0000000  0.0000000  3
  13238  13236  13237  13240     1  0.0000000  0.6508444  3
  13238  13236  13242  13248     1  0.0000000  0.6973333  3
  13238  13236  13235  13243     1  0.0000000  1.0460000  1
  13238  13236  13235  13243     1  0.0000000  0.0000000  3
  13238  13236  13235  13239     1  0.0000000  0.6508444  3
  13239  13235  13236  13242     1  0.0000000  1.0460000  1
  13239  13235  13236  13242     1  0.0000000  0.0000000  3
  13239  13235  13243  13246     1  0.0000000  0.6973333  3
  13239  13235  13232  13244     1  0.0000000  1.0460000  1
  13239  13235  13232  13244     1  0.0000000  0.0000000  3
  13240  13237  13236  13242     1  0.0000000  0.6508444  3
  13249  13245  13251  13252     1  0.0000000  0.6973333  3
  13249  13245  13231  13253     1  0.0000000  1.0460000  1
  13249  13245  13231  13253     1  0.0000000  0.0000000  3
  13250  13245  13251  13252     1  0.0000000  0.6973333  3
  13250  13245  13231  13253     1  0.0000000  1.0460000  1
  13250  13245  13231  13253     1  0.0000000  0.0000000  3

;[ system ]
;; Name
;Generic title
;
;[ molecules ]
;; Compound       #mols
;g6npocore_petim_betagalactose            1
